Control file title. For DL_FIELD 4.10
49530
    1MOL     C1    1   7.338   3.615   6.796  0.6063  0.0974 -0.3857
    1MOL     C2    2   7.207   3.530   6.813  0.0194  0.0282 -0.5321
    1MOL     C3    3   7.168   3.464   6.676  0.5730  0.6539 -1.1939
    1MOL     C4    4   7.033   3.385   6.683 -0.1874  0.0385 -0.1368
    1MOL     C5    5   7.159   3.569   6.565 -0.4162  0.0292  0.3652
    1MOL     C6    6   7.294   3.634   6.546  0.2474 -0.4527 -0.2483
    1MOL     C7    7   7.332   3.712   6.673 -0.1703 -0.4365 -0.2991
    1MOL     C8    8   7.471   3.777   6.661  0.0618  0.2697  0.6334
    1MOL     O9    9   7.505   3.900   6.734  0.0132  0.0640 -0.3057
    1MOL    C10   10   7.449   4.017   6.690  0.3144 -0.3155 -0.4412
    1MOL    O11   11   7.371   4.031   6.593 -0.3599 -0.2251 -0.0358
    1MOL    C12   12   7.499   4.137   6.763  0.1882  0.4816 -0.2162
    1MOL    C13   13   7.563   4.130   6.893  0.5922 -0.7582 -0.5190
    1MOL    C14   14   7.601   4.256   6.951  0.2502  0.7556  0.7676
    1MOL    C15   15   7.599   4.375   6.878 -0.5877 -0.8796  0.7272
    1MOL    C16   16   7.661   4.502   6.929 -0.2357  0.1813 -0.3933
    1MOL    O17   17   7.674   4.600   6.866  0.3946 -0.9395  0.2004
    1MOL    O18   18   7.711   4.490   7.051 -0.9855  0.1274 -0.1206
    1MOL    C19   19   7.539   4.376   6.748 -0.8599  0.4670 -0.8416
    1MOL    C20   20   7.481   4.261   6.697 -0.6663  0.5173  0.7795
    1MOL    H21   21   7.413   3.536   6.788 -0.4401 -0.8887 -0.5508
    1MOL    H22   22   7.370   3.665   6.887 -1.1714  0.2730  0.1569
    1MOL    H23   23   7.126   3.597   6.840 -0.2544 -0.3020 -0.5411
    1MOL    H24   24   7.213   3.467   6.901  0.7694 -0.3688 -0.8599
    1MOL    H25   25   7.238   3.388   6.641 -0.0314 -0.1381 -0.7153
    1MOL    H26   26   7.028   3.307   6.759  3.4100  1.0395  1.2278
    1MOL    H27   27   7.028   3.330   6.590  1.9232  1.0145 -0.8573
    1MOL    H28   28   7.078   3.641   6.575  0.0202  0.4819  0.6707
    1MOL    H29   29   7.136   3.526   6.467  1.2035 -0.3540  0.1296
    1MOL    H30   30   7.377   3.578   6.502 -0.1151 -0.1777 -1.2946
    1MOL    H31   31   7.288   3.716   6.474  1.5743 -1.3661 -1.4338
    1MOL    H32   32   7.268   3.798   6.692 -0.4265 -0.1021 -2.5249
    1MOL    H33   33   7.489   3.806   6.558  0.7877 -2.1224  0.0543
    1MOL    H34   34   7.548   3.701   6.676  0.0147  0.5939  2.6881
    1MOL    H35   35   7.588   4.034   6.936 -0.3904 -0.9691 -0.4171
    1MOL    H36   36   7.636   4.263   7.053 -0.0546 -2.7561  1.1699
    1MOL    H37   37   7.536   4.466   6.689  0.5302 -0.1530 -1.8713
    1MOL    H38   38   7.445   4.281   6.597  1.3899  2.6878  0.4588
    1MOL    H39   39   6.941   3.442   6.700  0.5716  1.2150  0.0982
    1MOL    C40   40   7.772   4.450   7.470  1.3217  0.0110  1.0041
    1MOL    C41   41   7.776   4.445   7.317 -0.0728 -0.1991 -0.6997
    1MOL    C42   42   7.755   4.590   7.264 -0.2955 -0.3330 -0.5777
    1MOL    C43   43   7.787   4.590   7.117 -0.5984  0.1235  0.6172
    1MOL    C44   44   7.614   4.644   7.306  0.6683 -0.2117  0.2354
    1MOL    C45   45   7.625   4.662   7.454  0.5082 -0.1338 -0.1072
    1MOL    C46   46   7.654   4.530   7.530  0.0041  0.3200 -0.4610
    1MOL    C47   47   7.662   4.545   7.682  0.2730  0.0437 -0.1360
    1MOL    O48   48   7.694   4.426   7.755  0.4139 -0.1294 -0.7385
    1MOL    C49   49   7.604   4.345   7.797 -0.0741  0.0870 -0.3504
    1MOL    O50   50   7.487   4.374   7.773 -0.1126  0.2775  0.0822
    1MOL    C51   51   7.654   4.221   7.861  0.3950 -0.6902  0.0795
    1MOL    C52   52   7.556   4.148   7.932 -0.6247 -0.4825  0.2294
    1MOL    C53   53   7.601   4.037   8.008  0.6827  0.1225  0.1785
    1MOL    C54   54   7.737   4.004   8.021  0.4047 -0.0882  0.0542
    1MOL    C55   55   7.779   3.888   0.073  0.9250  0.4216  0.0214
    1MOL    O56   56   7.710   3.837   0.163 -0.4235  0.7664 -0.2993
    1MOL    O57   57   7.896   3.851   0.035 -0.3420  0.0586  0.0513
    1MOL    C58   58   7.827   4.083   7.946 -0.0963 -0.3651  0.3924
    1MOL    C59   59   7.790   4.190   7.865 -0.1353  0.0540  1.2272
    1MOL    H60   60   7.869   4.481   7.507  1.3450  0.0774  0.8864
    1MOL    H61   61   7.762   4.347   7.503  1.2093 -0.4268 -0.3784
    1MOL    H62   62   7.698   4.381   7.275  1.2853 -2.3372 -0.0608
    1MOL    H63   63   7.868   4.400   7.277  0.6582  3.1290 -3.0038
    1MOL    H64   64   7.837   4.647   7.308 -0.0856 -0.5368 -0.7100
    1MOL    H65   65   7.893   4.562   7.116 -1.0428 -1.6427  0.5266
    1MOL    H66   66   7.780   4.689   7.072 -1.2390  0.4582  1.4547
    1MOL    H67   67   7.541   4.566   7.288  0.6331 -0.2888  0.7185
    1MOL    H68   68   7.583   4.734   7.253 -0.7388 -0.0600  1.2906
    1MOL    H69   69   7.698   4.741   7.474 -0.5862  0.9984 -0.5055
    1MOL    H70   70   7.522   4.692   7.478  0.5354  0.3053 -0.5198
    1MOL    H71   71   7.572   4.461   7.509  0.8269 -0.7154 -0.3385
    1MOL    H72   72   7.567   4.577   7.724 -0.2328 -1.5020 -0.1046
    1MOL    H73   73   7.729   4.627   7.710 -1.7496  1.6332  0.1600
    1MOL    H74   74   7.451   4.172   7.922 -0.7939 -1.5924 -0.7763
    1MOL    H75   75   7.528   3.981   0.032  0.5343  1.3447  1.2205
    1MOL    H76   76   7.932   4.055   7.948  0.2862  1.0797  1.0972
    1MOL    H77   77   7.862   4.241   7.803  1.0474  0.0072  2.5246
    1MOL    C78   78   0.268   3.594   0.015 -0.3123 -0.7103  0.2906
    1MOL    C79   79   0.121   3.585   0.054  0.6548  0.2429 -0.8290
    1MOL    C80   80   0.065   3.727   0.030  0.8279 -0.0115 -0.3300
    1MOL    C81   81   7.956   3.732   0.094  0.3041 -0.8253  0.4657
    1MOL    C82   82   0.146   3.825   0.111  0.1437 -0.7436 -0.6871
    1MOL    C83   83   0.291   3.825   0.070  0.6646  0.2979  0.0737
    1MOL    C84   84   0.349   3.691   0.094  0.1268 -0.1011  0.1853
    1MOL    C85   85   0.493   3.688   0.051 -0.1383  0.1161 -0.3378
    1MOL    O86   86   0.524   3.750   7.960  0.3115 -0.2726  0.0586
    1MOL    C87   87   0.564   3.679   7.851  0.2995  0.6364  0.1668
    1MOL    O88   88   0.513   3.569   7.830  0.8657 -0.2551 -0.0453
    1MOL    C89   89   0.647   3.751   7.761  0.6770  0.5586  0.6314
    1MOL    C90   90   0.706   3.876   7.787  0.3102  0.3559  0.5252
    1MOL    C91   91   0.787   3.948   7.702 -1.1923 -0.1313  0.3202
    1MOL    C92   92   0.814   3.890   7.573  0.2552 -0.0139  0.3330
    1MOL    C93   93   0.902   3.965   7.472  0.5050 -0.5161 -0.7711
    1MOL    O94   94   0.927   4.089   7.468  0.2462 -0.2718  0.7053
    1MOL    O95   95   0.946   3.887   7.387 -0.2460 -0.3013  0.1814
    1MOL    C96   96   0.766   3.760   7.542  0.2197  0.5948  0.9638
    1MOL    C97   97   0.677   3.703   7.630  1.0181  0.7147  0.8793
    1MOL    H98   98   0.278   3.600   7.939  2.0239  2.3510  0.6411
    1MOL    H99   99   0.316   3.500   0.045  1.0208  0.0540  0.5767
    1MOL   H100  100   0.108   3.551   0.157  0.8401 -3.2995 -1.9073
    1MOL   H101  101   0.075   3.526   8.006  0.9102  2.4527 -2.6656
    1MOL   H102  102   0.048   3.760   7.959  0.3591  1.4713  0.2114
    1MOL   H103  103   7.967   3.722   0.202  1.0184  0.1903  0.4998
    1MOL   H104  104   7.900   3.644   0.064 -0.3783 -0.4794  0.7064
    1MOL   H105  105   0.146   3.809   0.219  2.9467  0.6631 -0.4204
    1MOL   H106  106   0.107   3.927   0.107  1.1291 -0.2827  0.9361
    1MOL   H107  107   0.302   3.865   8.002  0.2243 -0.3579 -0.2406
    1MOL   H108  108   0.336   3.894   0.142  0.6841  0.9856 -0.5964
    1MOL   H109  109   0.327   3.670   0.199  1.4301 -1.1186  0.2502
    1MOL   H110  110   0.544   3.594   0.071  1.2691  1.0801  0.6427
    1MOL   H111  111   0.551   3.755   0.114  0.3173  1.4455 -2.1310
    1MOL   H112  112   0.694   3.917   7.886  1.5396 -0.2611  0.9441
    1MOL   H113  113   0.831   4.042   7.734 -0.7648  0.0936 -0.9024
    1MOL   H114  114   0.800   3.707   7.454  0.7111  1.2206  0.7757
    1MOL   H115  115   0.649   3.604   7.596  1.1491  0.9644  0.0378
    1MOL   C116  116   1.303   3.691   7.118  0.1585  0.0856 -0.7811
    1MOL   C117  117   1.241   3.820   7.173 -0.0361 -0.6114 -0.0688
    1MOL   C118  118   1.115   3.795   7.258 -0.3901 -0.5801 -0.5929
    1MOL   C119  119   1.035   3.924   7.292  0.4162 -0.0791 -0.3708
    1MOL   C120  120   1.018   3.703   7.183  0.0186  0.0582 -0.1379
    1MOL   C121  121   1.080   3.583   7.134 -0.2788  0.0352 -0.6047
    1MOL   C122  122   1.198   3.607   7.041 -0.3691 -0.5604 -0.8688
    1MOL   C123  123   1.261   3.485   6.994  0.5684  0.5646 -0.6255
    1MOL   O124  124   1.186   3.391   6.911 -0.2799 -0.2387  0.7030
    1MOL   C125  125   1.251   3.292   6.851  0.5646  0.1860 -0.3449
    1MOL   O126  126   1.371   3.265   6.874 -0.0193  0.6328 -0.0323
    1MOL   C127  127   1.167   3.222   6.745 -0.2417  0.6979 -0.0489
    1MOL   C128  128   1.022   3.231   6.738 -0.4919 -0.1731  0.0321
    1MOL   C129  129   0.958   3.171   6.632 -0.4216 -0.1652 -0.1438
    1MOL   C130  130   1.028   3.105   6.531 -0.1764 -0.4437  0.1898
    1MOL   C131  131   0.956   3.048   6.407 -0.0993  0.3133 -0.2867
    1MOL   O132  132   1.018   2.974   6.328 -0.0591 -0.0341  0.0592
    1MOL   O133  133   0.825   3.080   6.404  0.5553  0.6044 -0.0130
    1MOL   C134  134   1.162   3.085   6.548 -1.0782 -0.3088  0.1221
    1MOL   C135  135   1.235   3.136   6.657  0.4289 -0.2964  0.2726
    1MOL   H136  136   1.344   3.637   7.203 -0.9515  0.3716 -0.0625
    1MOL   H137  137   1.384   3.734   7.060  1.1803  0.0132  0.5809
    1MOL   H138  138   1.227   3.898   7.098  1.1462 -2.2678 -2.0876
    1MOL   H139  139   1.319   3.859   7.239 -0.3497  0.1248 -0.1239
    1MOL   H140  140   1.142   3.748   7.352 -0.9107 -0.1270 -0.2162
    1MOL   H141  141   1.001   3.988   7.210  0.1408  0.8252  0.4435
    1MOL   H142  142   1.110   3.991   7.334  0.3076  0.2563 -0.7048
    1MOL   H143  143   0.986   3.764   7.099 -0.4877 -0.5360 -0.3844
    1MOL   H144  144   0.935   3.678   7.249 -0.7341 -0.0552 -1.1165
    1MOL   H145  145   1.109   3.524   7.221  2.9283  2.0145 -0.2192
    1MOL   H146  146   1.002   3.519   7.094 -0.1683  0.4225 -1.4414
    1MOL   H147  147   1.163   3.662   6.954  1.2167  1.2403 -0.3822
    1MOL   H148  148   1.283   3.425   7.082 -0.8439  2.2863  0.9477
    1MOL   H149  149   1.360   3.505   6.954  0.4054  1.3610 -0.6306
    1MOL   H150  150   0.978   3.292   6.816 -0.9092 -0.3813 -0.0410
    1MOL   H151  151   0.850   3.182   6.639 -0.5632 -2.5081  2.0160
    1MOL   H152  152   1.214   3.019   6.480 -0.3516  0.0750  0.2939
    1MOL   H153  153   1.338   3.105   6.657 -0.0999 -2.2340  2.0587
    1MOL   C154  154   0.582   3.257   6.019  0.6959  0.4309 -0.0535
    1MOL   C155  155   0.604   3.203   6.159  0.0907  0.3101 -0.0855
    1MOL   C156  156   0.723   3.099   6.173 -0.2621 -0.4930  0.5519
    1MOL   C157  157   0.742   3.023   6.306 -0.3993  0.4685 -0.4119
    1MOL   C158  158   0.709   2.997   6.057 -0.2457  0.3701  0.6853
    1MOL   C159  159   0.716   3.069   5.925 -0.1500 -1.1875  0.3449
    1MOL   C160  160   0.596   3.161   5.898 -0.0536 -0.0429 -0.4531
    1MOL   C161  161   0.619   3.237   5.765 -0.5587  0.4410  0.0408
    1MOL   O162  162   0.499   3.304   5.727  0.5295  0.1739  0.1090
    1MOL   C163  163   0.483   3.348   5.599  0.4943  0.2627 -0.4380
    1MOL   O164  164   0.567   3.328   5.515  0.2813  0.6136  0.3480
    1MOL   C165  165   0.362   3.432   5.585  0.3359 -0.3400  0.0187
    1MOL   C166  166   0.261   3.424   5.684 -0.0706  0.6224  0.0465
    1MOL   C167  167   0.143   3.499   5.666  0.4747  0.3449  0.1748
    1MOL   C168  168   0.124   3.594   5.562 -0.3060  1.1566  0.4623
    1MOL   C169  169   0.002   3.670   5.539  0.3509 -0.5541  0.5646
    1MOL   O170  170   8.024   3.752   5.444  0.5364  0.6051 -0.3505
    1MOL   O171  171   7.943   3.641   5.627  0.5321  0.4637  0.6441
    1MOL   C172  172   0.229   3.600   5.472 -0.0575  0.1384  0.0561
    1MOL   C173  173   0.343   3.520   5.476 -0.4789  0.3301 -0.2664
    1MOL   H174  174   0.661   3.331   6.005  1.0193  0.1086  0.0625
    1MOL   H175  175   0.489   3.314   6.015  1.4445  1.6800 -0.1695
    1MOL   H176  176   0.515   3.157   6.203  0.6622  0.6964  1.4968
    1MOL   H177  177   0.628   3.285   6.227 -0.0646  1.0612 -0.9239
    1MOL   H178  178   0.817   3.152   6.154 -0.3003 -0.7798 -0.4150
    1MOL   H179  179   0.776   2.921   6.288  0.7390  1.1667 -2.3577
    1MOL   H180  180   0.643   3.016   6.350 -0.8586 -0.4734 -1.5931
    1MOL   H181  181   0.615   2.943   6.068 -0.9517  1.2934 -0.7372
    1MOL   H182  182   0.781   2.915   6.051  0.2135  0.8540 -0.6467
    1MOL   H183  183   0.804   3.133   5.929 -0.5616 -0.6913  2.6334
    1MOL   H184  184   0.736   2.997   5.846  1.7462  0.5855 -0.8461
    1MOL   H185  185   0.506   3.100   5.888 -2.0008  2.4731  0.9750
    1MOL   H186  186   0.643   3.158   5.694  1.7677  0.3599  0.8849
    1MOL   H187  187   0.694   3.316   5.766 -1.2017  1.0549  1.4927
    1MOL   H188  188   0.276   3.365   5.773  2.4946  0.6984 -0.2918
    1MOL   H189  189   0.073   3.488   5.748  0.0235 -0.2012 -0.2752
    1MOL   H190  190   0.224   3.658   5.380 -0.5924  0.2078  0.1276
    1MOL   H191  191   0.418   3.524   5.399 -1.1875  0.5888 -0.9540
    1MOL   C192  192   7.774   3.558   6.009 -0.8404  0.6219  0.1014
    1MOL   C193  193   7.825   3.633   5.881  0.5237  0.2384  0.1299
    1MOL   C194  194   7.750   3.604   5.755  0.3297  0.0322  0.6745
    1MOL   C195  195   7.809   3.684   5.636  0.0686 -0.3831 -0.2214
    1MOL   C196  196   7.743   3.453   5.734  0.2496  0.1822  0.3222
    1MOL   C197  197   7.702   3.370   5.862  0.2046 -0.0657  0.0487
    1MOL   C198  198   7.790   3.408   5.986  0.6129  0.6028  0.1655
    1MOL   C199  199   7.751   3.321   6.106  0.5495 -0.3510 -0.4760
    1MOL   O200  200   7.866   3.288   6.184 -0.1822  0.2763 -0.0584
    1MOL   C201  201   7.903   3.158   6.191  1.0121  0.3069  0.0935
    1MOL   O202  202   7.845   3.059   6.135  0.3297  0.8544 -0.5053
    1MOL   C203  203   0.001   3.147   6.266 -0.1803 -0.8060  0.2999
    1MOL   C204  204   0.076   3.265   6.278  0.4562  0.6172 -0.2163
    1MOL   C205  205   0.209   3.257   6.329  0.3045 -0.0331 -0.3609
    1MOL   C206  206   0.260   3.139   6.381  0.6680  0.4877  0.1367
    1MOL   C207  207   0.382   3.147   6.458  0.4902  0.3070  0.7085
    1MOL   O208  208   0.464   3.242   6.457  0.0852 -0.5195 -0.5190
    1MOL   O209  209   0.396   3.044   6.547 -0.5914  0.5848  0.2570
    1MOL   C210  210   0.194   3.019   6.355 -0.5458 -0.0079 -0.5748
    1MOL   C211  211   0.061   3.020   6.297 -0.3084  0.1011 -0.1355
    1MOL   H212  212   7.674   3.581   6.044 -0.6170  1.6865  0.0639
    1MOL   H213  213   7.841   3.586   6.091  1.3457  1.6845 -1.9869
    1MOL   H214  214   7.933   3.626   5.870  0.6215  3.6125 -1.6300
    1MOL   H215  215   7.823   3.737   5.912  2.3578  0.2169  0.4017
    1MOL   H216  216   7.650   3.637   5.784  0.8695  1.4463  0.9833
    1MOL   H217  217   7.804   3.790   5.659  0.1144 -0.4799  0.2474
    1MOL   H218  218   7.755   3.673   5.542  1.1549  0.5586 -0.9660
    1MOL   H219  219   7.844   3.416   5.717  0.5564  0.4128  1.5754
    1MOL   H220  220   7.676   3.416   5.658  0.9695 -1.8393  0.6492
    1MOL   H221  221   7.601   3.407   5.880  0.7637  1.9999 -0.9914
    1MOL   H222  222   7.699   3.262   5.847 -1.2232  0.2014 -1.7935
    1MOL   H223  223   7.895   3.388   5.968  1.3796  3.4897  1.1845
    1MOL   H224  224   7.690   3.234   6.081  2.1388 -1.9895  1.1429
    1MOL   H225  225   7.693   3.378   6.179  0.9682 -0.2272 -0.2324
    1MOL   H226  226   0.047   3.365   6.249 -0.8100  0.0864 -0.8389
    1MOL   H227  227   0.258   3.353   6.334 -0.7537  0.6325 -2.3234
    1MOL   H228  228   0.251   2.931   6.381  2.0884  1.4057 -1.3861
    1MOL   H229  229   0.011   2.927   6.275 -0.9220  0.8071 -1.8074
    1MOL   C230  230   0.555   3.261   6.930  1.1859 -0.2618  0.3703
    1MOL   C231  231   0.548   3.225   6.779  0.5571  0.6594  0.4348
    1MOL   C232  232   0.533   3.068   6.756  0.0545 -0.2737  0.4208
    1MOL   C233  233   0.527   3.017   6.604  0.0533 -0.1577  0.2426
    1MOL   C234  234   0.640   2.990   6.832 -0.8889 -0.1742  0.0281
    1MOL   C235  235   0.674   3.039   6.969  0.0694  0.2362  0.2621
    1MOL   C236  236   0.691   3.198   6.979 -0.2711 -0.3084 -0.2725
    1MOL   C237  237   0.708   3.263   7.118  0.4929 -0.7886  0.7493
    1MOL   O238  238   0.838   3.231   7.157  0.5712 -0.0687  0.4237
    1MOL   C239  239   0.873   3.252   7.280  1.0478 -0.2024 -0.1165
    1MOL   O240  240   0.799   3.278   7.378 -0.2407  0.0608 -0.7240
    1MOL   C241  241   1.015   3.253   7.290 -0.2336 -0.0748  0.6722
    1MOL   C242  242   1.074   3.307   7.409 -0.2177  0.8177 -0.2979
    1MOL   C243  243   1.215   3.319   7.429 -0.5415 -0.2321  0.3850
    1MOL   C244  244   1.295   3.259   7.334  0.4639  0.2910 -0.8151
    1MOL   C245  245   1.441   3.267   7.355  0.0726 -0.7343 -0.6086
    1MOL   O246  246   1.495   3.322   7.454 -0.7311  0.7153 -0.0299
    1MOL   O247  247   1.506   3.202   7.262  0.1572  0.1476  0.3669
    1MOL   C248  248   1.238   3.200   7.219  0.1697 -0.1499  0.4732
    1MOL   C249  249   1.102   3.202   7.191 -0.4404 -0.2501  0.2327
    1MOL   H250  250   0.464   3.220   6.974  1.7517 -0.6682  1.1769
    1MOL   H251  251   0.568   3.367   6.950 -0.8643  0.2451 -0.9021
    1MOL   H252  252   0.637   3.267   6.731  1.6660 -0.7372  1.2375
    1MOL   H253  253   0.463   3.271   6.729  0.6647  1.7015  1.1924
    1MOL   H254  254   0.437   3.043   6.803 -1.3367 -1.4574 -2.8989
    1MOL   H255  255   0.544   2.910   6.596  0.5989  0.0936 -2.5834
    1MOL   H256  256   0.615   3.063   6.558  0.0903  0.6789  1.1154
    1MOL   H257  257   0.733   2.999   6.775 -0.9151  0.8283  0.1258
    1MOL   H258  258   0.616   2.884   6.836 -0.4325 -0.2557  0.6016
    1MOL   H259  259   0.586   3.008   7.024 -0.1399 -0.9377 -0.7002
    1MOL   H260  260   0.759   2.980   7.004 -0.7744 -0.8035  0.5583
    1MOL   H261  261   0.773   3.239   6.920 -0.6298  0.3338 -0.3271
    1MOL   H262  262   0.632   3.228   7.188 -0.2855 -2.5608 -0.9270
    1MOL   H263  263   0.688   3.370   7.123  2.0125 -0.4329 -0.4358
    1MOL   H264  264   1.010   3.349   7.485 -1.0849 -0.8018 -0.1092
    1MOL   H265  265   1.248   3.366   7.520 -1.6934  1.7730 -0.2210
    1MOL   H266  266   1.299   3.146   7.148  2.6452  1.9774  0.9009
    1MOL   H267  267   1.070   3.171   7.093  1.4845  3.3940 -1.6332
    1MOL   C268  268   1.828   3.530   7.205  0.0041  0.0357 -0.2196
    1MOL   C269  269   1.759   3.422   7.281  0.1267  0.2450 -0.0779
    1MOL   C270  270   1.714   3.304   7.191 -0.1022 -0.1728 -0.0190
    1MOL   C271  271   1.645   3.186   7.258  0.2904 -0.0474  0.1216
    1MOL   C272  272   1.632   3.353   7.064  0.2119  0.2398  0.0639
    1MOL   C273  273   1.699   3.471   6.990 -0.8578  0.0457 -0.5658
    1MOL   C274  274   1.737   3.586   7.093  0.0322 -0.5803 -0.0200
    1MOL   C275  275   1.824   3.698   7.020  0.1667 -0.0901 -0.0635
    1MOL   O276  276   1.795   3.771   6.905  0.4354  0.2540  0.0692
    1MOL   C277  277   1.690   3.851   6.911 -1.1186  0.5516  0.2497
    1MOL   O278  278   1.615   3.862   7.006  0.1938 -0.3329  0.6071
    1MOL   C279  279   1.662   3.931   6.781 -1.3408 -0.1914 -0.0406
    1MOL   C280  280   1.542   3.991   6.747  0.5162 -0.0271  0.3167
    1MOL   C281  281   1.529   4.053   6.620  0.8326  0.6698  0.4068
    1MOL   C282  282   1.637   4.077   6.535 -0.8390 -0.3344 -0.0621
    1MOL   C283  283   1.621   4.171   6.426 -0.1816  0.0593  0.2848
    1MOL   O284  284   1.509   4.209   6.393  0.0311  0.5442 -0.7160
    1MOL   O285  285   1.739   4.211   6.371 -0.2756 -0.1992 -0.7324
    1MOL   C286  286   1.759   4.021   6.568 -0.8577 -0.4731  0.1765
    1MOL   C287  287   1.769   3.945   6.682 -0.2183  0.9321 -0.7354
    1MOL   H288  288   1.923   3.496   7.163  0.6889  0.9297  0.5896
    1MOL   H289  289   1.861   3.605   7.277 -0.5333  0.1611 -0.1035
    1MOL   H290  290   1.665   3.467   7.313 -0.0681  1.0913 -1.7567
    1MOL   H291  291   1.805   3.395   7.376  0.0110  0.9831  0.1908
    1MOL   H292  292   1.814   3.271   7.162  0.1589 -0.3358  1.0302
    1MOL   H293  293   1.685   3.167   7.357  0.2912 -0.7480 -0.0102
    1MOL   H294  294   1.658   3.090   7.208 -0.1041 -0.9892  1.7856
    1MOL   H295  295   1.533   3.386   7.095 -0.3523 -0.6692 -0.7317
    1MOL   H296  296   1.619   3.274   6.990  0.8002  0.3733 -0.1820
    1MOL   H297  297   1.796   3.438   6.953 -1.1934 -1.6231 -0.0228
    1MOL   H298  298   1.643   3.520   6.911  0.0451  0.2945 -1.0521
    1MOL   H299  299   1.659   3.650   7.133 -2.3389 -2.0624 -2.1576
    1MOL   H300  300   1.918   3.645   7.001  0.2754 -0.4991  1.5479
    1MOL   H301  301   1.855   3.768   7.097 -0.6321  2.3624 -1.8954
    1MOL   H302  302   1.459   3.990   6.816  0.8648 -0.1716  0.7373
    1MOL   H303  303   1.440   4.110   6.599  1.8172  2.9983  2.3277
    1MOL   H304  304   1.838   4.041   6.497  0.5203  1.1789  2.1269
    1MOL   H305  305   1.861   3.894   6.708 -1.0209 -0.1911 -0.0272
    1MOL   C306  306   2.118   4.321   6.199 -0.3064  0.3820  0.1040
    1MOL   C307  307   1.975   4.273   6.210 -0.2851 -0.5342 -0.6048
    1MOL   C308  308   1.886   4.380   6.283 -0.3305 -0.0281  0.4914
    1MOL   C309  309   1.740   4.326   6.291 -0.2140  0.0372 -0.2716
    1MOL   C310  310   1.945   4.406   6.421  0.0774 -0.0566 -0.3885
    1MOL   C311  311   2.093   4.454   6.418 -0.3661 -0.0019  0.0435
    1MOL   C312  312   2.182   4.352   6.338 -0.7913  0.2402  0.5547
    1MOL   C313  313   2.327   4.393   6.334  0.1701 -0.0402  0.0014
    1MOL   O314  314   2.406   4.294   6.262  0.1050 -0.1440 -0.2532
    1MOL   C315  315   2.511   4.243   6.320 -0.0560 -0.1959 -0.0443
    1MOL   O316  316   2.532   4.247   6.445  0.4498 -0.2702 -0.4362
    1MOL   C317  317   2.606   4.186   6.215  0.2160 -0.2457  0.5015
    1MOL   C318  318   2.735   4.143   6.250  0.6571 -0.8583  0.7353
    1MOL   C319  319   2.833   4.106   6.154  0.2603 -0.6342 -0.8313
    1MOL   C320  320   2.796   4.100   6.022 -0.4620  0.1354 -0.4910
    1MOL   C321  321   2.889   4.048   5.919 -0.4023 -0.2001  0.3757
    1MOL   O322  322   2.864   3.982   5.819 -0.0713  0.7079  0.4205
    1MOL   O323  323   3.017   4.082   5.953  0.1137 -0.3239  0.2701
    1MOL   C324  324   2.668   4.146   5.983 -0.3142  0.6661  0.4342
    1MOL   C325  325   2.575   4.195   6.078  0.3287 -1.4474 -0.4154
    1MOL   H326  326   2.124   4.410   6.136  2.4671  0.5805  0.5797
    1MOL   H327  327   2.178   4.244   6.153  1.0262  0.7597  1.1840
    1MOL   H328  328   1.982   4.174   6.256  0.3097 -0.4997 -0.6226
    1MOL   H329  329   1.941   4.259   6.107  0.0759  2.3136 -1.1431
    1MOL   H330  330   1.884   4.468   6.218  0.3652 -0.5026 -0.1796
    1MOL   H331  331   1.694   4.308   6.194 -0.4391  1.3407 -0.4157
    1MOL   H332  332   1.677   4.402   6.338 -0.8789 -1.1849  0.8722
    1MOL   H333  333   1.935   4.317   6.483 -2.3548 -0.2833 -1.0824
    1MOL   H334  334   1.877   4.475   6.472 -1.6676 -3.2413  1.7362
    1MOL   H335  335   2.087   4.553   6.373 -1.1567  1.1722  2.6266
    1MOL   H336  336   2.137   4.477   6.515 -0.2910 -0.7633  0.1908
    1MOL   H337  337   2.190   4.273   6.412 -1.2214 -1.2035 -0.9125
    1MOL   H338  338   2.357   4.402   6.439  2.9313  1.6436 -0.8908
    1MOL   H339  339   2.352   4.487   6.285  1.2921 -1.0228 -1.3691
    1MOL   H340  340   2.766   4.145   6.354 -2.7307  1.2690  1.8059
    1MOL   H341  341   2.927   4.071   6.193  2.0900  1.4090 -3.2264
    1MOL   H342  342   2.644   4.140   5.878  1.8863 -1.9640 -0.0131
    1MOL   H343  343   2.478   4.224   6.040  0.0645 -0.4487  0.9726
    1MOL   C344  344   3.451   3.832   5.971 -0.0304  0.3682  0.2659
    1MOL   C345  345   3.351   3.913   5.890  0.4888 -0.0845  0.1613
    1MOL   C346  346   3.223   3.961   5.961 -0.0285  0.2847  0.3691
    1MOL   C347  347   3.133   4.040   5.879 -0.4759 -0.5410  0.7897
    1MOL   C348  348   3.152   3.836   6.028 -0.2488  0.4493 -0.2632
    1MOL   C349  349   3.251   3.767   6.122 -0.7240 -0.5536  0.1818
    1MOL   C350  350   3.380   3.715   6.050  0.5566 -0.0761 -0.1018
    1MOL   C351  351   3.473   3.651   6.147 -0.6720  0.0794 -0.0205
    1MOL   O352  352   3.579   3.576   6.084 -0.1418  0.2922 -0.4944
    1MOL   C353  353   3.551   3.456   6.032 -0.7339 -0.2615  0.2949
    1MOL   O354  354   3.441   3.410   6.029 -0.3802 -0.1250 -0.1702
    1MOL   C355  355   3.681   3.393   5.984  0.0446  0.3538  0.1208
    1MOL   C356  356   3.787   3.472   5.937 -1.2145 -0.0784 -0.2230
    1MOL   C357  357   3.905   3.408   5.899 -0.1727 -0.4808  0.1195
    1MOL   C358  358   3.923   3.269   5.907  0.6055  0.0838  0.2247
    1MOL   C359  359   4.054   3.211   5.871  0.5241  0.3336  0.5696
    1MOL   O360  360   4.140   3.282   5.819  0.4645  0.1518  0.0456
    1MOL   O361  361   4.060   3.076   5.890  0.2574  0.2804  0.1240
    1MOL   C362  362   3.816   3.189   5.946 -0.3629 -0.0034  0.0128
    1MOL   C363  363   3.692   3.252   5.981  0.3706 -0.3510 -0.3034
    1MOL   H364  364   3.504   3.894   6.044  0.5197  1.2591 -0.8768
    1MOL   H365  365   3.523   3.786   5.903  0.0061 -0.1011  0.6170
    1MOL   H366  366   3.298   3.847   5.821  0.1697 -1.3909  1.6406
    1MOL   H367  367   3.406   3.983   5.827 -0.8201  1.7170  1.0091
    1MOL   H368  368   3.246   4.030   6.042 -0.9266  0.6511  0.3119
    1MOL   H369  369   3.100   3.980   5.793 -1.5322  2.5815 -1.0624
    1MOL   H370  370   3.179   4.131   5.842  0.3430 -1.2959 -0.0924
    1MOL   H371  371   3.122   3.771   5.946 -0.3340 -1.1752  1.0168
    1MOL   H372  372   3.060   3.870   6.075 -0.3482 -0.2819  0.0762
    1MOL   H373  373   3.269   3.833   6.207 -1.7947 -1.8799  1.4652
    1MOL   H374  374   3.200   3.681   6.165 -2.6702  0.7858  0.6467
    1MOL   H375  375   3.341   3.638   5.984 -0.6732 -1.1161  1.7923
    1MOL   H376  376   3.422   3.602   6.231 -0.6822  0.9798  0.5063
    1MOL   H377  377   3.529   3.730   6.197  2.4572 -1.0630 -1.6328
    1MOL   H378  378   3.779   3.580   5.932 -1.2947  0.0693  2.3502
    1MOL   H379  379   3.983   3.474   5.865  0.6375 -0.9981  0.9414
    1MOL   H380  380   3.814   3.081   5.947  1.6292 -0.0551 -0.4225
    1MOL   H381  381   3.610   3.189   6.012  0.2571 -0.9615 -1.8000
    1MOL   C382  382   4.143   2.712   5.542 -0.2553 -0.4923  0.3848
    1MOL   C383  383   4.181   2.782   5.674  0.4198 -0.2960 -0.1414
    1MOL   C384  384   4.108   2.919   5.703 -0.4397 -0.2888 -0.4049
    1MOL   C385  385   4.161   2.994   5.831 -0.6916  0.1181 -0.2876
    1MOL   C386  386   4.104   3.010   5.578  0.3421  0.1157  0.0001
    1MOL   C387  387   4.032   2.932   5.466  0.6873  0.2082 -0.1400
    1MOL   C388  388   4.117   2.812   5.424 -0.4467  0.3737 -0.1652
    1MOL   C389  389   4.077   2.744   5.299 -0.4157  0.1804 -0.1413
    1MOL   O390  390   3.942   2.704   5.313 -0.0806  0.1944  0.2505
    1MOL   C391  391   3.875   2.625   5.229 -0.5033 -0.8324  0.5986
    1MOL   O392  392   3.935   2.565   5.138 -0.0163 -0.2126  0.2554
    1MOL   C393  393   3.729   2.621   5.262  0.0991  0.2569 -0.0606
    1MOL   C394  394   3.645   2.548   5.168  0.1137 -0.4547 -0.1267
    1MOL   C395  395   3.504   2.539   5.179  0.8057 -0.4359  1.1736
    1MOL   C396  396   3.442   2.608   5.282  0.6120 -0.4203 -0.5984
    1MOL   C397  397   3.295   2.620   5.306  0.2071  0.7619  0.2523
    1MOL   O398  398   3.245   2.667   5.405  0.0558 -0.0066  0.3174
    1MOL   O399  399   3.223   2.585   5.201  0.4992 -0.0025  0.5777
    1MOL   C400  400   3.521   2.673   5.378 -0.9677  0.2062 -0.6795
    1MOL   C401  401   3.663   2.677   5.375 -0.5961 -0.4792 -0.2579
    1MOL   H402  402   4.051   2.654   5.551  0.3444 -1.1976  2.1607
    1MOL   H403  403   4.224   2.647   5.509  0.2605  0.7672 -0.8580
    1MOL   H404  404   4.288   2.800   5.665  0.2647  0.2748 -0.8526
    1MOL   H405  405   4.162   2.706   5.750  0.2981 -0.7139 -0.5842
    1MOL   H406  406   4.004   2.906   5.732 -0.7454  1.7845 -0.4792
    1MOL   H407  407   4.250   3.051   5.806  1.3294 -2.6889  0.2101
    1MOL   H408  408   4.172   2.924   5.914 -1.5471  0.5628  0.1966
    1MOL   H409  409   4.202   3.045   5.545  1.2910 -1.4539  1.0969
    1MOL   H410  410   4.040   3.095   5.601 -1.8259 -2.2104  3.0038
    1MOL   H411  411   3.932   2.904   5.500  1.5667 -1.6968  0.9755
    1MOL   H412  412   4.016   2.986   5.373  1.1477 -3.2089 -2.2914
    1MOL   H413  413   4.212   2.857   5.396  0.0631 -2.4127 -3.1813
    1MOL   H414  414   4.132   2.652   5.281  0.4631  0.5581  0.5869
    1MOL   H415  415   4.078   2.815   5.216  1.4638  0.5481  0.1826
    1MOL   H416  416   3.684   2.503   5.078  0.3208 -0.9373  0.2070
    1MOL   H417  417   3.452   2.487   5.100  0.7309  0.1380  0.8388
    1MOL   H418  418   3.479   2.745   5.447  0.8123  1.5650 -0.9598
    1MOL   H419  419   3.721   2.738   5.443  0.8649 -1.8806 -0.2065
    1MOL   C420  420   3.047   2.394   4.844 -0.1428 -0.0560 -0.5246
    1MOL   C421  421   3.104   2.489   4.958  0.1630  0.2527 -0.2384
    1MOL   C422  422   3.019   2.491   5.088 -0.5426  0.1696  0.4140
    1MOL   C423  423   3.080   2.590   5.187 -0.0865  0.2628 -0.4390
    1MOL   C424  424   2.872   2.517   5.053 -0.2661 -0.5780 -0.5270
    1MOL   C425  425   2.819   2.410   4.951 -0.4370 -0.0123 -0.6178
    1MOL   C426  426   2.897   2.410   4.817  0.1170 -0.6167 -0.2741
    1MOL   C427  427   2.828   2.304   4.719 -0.5222 -0.9813 -0.0254
    1MOL   O428  428   2.831   2.172   4.770  0.2882 -0.0784  0.5383
    1MOL   C429  429   2.732   2.094   4.811  0.4145 -0.5221 -1.1152
    1MOL   O430  430   2.618   2.139   4.814 -0.1238  0.1983 -0.0952
    1MOL   C431  431   2.778   1.965   4.871  0.3610 -0.1115 -0.4841
    1MOL   C432  432   2.897   1.904   4.827 -0.6843  0.0705  0.1051
    1MOL   C433  433   2.943   1.784   4.882 -0.2187 -0.2237 -0.0759
    1MOL   C434  434   2.872   1.731   4.994 -0.3305 -0.0764 -0.1292
    1MOL   C435  435   2.926   1.610   5.067  0.2089  0.3029  0.2792
    1MOL   O436  436   2.861   1.545   5.147  0.0727  0.7119  0.5547
    1MOL   O437  437   3.060   1.591   5.047  0.1796  0.0675  0.1682
    1MOL   C438  438   2.745   1.789   5.036 -0.4662  0.0602  0.7290
    1MOL   C439  439   2.702   1.912   4.975 -0.6127 -0.2177 -0.1733
    1MOL   H440  440   3.072   2.295   4.883  1.2014  0.8006  0.8715
    1MOL   H441  441   3.115   2.397   4.759 -1.1288  0.9541 -1.2993
    1MOL   H442  442   3.102   2.587   4.911  1.1310 -0.3248 -1.5363
    1MOL   H443  443   3.203   2.456   4.988  1.0443  1.7399 -1.4320
    1MOL   H444  444   3.040   2.390   5.122  0.1487  1.1007  2.8650
    1MOL   H445  445   3.030   2.580   5.283 -0.2160  0.8794 -0.4370
    1MOL   H446  446   3.056   2.694   5.162 -1.1402 -0.1812 -1.3258
    1MOL   H447  447   2.851   2.613   5.005  0.3694 -1.1992 -2.0703
    1MOL   H448  448   2.805   2.508   5.138 -1.4792  0.1039 -1.3825
    1MOL   H449  449   2.807   2.313   5.000  1.1788 -0.0705 -0.3145
    1MOL   H450  450   2.715   2.439   4.934 -1.2421 -2.5790 -0.1929
    1MOL   H451  451   2.888   2.510   4.775 -0.4574 -0.0347  1.1579
    1MOL   H452  452   2.866   2.304   4.617 -2.1308  1.1834 -0.6692
    1MOL   H453  453   2.725   2.338   4.712 -0.7874 -1.8284 -0.1884
    1MOL   H454  454   2.966   1.958   4.763 -1.4142 -0.0252 -0.7783
    1MOL   H455  455   3.037   1.744   4.848 -0.0152 -1.1422  1.4797
    1MOL   H456  456   2.688   1.735   5.110 -1.7988  0.0066 -0.3273
    1MOL   H457  457   2.617   1.967   5.013  0.6959  1.3167  0.5663
    1MOL   C458  458   3.442   1.270   5.013 -0.0776  0.4860  0.5264
    1MOL   C459  459   3.314   1.312   5.077 -0.6479 -0.1485 -0.1016
    1MOL   C460  460   3.251   1.432   5.017  0.2276  0.0646  0.2972
    1MOL   C461  461   3.114   1.469   5.087  0.3555 -0.3013 -0.1977
    1MOL   C462  462   3.354   1.549   5.012  0.3162 -0.1463 -1.1168
    1MOL   C463  463   3.480   1.506   4.950 -0.5177  0.0324  1.4071
    1MOL   C464  464   3.544   1.379   5.020 -0.5856  0.3834  0.2374
    1MOL   C465  465   3.683   1.334   4.969  0.4166 -0.1680 -0.0057
    1MOL   O466  466   3.785   1.422   4.999  0.1230  0.4049 -0.2053
    1MOL   C467  467   3.902   1.408   4.947 -0.3321  0.1297 -0.8717
    1MOL   O468  468   3.928   1.322   4.865 -1.0153  0.3845  0.1479
    1MOL   C469  469   4.001   1.501   5.006 -0.3903 -0.2236  0.9280
    1MOL   C470  470   4.139   1.483   4.986 -0.7476 -0.2719  0.3823
    1MOL   C471  471   4.230   1.561   5.056  0.0913 -0.3615 -0.1144
    1MOL   C472  472   4.187   1.665   5.142  0.3399 -0.2827 -0.3165
    1MOL   C473  473   4.288   1.752   5.215  0.3577  0.4325  0.4015
    1MOL   O474  474   4.412   1.728   5.228  0.2479  0.6095  0.8795
    1MOL   O475  475   4.228   1.858   5.260 -0.0470 -0.3159 -0.4946
    1MOL   C476  476   4.046   1.685   5.154 -0.4524  0.1567 -0.1927
    1MOL   C477  477   3.954   1.608   5.082 -0.2985  0.4677 -0.2964
    1MOL   H478  478   3.433   1.237   4.909  0.2645 -1.6903  1.1643
    1MOL   H479  479   3.490   1.186   5.064  1.7263  0.4213 -1.1730
    1MOL   H480  480   3.331   1.332   5.183 -0.0599 -1.8114  0.1298
    1MOL   H481  481   3.255   1.221   5.070  1.7477 -1.9320  2.0165
    1MOL   H482  482   3.234   1.405   4.913 -0.0298 -0.6790  0.5333
    1MOL   H483  483   3.115   1.483   5.195  1.7876  1.2064 -0.3885
    1MOL   H484  484   3.040   1.393   5.061 -2.1551  1.8917  0.3152
    1MOL   H485  485   3.371   1.583   5.114 -1.3882  2.5234 -1.6649
    1MOL   H486  486   3.315   1.641   4.966 -2.0236  1.0252  2.9498
    1MOL   H487  487   3.451   1.476   4.850  1.7601  0.7697  0.4973
    1MOL   H488  488   3.553   1.587   4.945 -0.5554  0.0721  1.4977
    1MOL   H489  489   3.553   1.397   5.127  0.0007 -1.3403  0.4888
    1MOL   H490  490   3.681   1.321   4.861  1.4900 -0.1959 -0.0301
    1MOL   H491  491   3.707   1.237   5.012  0.4553  0.1962  0.8216
    1MOL   H492  492   4.171   1.406   4.917  1.7056 -0.3761  1.5906
    1MOL   H493  493   4.335   1.555   5.031  0.0012 -2.5957 -0.0111
    1MOL   H494  494   4.010   1.766   5.216 -0.1414  0.9724 -1.0645
    1MOL   H495  495   3.852   1.633   5.106  0.4510  2.8557  0.5713
    1MOL   C496  496   4.442   2.302   5.156  0.2958  0.0335 -0.0957
    1MOL   C497  497   4.405   2.198   5.265  0.5259 -0.5695 -0.0741
    1MOL   C498  498   4.348   2.068   5.206  0.0965 -0.3476 -0.8921
    1MOL   C499  499   4.305   1.969   5.317  0.2391 -0.0166  0.2185
    1MOL   C500  500   4.229   2.105   5.118  0.3882 -0.5230  0.4244
    1MOL   C501  501   4.262   2.209   5.016  0.5610  0.4491  0.1838
    1MOL   C502  502   4.320   2.340   5.072 -0.5379  0.6274  0.0780
    1MOL   C503  503   4.342   2.448   4.969 -0.8316  1.2435  0.1124
    1MOL   O504  504   4.350   2.578   5.031  0.0020 -0.8110 -0.2090
    1MOL   C505  505   4.337   2.693   4.959  0.6051 -0.3193  0.7195
    1MOL   O506  506   4.332   2.705   4.835 -0.1706 -0.1764 -0.0755
    1MOL   C507  507   4.347   2.813   5.043 -0.3045 -0.5016  0.0215
    1MOL   C508  508   4.398   2.797   5.173 -0.2210  0.1049 -0.4704
    1MOL   C509  509   4.416   2.917   5.247  0.0766 -0.3141 -0.5900
    1MOL   C510  510   4.372   3.045   5.196  0.1982 -0.5618  0.6560
    1MOL   C511  511   4.389   3.170   5.270 -0.2783 -0.3157 -0.3340
    1MOL   O512  512   4.361   3.281   5.220  0.2186  0.0468  0.0738
    1MOL   O513  513   4.442   3.153   5.396  0.0974 -0.0294 -0.1184
    1MOL   C514  514   4.313   3.052   5.068 -0.3496  0.1374  0.5369
    1MOL   C515  515   4.302   2.933   4.991 -0.2988  0.0690 -0.2503
    1MOL   H516  516   4.521   2.262   5.092  0.5374  0.4659 -0.0652
    1MOL   H517  517   4.487   2.389   5.203  2.3055 -0.9831 -0.0860
    1MOL   H518  518   4.326   2.226   5.335 -0.1177 -1.9429 -0.2394
    1MOL   H519  519   4.497   2.177   5.319  1.8176  1.4439 -1.4231
    1MOL   H520  520   4.416   2.014   5.140 -1.7735 -2.4508 -1.2057
    1MOL   H521  521   4.249   2.014   5.399 -1.2548 -0.2402 -0.6669
    1MOL   H522  522   4.394   1.929   5.366  0.3942  1.2664  0.9955
    1MOL   H523  523   4.151   2.137   5.187  2.5838 -1.4546  3.4341
    1MOL   H524  524   4.196   2.020   5.058 -2.0417  1.2537 -0.8601
    1MOL   H525  525   4.331   2.162   4.947  1.6998 -0.3445  1.8235
    1MOL   H526  526   4.171   2.237   4.962 -0.0839  0.2396  1.1350
    1MOL   H527  527   4.255   2.389   5.144  0.9615  1.0400  1.1795
    1MOL   H528  528   4.264   2.454   4.892  0.9043  2.3515 -1.5965
    1MOL   H529  529   4.439   2.440   4.921 -1.2002 -1.2755 -0.2758
    1MOL   H530  530   4.432   2.704   5.215  1.5792  1.9844  2.4538
    1MOL   H531  531   4.453   2.914   5.348 -2.9433 -0.9440  0.5762
    1MOL   H532  532   4.274   3.144   5.029  1.8872  1.2074  0.7037
    1MOL   H533  533   4.261   2.944   4.892  0.7930  3.1914 -0.3998
    1MOL   C534  534   4.505   3.262   5.882 -0.0905 -0.1803  0.2001
    1MOL   C535  535   4.483   3.306   5.735 -0.1207 -0.4415  0.2097
    1MOL   C536  536   4.458   3.203   5.622 -0.0686  0.4945 -0.9735
    1MOL   C537  537   4.465   3.263   5.483  0.1161  0.2347 -0.3423
    1MOL   C538  538   4.553   3.087   5.649  0.0909 -0.1163  0.7369
    1MOL   C539  539   4.549   3.035   5.793  0.4676 -0.4315  0.0277
    1MOL   C540  540   4.599   3.148   5.889 -0.3168 -0.6481  0.3214
    1MOL   C541  541   4.608   3.099   6.035  0.0501  0.2525  0.3380
    1MOL   O542  542   4.651   3.209   6.115  1.1546 -0.3413 -0.8286
    1MOL   C543  543   4.651   3.201   6.250  0.8285  0.4185  0.2595
    1MOL   O544  544   4.600   3.103   6.307 -0.5210 -0.5468  0.1034
    1MOL   C545  545   4.717   3.313   6.314 -1.2056 -0.1808 -0.3276
    1MOL   C546  546   4.781   3.293   6.436  0.2508  0.2357 -0.2024
    1MOL   C547  547   4.864   3.388   6.490  0.5060  0.7050  0.3749
    1MOL   C548  548   4.885   3.507   6.419 -0.5679 -0.6162 -1.2216
    1MOL   C549  549   4.974   3.613   6.484  0.5551  0.4066  1.3030
    1MOL   O550  550   4.970   3.626   6.609 -0.4272  0.0199  0.4916
    1MOL   O551  551   5.031   3.695   6.398 -0.0975  0.1822  0.1680
    1MOL   C552  552   4.817   3.532   6.297 -0.5406 -0.4095 -0.7831
    1MOL   C553  553   4.731   3.439   6.244  0.6576 -0.1030  0.3470
    1MOL   H554  554   4.413   3.246   5.938  0.5718 -1.4351  0.9744
    1MOL   H555  555   4.557   3.347   5.927  0.2312 -0.9215  1.2564
    1MOL   H556  556   4.564   3.367   5.696 -0.1110  0.1207  1.1027
    1MOL   H557  557   4.389   3.361   5.732  0.2261  0.1195 -0.2820
    1MOL   H558  558   4.355   3.171   5.635 -0.1406  0.2997 -1.9457
    1MOL   H559  559   4.567   3.299   5.468  0.7235 -1.0242  0.6816
    1MOL   H560  560   4.394   3.344   5.468 -2.0757 -1.7724 -1.2406
    1MOL   H561  561   4.648   3.119   5.605  0.2242 -0.8548  0.4822
    1MOL   H562  562   4.536   3.000   5.585  2.6931  0.4768 -0.8484
    1MOL   H563  563   4.448   2.998   5.810 -0.1335  0.3716 -1.6999
    1MOL   H564  564   4.616   2.949   5.805  0.5763 -0.2879  0.4573
    1MOL   H565  565   4.696   3.174   5.847 -1.0580  2.8750  0.6719
    1MOL   H566  566   4.667   3.008   6.033 -2.3078 -1.3117 -2.7760
    1MOL   H567  567   4.511   3.072   6.077 -0.5975 -1.6746 -2.2618
    1MOL   H568  568   4.768   3.195   6.479  2.1172 -0.4293 -1.0842
    1MOL   H569  569   4.913   3.365   6.583 -0.7287 -0.0361  0.8561
    1MOL   H570  570   4.817   3.629   6.248 -2.3495 -0.2481 -0.4909
    1MOL   H571  571   4.685   3.446   6.147  0.6241 -1.9238  0.2227
    1MOL   C572  572   5.460   3.736   6.488 -0.8355 -0.0681  0.0206
    1MOL   C573  573   5.308   3.745   6.516  0.2974  0.2362 -0.0411
    1MOL   C574  574   5.230   3.814   6.407 -0.2399  0.2230 -0.0960
    1MOL   C575  575   5.078   3.817   6.436 -0.5059  0.0094 -0.0468
    1MOL   C576  576   5.284   3.955   6.371  0.3523  0.3295 -0.3108
    1MOL   C577  577   5.431   3.944   6.336  0.0176 -0.0245 -0.3503
    1MOL   C578  578   5.519   3.875   6.453  0.0165  0.5470  0.5629
    1MOL   C579  579   5.665   3.844   6.402  0.4365  0.6035 -0.1157
    1MOL   O580  580   5.727   3.968   6.360 -0.6463 -0.2416  0.8230
    1MOL   C581  581   5.808   3.967   6.252 -0.4250 -0.2063  0.2261
    1MOL   O582  582   5.867   3.868   6.199 -0.4392  0.5069 -0.6021
    1MOL   C583  583   5.831   4.103   6.212  0.1625  0.2555  0.7397
    1MOL   C584  584   5.740   4.205   6.236  0.1895  0.2337  0.1349
    1MOL   C585  585   5.758   4.337   6.194  0.7092  0.4690 -0.1258
    1MOL   C586  586   5.881   4.371   6.137  0.3278 -0.6664 -0.7624
    1MOL   C587  587   5.914   4.509   6.091 -0.1208 -0.1270  0.0876
    1MOL   O588  588   6.026   4.553   6.078  0.4608  0.0792 -0.3702
    1MOL   O589  589   5.804   4.587   6.079  0.2533 -0.3786  0.0979
    1MOL   C590  590   5.984   4.272   6.119 -0.7689  0.2908 -0.0269
    1MOL   C591  591   5.952   4.135   6.145 -0.4139  0.6433 -0.1278
    1MOL   H592  592   5.461   3.674   6.398  0.0859  1.7637 -1.2854
    1MOL   H593  593   5.519   3.691   6.567  1.1350 -0.7691 -1.8027
    1MOL   H594  594   5.297   3.789   6.616  1.5699 -1.0093  0.6492
    1MOL   H595  595   5.277   3.641   6.511  0.5920  0.0788  1.2037
    1MOL   H596  596   5.253   3.743   6.327  0.7408 -1.1654  1.3705
    1MOL   H597  597   5.014   3.890   6.387 -0.4786  0.1183  0.0757
    1MOL   H598  598   5.064   3.837   6.543  3.1368  0.8062  0.3491
    1MOL   H599  599   5.274   4.029   6.450 -0.8668 -0.4626  0.2828
    1MOL   H600  600   5.228   4.003   6.291 -1.5008  1.3662  1.5641
    1MOL   H601  601   5.431   3.879   6.249  0.4900 -0.3160 -0.1372
    1MOL   H602  602   5.467   4.044   6.311 -1.6768  0.2141 -1.9585
    1MOL   H603  603   5.524   3.948   6.533  1.9094  3.5343 -2.1592
    1MOL   H604  604   5.669   3.767   6.325 -1.7796 -0.4989  0.8326
    1MOL   H605  605   5.726   3.799   6.481  0.9801  2.4060  0.5170
    1MOL   H606  606   5.642   4.178   6.273  0.1106  0.9634  0.4798
    1MOL   H607  607   5.677   4.408   6.204  0.4730  0.3713 -1.3049
    1MOL   H608  608   6.079   4.291   6.072  0.4970 -2.4149  1.3828
    1MOL   H609  609   6.029   4.061   6.137  0.3915  1.7371 -3.2594
    1MOL   C610  610   5.500   4.789   5.835  0.1531 -0.4924 -0.0122
    1MOL   C611  611   5.641   4.724   5.875 -0.3929  0.0639  0.0332
    1MOL   C612  612   5.691   4.782   6.012  0.5268  0.2698 -0.1927
    1MOL   C613  613   5.819   4.721   6.060 -0.0195 -0.4038  0.4766
    1MOL   C614  614   5.717   4.933   5.994 -0.1562  0.0269  0.2524
    1MOL   C615  615   5.591   5.003   5.939 -0.2871  0.0576  0.3465
    1MOL   C616  616   5.532   4.940   5.806  0.5983  0.0054  0.7129
    1MOL   C617  617   5.405   5.005   5.748 -0.0055 -0.3415  0.3880
    1MOL   O618  618   5.432   5.138   5.705  0.5060 -1.1632 -0.4155
    1MOL   C619  619   5.345   5.234   5.731 -0.1513 -0.3278 -0.0674
    1MOL   O620  620   5.247   5.216   5.801  0.2935  0.1615 -0.0902
    1MOL   C621  621   5.375   5.359   5.663  0.3719 -0.4723  0.0377
    1MOL   C622  622   5.274   5.449   5.619 -0.1130 -0.3596  0.0128
    1MOL   C623  623   5.306   5.570   5.555 -0.5765  0.4007 -0.2496
    1MOL   C624  624   5.442   5.601   5.533 -0.2972  0.2645 -0.0477
    1MOL   C625  625   5.478   5.733   5.465  0.0850  0.3311  0.7435
    1MOL   O626  626   5.389   5.812   5.422 -0.2694  0.5604  0.5508
    1MOL   O627  627   5.608   5.751   5.456 -0.0453 -0.1454 -0.0644
    1MOL   C628  628   5.545   5.505   5.561 -0.5556  0.4420 -0.5562
    1MOL   C629  629   5.508   5.395   5.632  0.2495  0.5547 -0.2823
    1MOL   H630  630   5.452   4.788   5.933 -1.6436 -4.0102 -0.8434
    1MOL   H631  631   5.436   4.729   5.771  1.3184 -0.3662 -1.3075
    1MOL   H632  632   5.720   4.735   5.800 -0.2998  0.0284  0.1254
    1MOL   H633  633   5.622   4.617   5.882  0.5966 -0.2411 -1.5951
    1MOL   H634  634   5.616   4.762   6.088 -0.3145  1.7802 -0.6047
    1MOL   H635  635   5.845   4.755   6.160  0.1883 -1.2366  0.7036
    1MOL   H636  636   5.904   4.751   5.998 -1.6291 -0.4352 -1.8342
    1MOL   H637  637   5.797   4.940   5.920 -1.7729 -2.7110 -1.8367
    1MOL   H638  638   5.746   4.972   6.092 -1.7399  0.9189  0.3789
    1MOL   H639  639   5.515   4.990   6.016 -0.5562 -0.8232 -0.0505
    1MOL   H640  640   5.619   5.108   5.934 -0.7772  0.1404 -0.8663
    1MOL   H641  641   5.611   4.955   5.733 -0.8013  0.6542 -0.6951
    1MOL   H642  642   5.326   4.991   5.822 -0.3526  1.0497  0.2956
    1MOL   H643  643   5.374   4.941   5.666  1.3434 -0.2050 -0.2403
    1MOL   H644  644   5.173   5.420   5.642 -0.5796  1.2250  0.0562
    1MOL   H645  645   5.232   5.645   5.532 -0.5749  0.2722 -0.6857
    1MOL   H646  646   5.645   5.521   5.526  1.2236 -0.0146  3.9959
    1MOL   H647  647   5.589   5.327   5.656  0.2621  0.5916 -0.2192
    1MOL   C648  648   6.040   5.877   5.535  0.6652  0.4086 -0.5710
    1MOL   C649  649   5.890   5.895   5.542  1.0239 -0.2215  0.4818
    1MOL   C650  650   5.822   5.851   5.412  0.0933  0.3219 -0.2053
    1MOL   C651  651   5.668   5.872   5.408  0.1621 -0.4212  0.3198
    1MOL   C652  652   5.888   5.932   5.300  0.3375  0.4222 -0.4089
    1MOL   C653  653   6.039   5.919   5.302 -0.2221  0.9422 -0.1155
    1MOL   C654  654   6.106   5.964   5.427 -0.5438  0.5793  0.6218
    1MOL   C655  655   6.257   5.957   5.404 -0.5656  0.3734 -0.2361
    1MOL   O656  656   6.334   5.998   5.516  0.0138 -0.4389  0.2263
    1MOL   C657  657   6.361   5.919   5.619 -0.4968 -0.3222  0.2575
    1MOL   O658  658   6.327   5.801   5.616 -0.3055 -0.4103  0.1315
    1MOL   C659  659   6.434   5.994   5.727 -0.0006 -0.5127 -0.4552
    1MOL   C660  660   6.486   6.126   5.718  0.5853 -0.2155 -0.9560
    1MOL   C661  661   6.568   6.182   5.825  0.1281  0.1627  0.3869
    1MOL   C662  662   6.609   6.102   5.930 -0.3552 -0.3662 -1.1079
    1MOL   C663  663   6.713   6.146   6.026 -0.4509  0.1581 -0.4412
    1MOL   O664  664   6.747   6.082   6.129  0.3880 -0.1862  0.5748
    1MOL   O665  665   6.770   6.258   5.994 -0.2131 -0.2016 -0.1793
    1MOL   C666  666   6.551   5.975   5.945  0.2435  0.7242 -0.2738
    1MOL   C667  667   6.468   5.923   5.845  0.9537 -0.7808  0.0823
    1MOL   H668  668   6.063   5.772   5.522  1.6301  0.7396 -1.5984
    1MOL   H669  669   6.081   5.908   5.631 -2.1973  2.1654  0.1790
    1MOL   H670  670   5.880   5.998   5.573  0.9032 -0.4303  1.1328
    1MOL   H671  671   5.840   5.843   5.623 -2.1021 -0.2659 -1.3984
    1MOL   H672  672   5.847   5.747   5.390  1.7101  0.5198  0.6300
    1MOL   H673  673   5.643   5.891   5.303  1.5859  2.5203  0.4478
    1MOL   H674  674   5.626   5.957   5.462  0.7315  0.0970 -0.0571
    1MOL   H675  675   5.861   6.035   5.322 -0.5122  0.0194  0.4899
    1MOL   H676  676   5.860   5.893   5.202 -0.8176 -1.6614  0.7132
    1MOL   H677  677   6.068   5.816   5.278  0.4466  0.4897  2.4789
    1MOL   H678  678   6.077   5.975   5.217 -0.2571  1.2719  0.0868
    1MOL   H679  679   6.080   6.067   5.454 -0.2105  0.5169  1.1844
    1MOL   H680  680   6.279   6.011   5.313  0.5046 -0.3395 -0.4099
    1MOL   H681  681   6.276   5.851   5.387  0.9704  0.5932  0.0875
    1MOL   H682  682   6.463   6.185   5.630 -0.3870 -1.6995 -1.7308
    1MOL   H683  683   6.597   6.285   5.811  0.3145 -0.1579 -1.7212
    1MOL   H684  684   6.577   5.912   6.028  1.0530  2.6956  1.0073
    1MOL   H685  685   6.445   5.817   5.848 -1.7457 -0.2021  1.0502
    1MOL   C686  686   6.758   6.677   6.077  0.3922  1.1900 -0.1914
    1MOL   C687  687   6.741   6.524   6.100 -0.0750  0.0178 -0.3757
    1MOL   C688  688   6.876   6.457   6.063 -0.3094  0.7010 -0.5344
    1MOL   C689  689   6.874   6.306   6.075  0.4224 -0.1797 -0.0946
    1MOL   C690  690   6.940   6.501   5.930  0.4133  0.5218  0.4300
    1MOL   C691  691   6.958   6.650   5.918  0.4424 -0.2333 -0.4747
    1MOL   C692  692   6.817   6.716   5.938  0.0423 -0.7069 -0.1286
    1MOL   C693  693   6.837   6.865   5.926  0.5425  0.5208 -0.3350
    1MOL   O694  694   6.846   6.903   5.793  0.4095 -0.0587 -0.5606
    1MOL   C695  695   6.924   7.003   5.759  0.6429  0.1841  0.9306
    1MOL   O696  696   6.984   7.069   5.849  0.4882  0.1500 -0.5737
    1MOL   C697  697   6.937   7.029   5.611  0.1637  0.6269  0.0487
    1MOL   C698  698   6.861   6.947   5.520 -1.0090 -0.0905  0.6488
    1MOL   C699  699   6.855   6.972   5.383  0.3586 -0.6868  0.0236
    1MOL   C700  700   6.922   7.087   5.338 -0.1884 -0.0749 -0.3962
    1MOL   C701  701   6.943   7.113   5.187  0.1189 -0.0427  0.1925
    1MOL   O702  702   7.017   7.201   5.138  0.0641 -0.4226  0.2140
    1MOL   O703  703   6.880   7.023   5.116  0.0163  0.4158 -0.5771
    1MOL   C704  704   6.988   7.173   5.424 -0.6628 -0.0204  0.6363
    1MOL   C705  705   6.990   7.146   5.561  0.2094 -0.1875 -0.2454
    1MOL   H706  706   6.816   6.721   6.159 -0.6486  0.6172  0.8791
    1MOL   H707  707   6.662   6.729   6.081 -0.0955  0.2266  1.1410
    1MOL   H708  708   6.662   6.476   6.043 -1.1323  0.5502  0.6222
    1MOL   H709  709   6.724   6.501   6.205  2.3024 -0.0861  0.0094
    1MOL   H710  710   6.955   6.487   6.132 -0.1000  0.0429 -0.4877
    1MOL   H711  711   6.866   6.273   6.178 -3.2097 -0.9155 -0.5406
    1MOL   H712  712   6.966   6.264   6.035 -0.3408  0.8341 -3.0563
    1MOL   H713  713   6.881   6.471   5.844 -1.0138 -3.6147  2.7150
    1MOL   H714  714   7.036   6.455   5.908 -0.0957 -0.5889  0.5185
    1MOL   H715  715   7.036   6.690   5.982 -0.6628 -1.0436  1.4588
    1MOL   H716  716   6.999   6.677   5.821  2.4324 -0.5775  0.2523
    1MOL   H717  717   6.747   6.680   5.862 -0.2855  1.0721 -0.6846
    1MOL   H718  718   6.925   6.885   5.987  2.0410  1.1822 -2.6391
    1MOL   H719  719   6.748   6.916   5.963  0.7694  0.7191 -0.0600
    1MOL   H720  720   6.812   6.856   5.550  0.7667 -0.6742  1.8539
    1MOL   H721  721   6.801   6.906   5.316  0.5828 -0.3215 -0.5198
    1MOL   H722  722   7.030   7.267   5.392 -0.5483 -0.5105 -0.6471
    1MOL   H723  723   7.045   7.209   5.629 -2.0909  2.4882 -0.7846
    1MOL   C724  724   6.942   6.665   4.869 -0.4801  0.6486 -0.1594
    1MOL   C725  725   6.961   6.795   4.945 -0.1086  0.1337 -0.6903
    1MOL   C726  726   6.860   6.906   4.904  0.0490 -0.6872  0.3928
    1MOL   C727  727   6.889   7.038   4.973  0.0327  0.2891  0.8265
    1MOL   C728  728   6.872   6.924   4.748 -0.5127 -0.2978 -0.1390
    1MOL   C729  729   6.839   6.787   4.677 -0.5877  0.2690  0.1813
    1MOL   C730  730   6.948   6.682   4.714 -0.2976 -0.2492  0.6043
    1MOL   C731  731   6.897   6.549   4.648  0.3628 -0.0321 -0.6006
    1MOL   O732  732   6.877   6.562   4.509 -0.4394  0.8698  1.0655
    1MOL   C733  733   6.825   6.469   4.432  0.0944  0.0224  0.1329
    1MOL   O734  734   6.793   6.354   4.473  0.0910  0.4078 -0.1030
    1MOL   C735  735   6.806   6.507   4.293  0.0733 -0.1446 -0.1813
    1MOL   C736  736   6.853   6.633   4.241  0.5397 -0.4584  0.1704
    1MOL   C737  737   6.839   6.666   4.105  0.1705  0.7624  0.4690
    1MOL   C738  738   6.788   6.571   4.010 -0.4017  0.1520 -1.0649
    1MOL   C739  739   6.754   6.604   3.870  0.2066 -0.5774  0.3091
    1MOL   O740  740   6.694   6.525   3.797 -0.1383 -0.1120 -0.1994
    1MOL   O741  741   6.777   6.731   3.831  0.4723 -0.0410  0.1205
    1MOL   C742  742   6.747   6.449   4.064 -0.1960  0.3703 -0.1892
    1MOL   C743  743   6.750   6.421   4.199  0.1370 -0.1654 -0.5152
    1MOL   H744  744   6.848   6.630   4.913  0.4346 -1.7924 -0.0637
    1MOL   H745  745   7.014   6.587   4.894  1.4024  2.5863  0.5655
    1MOL   H746  746   7.064   6.828   4.929 -0.4372  1.8266  0.5565
    1MOL   H747  747   6.957   6.775   5.051 -0.8630  2.7744 -0.1752
    1MOL   H748  748   6.764   6.858   4.924 -0.5225 -1.1228 -3.0398
    1MOL   H749  749   6.814   7.113   4.946 -0.9862  0.1789  3.1773
    1MOL   H750  750   6.984   7.072   4.934 -0.3524  0.8025  0.3269
    1MOL   H751  751   6.968   6.961   4.712 -0.6172 -1.5565 -1.7884
    1MOL   H752  752   6.806   7.002   4.711 -1.5722 -1.3121 -0.4327
    1MOL   H753  753   6.745   6.741   4.705  0.1557 -1.1270  0.4086
    1MOL   H754  754   6.828   6.795   4.569  0.7017 -1.3632 -0.0902
    1MOL   H755  755   7.052   6.708   4.693 -0.6918  0.7494 -0.1545
    1MOL   H756  756   6.806   6.517   4.698  1.0582 -3.3649 -1.3078
    1MOL   H757  757   6.971   6.468   4.656  1.0650  0.7888  1.8792
    1MOL   H758  758   6.899   6.704   4.308  2.2913 -1.9011  0.5287
    1MOL   H759  759   6.871   6.759   4.060  3.2355 -0.9673 -1.1339
    1MOL   H760  760   6.715   6.376   3.992 -2.7926 -0.6402  1.8942
    1MOL   H761  761   6.718   6.323   4.233  1.4769  0.0379  1.4087
    1MOL   H762  762   6.731   6.761   3.755  2.6933  0.9188 -0.8976
    2MOL     C1  763   7.443   6.300   1.252  0.1543  0.1869  0.4287
    2MOL     C2  764   7.552   6.275   1.359  0.5073  0.2893  0.7013
    2MOL     C3  765   7.628   6.406   1.403 -0.1262 -0.0850  0.4717
    2MOL     C4  766   7.740   6.381   1.501  0.5151 -0.8005  0.3258
    2MOL     C5  767   7.694   6.469   1.280 -0.1480  0.6052 -0.9628
    2MOL     C6  768   7.583   6.505   1.180 -0.1784 -0.0574  0.7184
    2MOL     C7  769   7.502   6.390   1.133  0.2901  0.4054 -0.4315
    2MOL     C8  770   7.387   6.442   1.037 -0.7951 -0.2788  0.2684
    2MOL     O9  771   7.297   6.340   0.999 -0.3224  0.2213 -0.4557
    2MOL    C10  772   7.328   6.242   0.909 -0.7665  0.3914 -0.2026
    2MOL    O11  773   7.438   6.235   0.852 -0.1576  0.6887 -0.4316
    2MOL    C12  774   7.215   6.144   0.890  0.1453 -0.0589  0.5897
    2MOL    C13  775   7.088   6.174   0.943  0.3119 -0.4377 -0.6304
    2MOL    C14  776   6.985   6.083   0.908  0.3661 -0.2595 -0.1759
    2MOL    C15  777   6.994   5.975   0.813 -0.6987 -0.2147 -0.2636
    2MOL    C16  778   6.874   5.901   0.754  0.1424 -0.6254 -0.4833
    2MOL    O17  779   6.881   5.787   0.706 -0.3464  0.2332 -0.5432
    2MOL    O18  780   6.758   5.964   0.777 -0.3236 -0.3568 -0.3694
    2MOL    C19  781   7.128   5.949   0.769  0.5213  1.5993 -0.4249
    2MOL    C20  782   7.233   6.032   0.809  0.4068 -0.4239 -0.3541
    2MOL    H21  783   7.355   6.348   1.293 -0.5819  0.0498 -0.9429
    2MOL    H22  784   7.412   6.202   1.215 -2.1280  1.4574 -1.1970
    2MOL    H23  785   7.619   6.196   1.325 -1.3238 -0.7023 -0.7100
    2MOL    H24  786   7.501   6.238   1.447  0.8379 -2.4137 -0.1947
    2MOL    H25  787   7.561   6.481   1.445 -1.6509 -1.6110  0.8050
    2MOL    H26  788   7.710   6.324   1.589 -1.2369 -1.8185 -0.9080
    2MOL    H27  789   7.782   6.476   1.534 -0.3039  0.0288 -0.9554
    2MOL    H28  790   7.768   6.411   1.225  2.3377  1.2689  1.5565
    2MOL    H29  791   7.751   6.551   1.324 -0.1666 -0.8690  1.9612
    2MOL    H30  792   7.520   6.578   1.230 -0.1027  0.5993 -0.1341
    2MOL    H31  793   7.629   6.549   1.092 -1.1364  0.4140  0.4499
    2MOL    H32  794   7.570   6.331   1.072  0.3738 -1.0618  1.0499
    2MOL    H33  795   7.430   6.472   0.941  0.3512 -1.0019  0.5469
    2MOL    H34  796   7.336   6.531   1.074 -0.6360 -0.5017  1.0301
    2MOL    H35  797   7.067   6.262   1.001  2.7989  0.0876 -0.4747
    2MOL    H36  798   6.890   6.096   0.957  0.0865 -1.4827 -0.3682
    2MOL    H37  799   7.146   5.863   0.706  0.4387 -0.1586  1.8633
    2MOL    H38  800   7.336   6.009   0.788  0.8336  1.1592 -0.0590
    2MOL    H39  801   7.819   6.328   1.448  1.1046  0.8528 -0.4985
    2MOL    C40  802   6.463   5.880   1.099 -0.5198 -0.3682  0.4510
    2MOL    C41  803   6.519   5.941   0.968 -0.2032 -0.4928 -0.2263
    2MOL    C42  804   6.543   5.845   0.848 -0.2846 -0.4227 -0.4862
    2MOL    C43  805   6.629   5.912   0.734 -0.1748  0.4874 -0.0870
    2MOL    C44  806   6.621   5.723   0.897  0.0780 -0.7745  0.2475
    2MOL    C45  807   6.551   5.658   1.015  0.0326  0.6726  0.0609
    2MOL    C46  808   6.543   5.758   1.138  0.6811  0.5659  0.2356
    2MOL    C47  809   6.494   5.685   1.265  0.9019 -0.5400 -0.5890
    2MOL    O48  810   6.364   5.631   1.235 -0.4210  0.9027 -0.0500
    2MOL    C49  811   6.332   5.499   1.274 -0.5606  0.6156  0.8382
    2MOL    O50  812   6.408   5.423   1.341 -0.0986  0.6682  0.0097
    2MOL    C51  813   6.190   5.463   1.253 -0.2941  0.3263  0.2866
    2MOL    C52  814   6.104   5.524   1.156  0.9423 -0.3098  0.0273
    2MOL    C53  815   5.968   5.493   1.142 -0.0879  0.7221  0.3289
    2MOL    C54  816   5.915   5.391   1.225 -0.6614 -0.3113  0.1306
    2MOL    C55  817   5.775   5.362   1.215  0.3764 -0.2261  0.5427
    2MOL    O56  818   5.727   5.247   1.218 -0.2990  0.1566 -0.3595
    2MOL    O57  819   5.702   5.466   1.202 -0.0178 -0.5901  0.3536
    2MOL    C58  820   5.996   5.330   1.326  0.1978  0.0962 -0.1895
    2MOL    C59  821   6.129   5.370   1.337  0.1298 -0.3969 -1.0383
    2MOL    H60  822   6.361   5.848   1.077  0.5103 -2.2140 -1.8555
    2MOL    H61  823   6.471   5.949   1.183 -1.8711 -0.1664  0.4374
    2MOL    H62  824   6.622   5.970   0.987  0.1742 -1.4546 -0.7812
    2MOL    H63  825   6.454   6.024   0.940 -0.2414 -0.0903  1.0269
    2MOL    H64  826   6.449   5.803   0.814  0.1086 -0.9958 -0.8747
    2MOL    H65  827   6.575   5.993   0.685  0.4591  1.5274  0.8965
    2MOL    H66  828   6.624   5.835   0.657 -2.5027  0.2966  0.2143
    2MOL    H67  829   6.721   5.750   0.932  0.0234  0.9635 -0.9125
    2MOL    H68  830   6.627   5.644   0.822  0.0691  0.3336 -0.9422
    2MOL    H69  831   6.448   5.627   0.997 -0.2660  2.3818 -1.2325
    2MOL    H70  832   6.614   5.573   1.043 -0.2574  0.6788  0.7420
    2MOL    H71  833   6.641   5.802   1.158 -0.8435  3.7232  1.1795
    2MOL    H72  834   6.491   5.750   1.352  2.1429 -1.7357  0.3633
    2MOL    H73  835   6.562   5.605   1.295  0.9540 -0.0191  0.7079
    2MOL    H74  836   6.148   5.583   1.076 -0.0942  0.1194 -0.2290
    2MOL    H75  837   5.905   5.531   1.063 -0.4912 -1.3440 -0.3734
    2MOL    H76  838   5.957   5.248   1.383  2.0016 -0.2424  0.6087
    2MOL    H77  839   6.192   5.319   1.409  0.2342  1.6898  0.4112
    2MOL    C78  840   5.537   5.640   1.569 -0.3502 -1.0657  0.0575
    2MOL    C79  841   5.603   5.561   1.453  0.5426  0.3298  0.0025
    2MOL    C80  842   5.511   5.569   1.321 -0.0225 -0.1018  0.7030
    2MOL    C81  843   5.562   5.465   1.221 -0.1376 -0.1673  0.6371
    2MOL    C82  844   5.357   5.562   1.335  0.5205  0.1868 -0.0684
    2MOL    C83  845   5.305   5.623   1.469 -0.0859  0.0732 -0.2810
    2MOL    C84  846   5.392   5.589   1.586  0.2397  0.0378  0.3000
    2MOL    C85  847   5.319   5.625   1.722 -0.2876  0.2457 -0.3010
    2MOL    O86  848   5.376   5.565   1.839  0.3551  0.2625 -0.1071
    2MOL    C87  849   5.312   5.567   1.960 -0.6350  0.7637  0.1874
    2MOL    O88  850   5.200   5.604   1.981  0.2908 -0.2369  0.5023
    2MOL    C89  851   5.390   5.491   2.059  0.2898 -0.6190 -0.3429
    2MOL    C90  852   5.530   5.460   2.035  0.5282 -0.0523  0.2536
    2MOL    C91  853   5.613   5.397   2.131 -0.5069 -0.0178  0.1693
    2MOL    C92  854   5.550   5.339   2.243 -0.6709  0.1060  0.9450
    2MOL    C93  855   5.628   5.259   2.330 -0.6855 -0.2950  0.4715
    2MOL    O94  856   5.754   5.266   2.337 -0.3142  0.2543 -0.5490
    2MOL    O95  857   5.561   5.185   2.415  0.1061 -0.1291  0.0087
    2MOL    C96  858   5.411   5.366   2.265 -0.4190  0.6286 -0.4343
    2MOL    C97  859   5.328   5.438   2.178 -0.1108  0.2779  0.1704
    2MOL    H98  860   5.527   5.746   1.542  0.8422 -0.1578  2.9897
    2MOL    H99  861   5.591   5.619   1.661  3.0280  1.9682 -1.1432
    2MOL   H100  862   5.614   5.458   1.487 -2.5324 -0.0485 -0.0011
    2MOL   H101  863   5.701   5.607   1.446 -0.1450  1.9374  0.7012
    2MOL   H102  864   5.525   5.673   1.291 -0.0786 -0.0560  0.8367
    2MOL   H103  865   5.508   5.485   1.128 -3.3308 -1.0956  2.2246
    2MOL   H104  866   5.522   5.368   1.251 -2.4779  0.4440 -0.3962
    2MOL   H105  867   5.335   5.456   1.332 -0.4705  0.2357  3.3898
    2MOL   H106  868   5.307   5.613   1.253  0.3106  1.1887  0.6819
    2MOL   H107  869   5.270   5.726   1.475  0.3974  0.2637 -0.7118
    2MOL   H108  870   5.212   5.570   1.490 -0.8909  1.3551 -0.5545
    2MOL   H109  871   5.400   5.480   1.588  0.1284  0.0058 -0.8651
    2MOL   H110  872   5.225   5.571   1.710 -0.9038  0.8650  1.6264
    2MOL   H111  873   5.296   5.730   1.740  1.7308  0.5250  0.8187
    2MOL   H112  874   5.573   5.491   1.940  2.7970  0.7926  1.5209
    2MOL   H113  875   5.715   5.373   2.108  0.1666  1.5145  1.4546
    2MOL   H114  876   5.362   5.334   2.356 -0.4323  0.8868 -0.3522
    2MOL   H115  877   5.221   5.448   2.193 -0.1473 -0.2060  0.2483
    2MOL   C116  878   5.661   4.698   2.409  0.2840  0.3931  0.1725
    2MOL   C117  879   5.644   4.831   2.493  0.3879 -0.4655 -0.8091
    2MOL   C118  880   5.634   4.947   2.392  0.9241 -0.6054  0.4414
    2MOL   C119  881   5.617   5.080   2.489  0.4974  0.2515  1.1139
    2MOL   C120  882   5.761   4.950   2.303 -0.1759  0.2448 -0.6084
    2MOL   C121  883   5.787   4.811   2.233  0.4739  0.0742  0.6099
    2MOL   C122  884   5.790   4.690   2.329  0.4479 -0.5689 -0.4389
    2MOL   C123  885   5.808   4.559   2.248  0.0419  0.2732 -0.3881
    2MOL   O124  886   5.812   4.438   2.333  0.5786  0.0780 -0.1754
    2MOL   C125  887   5.714   4.345   2.341 -0.3929 -0.4085  0.2467
    2MOL   O126  888   5.611   4.353   2.284  0.1456  0.4992 -1.0265
    2MOL   C127  889   5.750   4.230   2.434 -0.6483 -0.4121  0.3964
    2MOL   C128  890   5.878   4.211   2.487  0.0797  0.6600  0.5862
    2MOL   C129  891   5.907   4.096   2.559  0.0172 -0.1273 -0.0443
    2MOL   C130  892   5.813   3.992   2.577 -0.7149  0.5252  0.4314
    2MOL   C131  893   5.844   3.864   2.641  0.3949 -0.2046  0.1032
    2MOL   O132  894   5.760   3.797   2.704  0.1272 -0.1232 -0.2666
    2MOL   O133  895   5.969   3.826   2.625  0.4434 -0.0627  0.5536
    2MOL   C134  896   5.677   4.020   2.541 -0.6708 -0.2174 -0.8375
    2MOL   C135  897   5.652   4.136   2.465  0.9723 -0.1213 -0.4398
    2MOL   H136  898   5.572   4.664   2.355  0.3205  0.3736  0.1247
    2MOL   H137  899   5.681   4.621   2.483  0.9824 -1.6449 -2.0821
    2MOL   H138  900   5.732   4.845   2.554 -2.5821 -0.9392  3.8666
    2MOL   H139  901   5.561   4.821   2.563  1.7215 -0.8144  0.7469
    2MOL   H140  902   5.546   4.942   2.329  0.4917  0.3749  0.9527
    2MOL   H141  903   5.716   5.110   2.524  2.2389 -0.4755 -2.8700
    2MOL   H142  904   5.554   5.060   2.576 -0.0778  1.3999  0.9818
    2MOL   H143  905   5.849   4.983   2.359 -0.3143  0.2222 -0.3726
    2MOL   H144  906   5.741   5.029   2.231 -1.3515  1.9921  1.5670
    2MOL   H145  907   5.708   4.792   2.160  0.8532 -2.9329  0.9479
    2MOL   H146  908   5.880   4.813   2.176  0.2778  0.6374  0.3042
    2MOL   H147  909   5.878   4.681   2.394  2.8760  0.1416 -3.5156
    2MOL   H148  910   5.911   4.556   2.212  0.6295  0.1625  1.2612
    2MOL   H149  911   5.743   4.544   2.162  0.8010  1.2673 -1.1495
    2MOL   H150  912   5.956   4.282   2.463 -0.9813  1.7003  0.1392
    2MOL   H151  913   6.007   4.083   2.598  0.6962  2.2231 -0.9539
    2MOL   H152  914   5.599   3.946   2.555 -0.5559 -0.4425 -1.3649
    2MOL   H153  915   5.554   4.147   2.420  1.6361  0.1554 -1.8353
    2MOL   C154  916   6.331   3.830   2.881 -0.5324  0.5775 -0.3990
    2MOL   C155  917   6.225   3.824   2.769  0.0679  0.4529 -0.2695
    2MOL   C156  918   6.108   3.735   2.801 -1.0152  0.3529  0.0013
    2MOL   C157  919   6.010   3.702   2.678 -0.1761 -0.4030 -0.0678
    2MOL   C158  920   6.151   3.602   2.855 -0.1643 -0.1265  0.5198
    2MOL   C159  921   6.242   3.611   2.976 -0.2337 -0.4727  0.1397
    2MOL   C160  922   6.373   3.689   2.936  0.3309 -0.3531 -0.2052
    2MOL   C161  923   6.472   3.705   3.046  0.2216  0.7932 -0.2232
    2MOL   O162  924   6.592   3.754   2.996 -0.3758 -0.1363 -0.1707
    2MOL   C163  925   6.705   3.676   3.000  0.0800  0.0970 -0.2452
    2MOL   O164  926   6.707   3.555   3.040 -0.0345 -0.3710 -0.4483
    2MOL   C165  927   6.830   3.749   2.957 -0.0273  0.1649  0.9506
    2MOL   C166  928   6.947   3.680   2.988  0.0283  0.4792  0.3883
    2MOL   C167  929   7.072   3.737   2.939 -0.7904 -0.2556  0.2243
    2MOL   C168  930   7.075   3.858   2.871 -0.0346 -0.3306 -0.0967
    2MOL   C169  931   7.197   3.929   2.830 -0.3283 -0.5514 -0.2796
    2MOL   O170  932   7.200   4.014   2.745 -0.4971 -0.5389  0.3159
    2MOL   O171  933   7.301   3.893   2.900 -0.0597 -0.4597  1.0438
    2MOL   C172  934   6.951   3.928   2.849 -0.5531 -0.2309 -0.0558
    2MOL   C173  935   6.827   3.873   2.895 -0.1217 -0.4913 -0.5579
    2MOL   H174  936   6.288   3.886   2.964 -1.1820 -1.1925  0.4767
    2MOL   H175  937   6.421   3.876   2.841 -0.0052 -1.1327 -1.1913
    2MOL   H176  938   6.283   3.787   2.684  1.4051 -0.2162  0.9106
    2MOL   H177  939   6.182   3.920   2.741 -1.9246 -0.2451  0.3570
    2MOL   H178  940   6.055   3.776   2.886 -0.0732  0.1078  0.7103
    2MOL   H179  941   5.933   3.632   2.708 -0.0480 -0.7502 -0.5401
    2MOL   H180  942   6.065   3.663   2.591  1.1538  1.6144 -0.1785
    2MOL   H181  943   6.195   3.546   2.773  2.6164 -0.3213  2.0949
    2MOL   H182  944   6.066   3.539   2.886 -0.5582  1.8194  3.5846
    2MOL   H183  945   6.192   3.659   3.061 -0.1589 -1.8559  0.9806
    2MOL   H184  946   6.271   3.516   3.022  2.7552  0.4869  0.3122
    2MOL   H185  947   6.413   3.637   2.849  1.0255  1.7567 -1.1673
    2MOL   H186  948   6.492   3.608   3.092  0.2453  1.1927  0.6218
    2MOL   H187  949   6.428   3.765   3.126  0.6346 -0.3245  0.8640
    2MOL   H188  950   6.943   3.585   3.038 -0.1578 -0.4651 -1.3638
    2MOL   H189  951   7.165   3.681   2.939 -0.0283  0.9748 -0.8065
    2MOL   H190  952   6.955   4.027   2.805  1.0338  0.2628  1.1415
    2MOL   H191  953   6.731   3.917   2.874 -0.3848 -0.7749  0.0220
    2MOL   C192  954   7.525   4.285   3.076  0.2698  0.3485 -0.6304
    2MOL   C193  955   7.520   4.185   2.958  0.3732  0.2035 -0.2503
    2MOL   C194  956   7.439   4.060   2.997  0.7783  0.5571 -0.2712
    2MOL   C195  957   7.425   3.959   2.878 -0.3002 -0.5784 -0.2381
    2MOL   C196  958   7.502   3.991   3.125  0.2838  0.0361  0.0440
    2MOL   C197  959   7.514   4.080   3.245  0.0490  0.2529 -0.2702
    2MOL   C198  960   7.582   4.211   3.210 -0.0766  0.1353  0.9673
    2MOL   C199  961   7.584   4.300   3.336  0.4349  0.1229  0.3497
    2MOL   O200  962   7.662   4.253   3.445  0.3667  0.5245 -0.1362
    2MOL   C201  963   7.795   4.248   3.436 -0.9456  0.5452 -0.1611
    2MOL   O202  964   7.863   4.278   3.337  0.6291  0.0993 -0.3195
    2MOL   C203  965   7.853   4.199   3.562 -0.1498 -0.7168 -0.6431
    2MOL   C204  966   7.992   4.193   3.576  0.7369 -0.2880 -0.0276
    2MOL   C205  967   0.025   4.137   3.687  0.4152  0.3187  0.0688
    2MOL   C206  968   7.981   4.090   3.797  0.5546 -0.5651 -0.1785
    2MOL   C207  969   0.004   4.028   3.921  0.3406 -0.0505 -0.0251
    2MOL   O208  970   7.967   3.986   4.013 -0.2676  0.4015 -0.3228
    2MOL   O209  971   0.141   4.027   3.913 -0.4302 -0.1516  0.1537
    2MOL   C210  972   7.839   4.111   3.792 -0.2712  0.1633 -0.5210
    2MOL   C211  973   7.781   4.165   3.674  0.5238  0.1868 -0.2575
    2MOL   H212  974   7.418   4.304   3.092  0.5291 -0.5268  2.3873
    2MOL   H213  975   7.578   4.379   3.063  1.1987 -0.2740 -1.3801
    2MOL   H214  976   7.618   4.144   2.933 -0.3401 -1.0410 -1.0581
    2MOL   H215  977   7.489   4.246   2.873 -0.4787  2.3358  1.5328
    2MOL   H216  978   7.340   4.097   3.022  0.2211  1.8125 -4.0429
    2MOL   H217  979   7.507   3.888   2.879 -0.1542 -0.4116 -0.2519
    2MOL   H218  980   7.433   4.005   2.780 -0.5297  3.0854  1.3756
    2MOL   H219  981   7.602   3.954   3.104 -0.4154 -2.4251  0.7897
    2MOL   H220  982   7.446   3.902   3.155  0.8251 -0.4287 -0.3050
    2MOL   H221  983   7.420   4.108   3.294 -0.7686 -2.5853 -0.1461
    2MOL   H222  984   7.568   4.029   3.325 -0.8633 -2.3896 -1.3020
    2MOL   H223  985   7.685   4.194   3.177 -0.5115  1.3133 -1.1387
    2MOL   H224  986   7.482   4.308   3.375  0.3950 -0.0414  0.2791
    2MOL   H225  987   7.614   4.404   3.320 -0.2343  0.6096  2.0911
    2MOL   H226  988   0.027   4.225   3.498 -0.8006  4.5470  0.4817
    2MOL   H227  989   0.133   4.133   3.689  0.4172  1.0231  2.1661
    2MOL   H228  990   7.771   4.068   3.864  0.9880 -1.1609 -0.0993
    2MOL   H229  991   7.673   4.170   3.675  0.5318  0.3226  0.2912
    2MOL   C230  992   0.383   3.582   3.924  0.4616 -0.0257  0.1773
    2MOL   C231  993   0.334   3.712   3.999 -0.0746  0.2326 -0.1206
    2MOL   C232  994   0.243   3.810   3.920 -0.2760  0.2760  0.2123
    2MOL   C233  995   0.219   3.939   3.996 -0.2772 -0.1464 -0.9253
    2MOL   C234  996   0.308   3.827   3.779 -0.1658 -0.4666  0.0197
    2MOL   C235  997   0.321   3.692   3.703  0.1690 -0.0841 -1.0339
    2MOL   C236  998   0.419   3.592   3.779  0.1822  0.7499  0.6925
    2MOL   C237  999   0.435   3.449   3.717  0.4867 -1.3354  0.2705
    2MOL   O238 1000   0.383   3.447   3.585  0.6386  0.3481 -0.0997
    2MOL   C239 1001   0.455   3.388   3.483  0.8821 -0.2621  0.0793
    2MOL   O240 1002   0.552   3.316   3.503 -0.2170  0.6256  0.2818
    2MOL   C241 1003   0.384   3.400   3.356 -0.9880 -0.5757 -0.2049
    2MOL   C242 1004   0.411   3.311   3.252 -0.9293  0.5986  0.5753
    2MOL   C243 1005   0.337   3.309   3.135 -0.9006 -0.0158  0.1470
    2MOL   C244 1006   0.227   3.405   3.119  0.7470 -0.1560 -0.3244
    2MOL   C245 1007   0.134   3.402   3.000  0.0667  0.0327  0.3540
    2MOL   O246 1008   0.028   3.457   2.990 -0.0514  0.0723 -0.6152
    2MOL   O247 1009   0.185   3.325   2.896 -0.2143 -0.0302  0.0198
    2MOL   C248 1010   0.207   3.503   3.212 -0.0646 -0.5320  1.2659
    2MOL   C249 1011   0.287   3.501   3.330  1.0193 -0.6204  0.2286
    2MOL   H250 1012   0.308   3.504   3.935 -1.6260  1.9930  0.7410
    2MOL   H251 1013   0.473   3.549   3.977 -0.0724 -0.8117  0.5998
    2MOL   H252 1014   0.423   3.770   4.025 -0.0283  0.8233 -1.5487
    2MOL   H253 1015   0.292   3.696   4.099  0.7395  0.3498  0.2480
    2MOL   H254 1016   0.146   3.760   3.916  0.4843 -1.3387  1.3589
    2MOL   H255 1017   0.315   3.988   4.017 -1.6198  1.7515  1.0725
    2MOL   H256 1018   0.160   3.915   4.085  0.1863 -0.7912 -0.7869
    2MOL   H257 1019   0.401   3.884   3.779 -0.6048  0.2587 -0.8567
    2MOL   H258 1020   0.250   3.899   3.721 -2.0134 -2.9492 -1.3238
    2MOL   H259 1021   0.223   3.648   3.681  0.0493 -1.0728  1.2193
    2MOL   H260 1022   0.362   3.710   3.604 -2.4635  5.6737 -1.2428
    2MOL   H261 1023   0.514   3.644   3.773  0.5191 -0.0447 -1.4826
    2MOL   H262 1024   0.378   3.371   3.767 -0.1725 -0.9746  0.0857
    2MOL   H263 1025   0.533   3.402   3.724  0.9611 -0.3402  0.3985
    2MOL   H264 1026   0.485   3.233   3.265 -0.7965  0.3825 -1.2487
    2MOL   H265 1027   0.353   3.232   3.061  1.5187 -1.7365  2.3657
    2MOL   H266 1028   0.128   3.575   3.198 -1.1360 -2.0813 -0.9910
    2MOL   H267 1029   0.247   3.559   3.412 -2.4408 -1.2197 -0.9566
    2MOL   C268 1030   0.463   3.379   2.598 -0.2291 -0.5359 -0.0646
    2MOL   C269 1031   0.340   3.398   2.682  0.2978  0.0008  0.2249
    2MOL   C270 1032   0.241   3.278   2.679  0.2029  0.0639  0.7722
    2MOL   C271 1033   0.123   3.327   2.771 -0.3740  0.1718  0.4546
    2MOL   C272 1034   0.203   3.250   2.536  0.3901 -0.4817  0.0998
    2MOL   C273 1035   0.323   3.222   2.453 -0.0597  0.1832  0.3800
    2MOL   C274 1036   0.417   3.343   2.448  0.7401 -0.2914 -0.2611
    2MOL   C275 1037   0.538   3.330   2.369 -0.0206 -0.0437 -0.1697
    2MOL   O276 1038   0.496   3.358   2.238 -0.3184  0.9861 -0.2060
    2MOL   C277 1039   0.584   3.374   2.144 -0.6734  0.6690 -0.2886
    2MOL   O278 1040   0.704   3.383   2.154  0.1845 -0.8279  0.0331
    2MOL   C279 1041   0.505   3.380   2.013 -0.4901  0.1949  0.3380
    2MOL   C280 1042   0.558   3.448   1.901 -0.3742 -0.5501  0.2884
    2MOL   C281 1043   0.474   3.470   1.787 -0.3256  0.3192  0.5381
    2MOL   C282 1044   0.345   3.409   1.776  0.2263  0.5143  0.0037
    2MOL   C283 1045   0.251   3.448   1.664  0.6499 -0.2665 -0.3837
    2MOL   O284 1046   0.134   3.411   1.657  0.2602 -0.0380  0.1101
    2MOL   O285 1047   0.314   3.509   1.559  0.4654 -0.5116  0.2542
    2MOL   C286 1048   0.297   3.328   1.884  0.9031  0.9982  0.2225
    2MOL   C287 1049   0.379   3.316   1.999  0.4450 -0.2817  0.2892
    2MOL   H288 1050   0.526   3.304   2.645 -0.2663 -0.6903 -0.2605
    2MOL   H289 1051   0.517   3.473   2.595  1.0919 -1.2436  1.2398
    2MOL   H290 1052   0.289   3.489   2.652  3.3738  1.8612  0.4006
    2MOL   H291 1053   0.369   3.414   2.786 -0.0725 -2.1546  0.6858
    2MOL   H292 1054   0.286   3.195   2.733 -1.2825 -1.0615  0.2806
    2MOL   H293 1055   0.038   3.260   2.766  0.3039 -0.5810 -1.4516
    2MOL   H294 1056   0.079   3.424   2.746  0.3230  0.1598 -0.8405
    2MOL   H295 1057   0.137   3.326   2.496  1.3925  0.6395  0.5383
    2MOL   H296 1058   0.135   3.165   2.528  0.4188 -0.2925 -2.6153
    2MOL   H297 1059   0.377   3.134   2.489  1.4908  1.0632  0.2524
    2MOL   H298 1060   0.302   3.196   2.349 -0.3917  2.9834 -0.2973
    2MOL   H299 1061   0.350   3.420   2.410  0.5114 -0.0354  0.6316
    2MOL   H300 1062   0.560   3.223   2.367 -3.9811 -0.9369 -0.1727
    2MOL   H301 1063   0.620   3.393   2.401  0.4523 -0.3294 -0.8038
    2MOL   H302 1064   0.657   3.490   1.905  0.2290 -1.8655 -0.5857
    2MOL   H303 1065   0.519   3.539   1.717 -0.1816 -0.9981 -0.6956
    2MOL   H304 1066   0.196   3.291   1.894  1.5879 -0.8499  0.3449
    2MOL   H305 1067   0.325   3.278   2.085  0.2715  0.8290  0.6712
    2MOL   C306 1068   0.059   3.862   1.491 -0.0083 -0.3560 -0.8602
    2MOL   C307 1069   0.102   3.715   1.510 -0.4578  1.1555  0.5044
    2MOL   C308 1070   0.211   3.673   1.411  0.2230  0.1315 -0.0208
    2MOL   C309 1071   0.247   3.527   1.436 -0.0335  0.4764  0.2192
    2MOL   C310 1072   0.159   3.697   1.266  0.2604 -0.4133 -0.0020
    2MOL   C311 1073   0.120   3.840   1.237  0.2805  0.1079 -0.6846
    2MOL   C312 1074   0.017   3.893   1.344  0.4484  0.2659  0.8459
    2MOL   C313 1075   0.009   4.044   1.330 -0.7491 -0.5943 -0.1900
    2MOL   O314 1076   7.923   4.087   1.397 -0.2206 -0.4183 -0.7213
    2MOL   C315 1077   7.799   4.103   1.335  0.3165 -0.0559  0.2650
    2MOL   O316 1078   7.780   4.087   1.213 -0.1346 -0.9316 -1.1430
    2MOL   C317 1079   7.694   4.132   1.440  0.7864  0.1482 -0.4511
    2MOL   C318 1080   7.713   4.099   1.578 -0.1918  0.6855  0.3390
    2MOL   C319 1081   7.621   4.130   1.672  0.2061  0.2611 -0.7513
    2MOL   C320 1082   7.499   4.187   1.634 -0.4574  0.3551  0.5914
    2MOL   C321 1083   7.391   4.206   1.734  0.0042  0.1436  0.5480
    2MOL   O322 1084   7.395   4.171   1.850  0.0879 -0.1214  0.8796
    2MOL   O323 1085   7.274   4.257   1.676 -0.3795 -0.3908  0.3222
    2MOL   C324 1086   7.481   4.227   1.500 -0.0154  0.6521  0.6521
    2MOL   C325 1087   7.579   4.201   1.402  0.4117  0.1196  0.2608
    2MOL   H326 1088   0.136   3.933   1.518 -0.6339 -0.3005  0.8596
    2MOL   H327 1089   8.010   3.876   1.563  1.4799 -0.3900  0.8579
    2MOL   H328 1090   0.016   3.648   1.509  0.6024 -0.2027 -1.9718
    2MOL   H329 1091   0.147   3.693   1.607  0.7535 -1.7564 -0.6665
    2MOL   H330 1092   0.302   3.731   1.421  0.7364 -0.7714  0.5986
    2MOL   H331 1093   0.317   3.498   1.357  1.0886  1.0688  0.9687
    2MOL   H332 1094   0.159   3.464   1.428  1.2012 -1.1212 -1.0466
    2MOL   H333 1095   0.070   3.634   1.258 -0.0790  0.0386  0.2116
    2MOL   H334 1096   0.234   3.663   1.195 -0.2652 -1.1433 -0.2175
    2MOL   H335 1097   0.201   3.913   1.229  1.8606 -1.6283 -0.6730
    2MOL   H336 1098   0.070   3.852   1.141 -2.6619  0.0274  0.7626
    2MOL   H337 1099   7.953   3.845   1.320  0.5573 -0.4813  1.8884
    2MOL   H338 1100   0.006   4.070   1.224 -2.6050 -0.4071 -0.0992
    2MOL   H339 1101   0.094   4.098   1.372 -2.1100  1.7224 -0.3207
    2MOL   H340 1102   7.808   4.057   1.605 -0.4526 -0.4744 -0.5089
    2MOL   H341 1103   7.643   4.097   1.773 -2.2607  1.0976  0.0846
    2MOL   H342 1104   7.390   4.274   1.467  1.6817  2.0802 -2.2922
    2MOL   H343 1105   7.568   4.237   1.301 -2.6671 -1.6913 -0.0983
    2MOL   C344 1106   6.993   4.531   1.452 -0.0782  0.4362 -0.3056
    2MOL   C345 1107   7.046   4.414   1.535  0.4421 -0.0307 -0.3221
    2MOL   C346 1108   7.116   4.457   1.667 -0.2339  0.4447  0.4376
    2MOL   C347 1109   7.185   4.334   1.753  0.0872 -0.1807 -0.0204
    2MOL   C348 1110   7.212   4.571   1.637 -0.3455 -0.2113 -0.1621
    2MOL   C349 1111   7.161   4.689   1.551  0.5335  0.7855 -0.1503
    2MOL   C350 1112   7.101   4.633   1.422  0.2452 -0.4203  0.5489
    2MOL   C351 1113   7.049   4.755   1.332  0.4973 -0.5333  0.3877
    2MOL   O352 1114   6.990   4.717   1.207  0.8385  0.2566 -0.0492
    2MOL   C353 1115   7.056   4.721   1.095 -0.5228 -0.3260  0.1114
    2MOL   O354 1116   7.179   4.739   1.093  0.5652  0.0197  0.0606
    2MOL   C355 1117   6.975   4.704   0.971  0.1541 -0.5230 -0.3274
    2MOL   C356 1118   7.035   4.744   0.854 -0.2506  0.5677 -0.0432
    2MOL   C357 1119   6.959   4.756   0.737  0.3662  0.5386 -0.3406
    2MOL   C358 1120   6.824   4.706   0.738  0.4649  0.6731 -0.2002
    2MOL   C359 1121   6.734   4.724   0.625  0.7103  0.0730 -0.0651
    2MOL   O360 1122   6.608   4.714   0.621  1.1621  0.3089  0.6464
    2MOL   O361 1123   6.805   4.755   0.518 -0.2308  0.0360  0.7027
    2MOL   C362 1124   6.778   4.638   0.858 -0.8758 -0.5735  0.0230
    2MOL   C363 1125   6.848   4.653   0.979  0.4050 -0.0601  0.0786
    2MOL   H364 1126   6.916   4.575   1.514  0.2071 -0.6199  0.8288
    2MOL   H365 1127   6.948   4.506   1.356 -1.8847 -1.3160  0.9588
    2MOL   H366 1128   7.121   4.360   1.476  1.1500 -1.9570  2.2381
    2MOL   H367 1129   6.969   4.341   1.562  1.6353 -0.9406  0.7173
    2MOL   H368 1130   7.043   4.490   1.741 -0.4074  0.3713  0.3005
    2MOL   H369 1131   7.102   4.273   1.787 -0.5533 -0.9810 -2.8865
    2MOL   H370 1132   7.228   4.367   1.848  0.4394 -1.7472  0.3788
    2MOL   H371 1133   7.299   4.524   1.591 -0.1216 -1.0412  1.0862
    2MOL   H372 1134   7.253   4.612   1.729 -2.9291 -0.2943  1.0760
    2MOL   H373 1135   7.082   4.738   1.608 -1.2222 -1.0406 -0.9619
    2MOL   H374 1136   7.239   4.762   1.527  2.4681 -0.4034  2.2392
    2MOL   H375 1137   7.172   4.575   1.363 -1.1233 -1.6417  0.0618
    2MOL   H376 1138   7.131   4.826   1.324 -1.4808  1.8843  0.9017
    2MOL   H377 1139   6.973   4.802   1.395  0.3816 -0.8120  0.4602
    2MOL   H378 1140   7.135   4.784   0.848  0.1846 -0.6344 -0.8238
    2MOL   H379 1141   7.002   4.807   0.652  2.1632 -0.5400 -0.1068
    2MOL   H380 1142   6.679   4.595   0.862 -1.1741 -0.0969 -1.6982
    2MOL   H381 1143   6.805   4.622   1.073 -3.1457  1.7135 -0.8551
    2MOL   C382 1144   7.010   5.068   0.306 -0.1550 -0.6796 -0.2834
    2MOL   C383 1145   6.914   4.990   0.391 -0.0157 -0.0470 -0.0704
    2MOL   C384 1146   6.856   4.872   0.318 -0.8333  0.0420  0.1251
    2MOL   C385 1147   6.742   4.808   0.404  0.0589  0.2247  0.8676
    2MOL   C386 1148   6.796   4.919   0.188 -0.3680  0.2298 -0.4570
    2MOL   C387 1149   6.901   4.980   0.100 -0.5320  0.8850  0.3174
    2MOL   C388 1150   6.962   5.110   0.168  0.2530 -0.3267  0.1691
    2MOL   C389 1151   7.075   5.174   0.085  0.7212  0.2414 -0.4013
    2MOL   O390 1152   7.111   5.304   0.137 -0.0440  0.6630  0.2971
    2MOL   C391 1153   7.178   5.393   0.055 -0.0568  0.0091  0.6833
    2MOL   O392 1154   7.209   5.376   7.967 -0.2581 -0.5750  0.6554
    2MOL   C393 1155   7.201   5.520   0.131  0.2957 -0.3105 -0.4523
    2MOL   C394 1156   7.142   5.549   0.255  0.1656 -0.3037 -0.0643
    2MOL   C395 1157   7.163   5.673   0.312  0.4046  0.2058  0.3421
    2MOL   C396 1158   7.235   5.776   0.251  0.5583  0.8795 -0.4462
    2MOL   C397 1159   7.273   5.902   0.320  0.3779  0.2977 -0.1766
    2MOL   O398 1160   7.195   5.954   0.396 -0.4454  0.3150 -0.0648
    2MOL   O399 1161   7.399   5.944   0.298 -0.1075  0.2406  0.0800
    2MOL   C400 1162   7.296   5.743   0.129  0.1758  0.4604  0.1803
    2MOL   C401 1163   7.273   5.623   0.071  0.1023  0.4545 -0.6034
    2MOL   H402 1164   7.102   5.011   0.292  0.5070  0.4950 -0.7821
    2MOL   H403 1165   7.023   5.159   0.365  2.2586 -0.9596 -0.3404
    2MOL   H404 1166   6.835   5.048   0.439 -1.4572 -1.4756 -0.6675
    2MOL   H405 1167   6.971   4.952   0.476  1.1998  0.8618 -0.4598
    2MOL   H406 1168   6.942   4.808   0.298  0.8693  1.9328  1.1552
    2MOL   H407 1169   6.693   4.731   0.345  4.1233 -1.0105 -1.0975
    2MOL   H408 1170   6.657   4.870   0.432  0.0358  0.4800  0.2224
    2MOL   H409 1171   6.714   4.989   0.207 -0.4213 -0.0619  0.4126
    2MOL   H410 1172   6.752   4.830   0.143 -0.2456 -0.2238  0.3007
    2MOL   H411 1173   6.975   4.906   0.071 -2.5132 -1.5080  1.1772
    2MOL   H412 1174   6.847   5.015   0.012 -0.4004 -1.3597 -0.6795
    2MOL   H413 1175   6.886   5.186   0.188  2.1034  1.3723  0.9076
    2MOL   H414 1176   7.052   5.178   8.010 -0.4771  0.5994 -0.1455
    2MOL   H415 1177   7.160   5.107   0.088  2.0301  1.8597 -0.5731
    2MOL   H416 1178   7.085   5.472   0.306  0.8845 -1.5817 -1.1630
    2MOL   H417 1179   7.118   5.695   0.407  1.0573  1.3927  0.3851
    2MOL   H418 1180   7.360   5.812   0.075  1.5756 -1.8039 -1.1579
    2MOL   H419 1181   7.307   5.606   8.002  1.2763 -0.2597 -0.1043
    2MOL   C420 1182   7.646   6.072   0.689  0.5440  0.7824  0.0601
    2MOL   C421 1183   7.575   6.133   0.568  0.8931 -0.7682 -0.1670
    2MOL   C422 1184   7.539   6.013   0.484  0.3085 -0.2597  0.8083
    2MOL   C423 1185   7.452   6.050   0.370  0.1051  0.0860 -0.1664
    2MOL   C424 1186   7.671   5.958   0.435 -0.3782  0.1562  0.8168
    2MOL   C425 1187   7.748   5.888   0.550  0.0939  0.2319  0.5010
    2MOL   C426 1188   7.776   5.990   0.656  0.3559  0.4798 -0.2230
    2MOL   C427 1189   7.835   5.935   0.789 -0.0946 -0.1621  0.7882
    2MOL   O428 1190   7.919   5.836   0.750  0.2550 -0.1979 -0.2091
    2MOL   C429 1191   8.019   5.781   0.821  0.2814 -0.6339 -0.3554
    2MOL   O430 1192   0.020   5.840   0.923  0.1584  0.3247 -0.3852
    2MOL   C431 1193   0.032   5.654   0.763  0.1743 -0.8013  0.2263
    2MOL   C432 1194   0.159   5.605   0.788  0.6146 -0.1745 -0.6742
    2MOL   C433 1195   0.199   5.478   0.738 -0.2108 -0.2268  0.4708
    2MOL   C434 1196   0.119   5.407   0.654  0.1005  0.2202  0.1621
    2MOL   C435 1197   0.167   5.276   0.600 -0.4098 -0.0126  0.0753
    2MOL   O436 1198   0.255   5.208   0.653 -0.5396 -0.1152 -0.4737
    2MOL   O437 1199   0.092   5.229   0.487  0.4495 -0.3280  0.1994
    2MOL   C438 1200   8.031   5.460   0.614  0.1369 -0.1361 -0.2084
    2MOL   C439 1201   7.986   5.579   0.671 -0.3679 -0.8323 -0.3691
    2MOL   H440 1202   7.569   6.003   0.725 -0.4008  1.0509 -1.4217
    2MOL   H441 1203   7.672   6.145   0.766 -1.5817  2.5754 -0.8503
    2MOL   H442 1204   7.637   6.204   0.512 -2.5475  2.3308 -0.2727
    2MOL   H443 1205   7.483   6.185   0.595  1.5237  0.2931  0.0074
    2MOL   H444 1206   7.485   5.936   0.539  1.2499 -0.7839  1.0121
    2MOL   H445 1207   7.509   6.125   0.314 -1.6079  1.1286 -0.5306
    2MOL   H446 1208   7.375   6.105   0.423  0.8941  1.0260  0.0165
    2MOL   H447 1209   7.725   6.042   0.391 -1.4878  0.1274 -0.6379
    2MOL   H448 1210   7.646   5.886   0.357  0.1794  0.2243  0.5748
    2MOL   H449 1211   7.681   5.815   0.594 -0.5223  0.3061 -0.3034
    2MOL   H450 1212   7.845   5.851   0.515  0.2735  0.9172  0.2627
    2MOL   H451 1213   7.842   6.064   0.612  0.2455  1.1765  0.7580
    2MOL   H452 1214   7.762   5.898   0.862  0.3903 -1.4611  0.6302
    2MOL   H453 1215   7.892   6.010   0.844  0.3319  0.1043 -0.0225
    2MOL   H454 1216   0.228   5.661   0.849 -0.4914  1.8758 -1.2703
    2MOL   H455 1217   0.298   5.437   0.753 -0.3732 -0.4290  1.0037
    2MOL   H456 1218   7.966   5.404   0.549  1.4920  2.0842 -3.5834
    2MOL   H457 1219   7.892   5.617   0.631  0.5109  1.6855 -0.1340
    2MOL   C458 1220   7.817   4.923   0.558 -0.7628 -0.0298 -0.0236
    2MOL   C459 1221   7.953   5.003   0.570  0.0703 -0.0158  0.6436
    2MOL   C460 1222   8.012   5.024   0.425 -0.7856  0.4200  0.0328
    2MOL   C461 1223   0.115   5.099   0.431  0.3327  0.6667 -0.0678
    2MOL   C462 1224   8.029   4.887   0.352 -0.3664 -0.1686  0.2265
    2MOL   C463 1225   7.892   4.815   0.337  0.3585  0.1251  0.1135
    2MOL   C464 1226   7.836   4.786   0.477  0.6914 -1.0404 -0.8468
    2MOL   C465 1227   7.701   4.714   0.467  0.2420  0.6346 -0.3435
    2MOL   O466 1228   7.657   4.686   0.605 -0.3975 -0.5918 -0.5343
    2MOL   C467 1229   7.691   4.569   0.667 -0.2301  0.7239 -0.0259
    2MOL   O468 1230   7.743   4.473   0.602  0.1142 -0.1157  0.3097
    2MOL   C469 1231   7.663   4.577   0.817 -0.0582 -0.2386 -0.3521
    2MOL   C470 1232   7.676   4.465   0.905  0.4140  0.4809 -0.7977
    2MOL   C471 1233   7.635   4.472   1.040 -0.4030  0.3242 -0.7141
    2MOL   C472 1234   7.579   4.588   1.092 -0.1106  0.2055  0.7277
    2MOL   C473 1235   7.530   4.587   1.239  0.2091 -0.5134 -0.1615
    2MOL   O474 1236   7.457   4.504   1.289 -0.5842 -0.2635  0.0525
    2MOL   O475 1237   7.567   4.696   1.315 -0.3332 -0.3249 -0.3769
    2MOL   C476 1238   7.561   4.699   1.009 -0.9417 -0.3357 -0.6205
    2MOL   C477 1239   7.609   4.696   0.874  0.8920  0.2556  0.3157
    2MOL   H478 1240   7.730   4.976   0.520 -1.0510 -1.2949 -1.2058
    2MOL   H479 1241   7.784   4.893   0.657 -0.1809 -0.9717 -0.1088
    2MOL   H480 1242   8.027   4.953   0.632 -0.9896 -0.7535  1.3168
    2MOL   H481 1243   7.929   5.095   0.623 -1.4293 -0.2028  0.3035
    2MOL   H482 1244   7.939   5.082   0.368 -0.0519 -0.0077 -1.3522
    2MOL   H483 1245   0.154   5.108   0.330  0.1263 -2.5680 -0.4807
    2MOL   H484 1246   0.204   5.046   0.467  1.6874  2.1173 -1.2043
    2MOL   H485 1247   0.061   4.827   0.417 -1.7644 -0.1596  1.6449
    2MOL   H486 1248   0.040   4.888   0.252  0.9985  0.5299  0.8137
    2MOL   H487 1249   7.832   4.887   0.281  0.6312  0.2654  0.0013
    2MOL   H488 1250   7.895   4.730   0.269  1.0461 -0.9455  1.4447
    2MOL   H489 1251   7.910   4.718   0.518 -1.4934 -4.8365 -2.9819
    2MOL   H490 1252   7.724   4.619   0.420  0.8855  0.9510 -0.6801
    2MOL   H491 1253   7.623   4.755   0.403 -1.4228 -0.0132  1.2369
    2MOL   H492 1254   7.712   4.368   0.874 -0.0899  0.3283 -0.9125
    2MOL   H493 1255   7.650   4.388   1.106 -0.3998 -0.5149 -1.7906
    2MOL   H494 1256   7.511   4.789   1.043  1.7215 -0.0391  2.8332
    2MOL   H495 1257   7.589   4.784   0.814 -3.6501 -0.0838  1.1424
    2MOL   C496 1258   7.683   4.502   1.760  0.4922  0.1775  0.1741
    2MOL   C497 1259   7.603   4.603   1.680 -0.3418  0.5440 -0.2232
    2MOL   C498 1260   7.627   4.579   1.524  0.1629  0.3725 -0.1886
    2MOL   C499 1261   7.540   4.686   1.456  0.3367  0.1969 -0.7171
    2MOL   C500 1262   7.775   4.585   1.494  0.0485 -0.5549 -0.6848
    2MOL   C501 1263   7.858   4.483   1.579  0.1172 -0.0186  0.5500
    2MOL   C502 1264   7.831   4.498   1.731 -0.7360 -0.1363 -0.4272
    2MOL   C503 1265   7.893   4.384   1.817  0.0797 -0.3251 -0.4366
    2MOL   O504 1266   0.003   4.392   1.828  0.0698  0.2794 -0.1462
    2MOL   C505 1267   0.080   4.282   1.834  0.4162 -0.2449 -0.6609
    2MOL   O506 1268   0.037   4.168   1.844 -0.5275 -0.1039 -0.3599
    2MOL   C507 1269   0.228   4.312   1.833 -0.2447  0.5638  0.2060
    2MOL   C508 1270   0.312   4.196   1.835 -0.0040 -0.0315 -0.4463
    2MOL   C509 1271   0.454   4.209   1.830  0.3070  0.0592  0.5197
    2MOL   C510 1272   0.516   4.333   1.806 -0.0488 -0.1091  0.4366
    2MOL   C511 1273   0.663   4.347   1.803  0.4844 -0.4146 -0.3512
    2MOL   O512 1274   0.725   4.447   1.837 -0.1164  0.4311  0.5936
    2MOL   O513 1275   0.723   4.235   1.754 -0.3331  0.7113 -0.3999
    2MOL   C514 1276   0.431   4.448   1.806 -0.4261 -0.7081 -0.2922
    2MOL   C515 1277   0.293   4.438   1.821  0.3473  0.3042 -0.0922
    2MOL   H516 1278   7.638   4.403   1.753  1.7614 -0.2969 -1.7217
    2MOL   H517 1279   7.691   4.523   1.867 -1.5123 -0.4803  0.4665
    2MOL   H518 1280   7.642   4.699   1.715 -2.4944  1.3182  0.1555
    2MOL   H519 1281   7.495   4.594   1.695  0.1096 -1.2228  2.1988
    2MOL   H520 1282   7.591   4.478   1.505  0.9019  0.1294 -0.3097
    2MOL   H521 1283   7.548   4.783   1.505 -0.4621  0.3575 -0.8924
    2MOL   H522 1284   7.436   4.653   1.460  0.2492  0.6529  1.5713
    2MOL   H523 1285   7.810   4.683   1.525 -1.6745 -0.9450  2.8079
    2MOL   H524 1286   7.794   4.588   1.387 -1.8891  2.1114 -0.9925
    2MOL   H525 1287   7.836   4.380   1.554  0.7381 -0.1040  0.3444
    2MOL   H526 1288   7.964   4.502   1.560 -0.1802  1.2363  0.0513
    2MOL   H527 1289   7.883   4.589   1.763 -1.3964  0.0949  0.0076
    2MOL   H528 1290   7.855   4.287   1.783 -2.1602 -0.1834  1.4832
    2MOL   H529 1291   7.848   4.400   1.915  1.1596  0.2779 -0.0314
    2MOL   H530 1292   0.272   4.098   1.854 -0.4949  0.5557  1.7002
    2MOL   H531 1293   0.514   4.119   1.839  1.5753  0.8939  0.4966
    2MOL   H532 1294   0.470   4.547   1.828 -0.5963 -0.9058  0.9238
    2MOL   H533 1295   0.234   4.528   1.816 -0.8793 -0.5373 -1.2824
    2MOL   C534 1296   0.931   4.007   2.066 -0.0752 -0.3432  0.2431
    2MOL   C535 1297   0.870   4.054   1.928 -0.4107 -0.2883  0.6936
    2MOL   C536 1298   0.924   4.188   1.882 -0.7268 -0.0750  0.8679
    2MOL   C537 1299   0.861   4.226   1.748 -0.1463 -0.2603 -0.7620
    2MOL   C538 1300   0.926   4.294   1.989  0.3486 -0.4851  1.0675
    2MOL   C539 1301   1.001   4.246   2.110 -0.1137  0.2784  1.2492
    2MOL   C540 1302   0.928   4.124   2.169 -0.2829  0.3240  0.4575
    2MOL   C541 1303   0.986   4.080   2.306  0.0937  0.6765 -0.5896
    2MOL   O542 1304   1.132   4.090   2.296 -0.1353  0.3095  0.5904
    2MOL   C543 1305   1.207   3.983   2.341 -0.3067  1.3045 -0.0199
    2MOL   O544 1306   1.162   3.879   2.383 -0.5691 -0.3248 -0.1406
    2MOL   C545 1307   1.348   4.017   2.347 -0.5597 -0.4700  0.2373
    2MOL   C546 1308   1.407   4.101   2.247  0.4768  0.1297 -0.8437
    2MOL   C547 1309   1.543   4.133   2.255 -0.1242  0.2654  0.4048
    2MOL   C548 1310   1.624   4.089   2.357 -0.4074  0.6723 -0.5068
    2MOL   C549 1311   1.767   4.134   2.371  0.9368 -0.6867 -0.1049
    2MOL   O550 1312   1.825   4.210   2.287 -0.1090 -0.5743 -0.1088
    2MOL   O551 1313   1.823   4.088   2.485 -0.0279 -0.2782 -0.3905
    2MOL   C552 1314   1.567   4.004   2.455  0.2573 -0.2489 -0.5041
    2MOL   C553 1315   1.430   3.961   2.447  0.7313 -0.4357 -0.6211
    2MOL   H554 1316   1.038   3.991   2.050 -0.2744 -0.6190 -0.8985
    2MOL   H555 1317   0.880   3.918   2.102 -0.1317 -0.5202 -0.2756
    2MOL   H556 1318   0.762   4.064   1.934 -0.2699  0.7505  1.5348
    2MOL   H557 1319   0.895   3.983   1.849 -2.2469  1.9429 -1.9893
    2MOL   H558 1320   1.029   4.168   1.862 -0.6554 -0.1356  1.2939
    2MOL   H559 1321   0.872   4.144   1.678  2.1866  2.5079 -3.7888
    2MOL   H560 1322   0.900   4.321   1.709  1.3921  0.7517  2.9540
    2MOL   H561 1323   0.825   4.326   2.014  1.1014  1.5178  1.6761
    2MOL   H562 1324   0.977   4.376   1.940 -0.4964 -0.9267 -0.5750
    2MOL   H563 1325   1.107   4.223   2.091 -1.2026 -1.7847 -3.0610
    2MOL   H564 1326   1.021   4.326   2.181 -1.0797  1.4906  0.1493
    2MOL   H565 1327   0.828   4.155   2.198 -1.0992 -1.3395 -0.4958
    2MOL   H566 1328   0.958   3.977   2.330  0.7409  0.3032 -1.4107
    2MOL   H567 1329   0.936   4.140   2.381 -0.0272 -0.3701  0.1765
    2MOL   H568 1330   1.349   4.147   2.168  0.6453 -0.7489 -1.4870
    2MOL   H569 1331   1.573   4.213   2.189 -0.1075  0.5238  0.7214
    2MOL   H570 1332   1.620   3.972   2.543 -2.8666  2.2616  2.4143
    2MOL   H571 1333   1.388   3.893   2.520 -0.5693  0.1755 -0.7835
    2MOL   C572 1334   2.205   4.048   2.826 -0.5601 -0.0652 -0.6338
    2MOL   C573 1335   2.166   4.070   2.680  0.0121 -0.2007  1.0316
    2MOL   C574 1336   2.014   4.068   2.649  0.1192 -0.1696 -0.1632
    2MOL   C575 1337   1.968   4.098   2.502  0.1642 -0.1411 -0.2244
    2MOL   C576 1338   1.956   3.934   2.699 -0.2279  0.2228 -0.9432
    2MOL   C577 1339   2.001   3.905   2.837  0.5616 -0.1733 -0.6764
    2MOL   C578 1340   2.149   3.905   2.854 -0.0918 -0.3602  0.1597
    2MOL   C579 1341   2.197   3.850   2.987  0.5720  0.6423  0.7018
    2MOL   O580 1342   2.138   3.920   3.096  0.0908  0.6497  0.0918
    2MOL   C581 1343   2.143   3.871   3.222 -0.6442  0.2472  0.0993
    2MOL   O582 1344   2.203   3.768   3.259 -0.0842 -0.1968 -0.4995
    2MOL   C583 1345   2.059   3.958   3.306  1.2711  0.2967 -0.2200
    2MOL   C584 1346   1.962   4.054   3.254  0.0973 -0.0493  0.1681
    2MOL   C585 1347   1.879   4.121   3.345  0.2298  0.8888 -0.0088
    2MOL   C586 1348   1.886   4.108   3.486  0.4033  0.4191  0.2573
    2MOL   C587 1349   1.780   4.181   3.564  0.2069  0.0378 -0.2613
    2MOL   O588 1350   1.703   4.261   3.510 -0.2339  0.7687 -0.6857
    2MOL   O589 1351   1.786   4.150   3.694 -0.6667 -0.1425 -0.1791
    2MOL   C590 1352   1.989   4.023   3.530  0.0644  0.0604  0.4963
    2MOL   C591 1353   2.069   3.945   3.446  0.5496  0.6188 -0.2418
    2MOL   H592 1354   2.160   4.123   2.892 -1.9290 -2.3351  1.1052
    2MOL   H593 1355   2.313   4.055   2.840 -0.2777 -2.5339 -1.2815
    2MOL   H594 1356   2.217   3.997   2.617  0.2739  2.3496 -1.8685
    2MOL   H595 1357   2.218   4.164   2.659  0.0165 -0.3825  0.1890
    2MOL   H596 1358   1.969   4.150   2.704  1.0957 -0.6096  1.3080
    2MOL   H597 1359   2.017   4.029   2.434  0.1105 -2.4783  2.0704
    2MOL   H598 1360   2.002   4.201   2.486 -3.8112  1.2083 -0.5531
    2MOL   H599 1361   1.995   3.864   2.626  0.9880  0.3224 -0.3898
    2MOL   H600 1362   1.849   3.916   2.687 -0.1557 -0.9854  0.0736
    2MOL   H601 1363   1.959   3.985   2.898  1.4106 -2.1219  2.6060
    2MOL   H602 1364   1.965   3.804   2.852  0.8296 -0.3565 -1.2196
    2MOL   H603 1365   2.192   3.838   2.779  0.7316 -0.6284  0.8621
    2MOL   H604 1366   2.305   3.859   2.994  1.0388 -0.5830 -3.4026
    2MOL   H605 1367   2.179   3.743   2.996 -0.0831  0.9226  2.9934
    2MOL   H606 1368   1.952   4.069   3.147  2.6019 -0.0147 -0.0802
    2MOL   H607 1369   1.798   4.166   3.289 -0.9197  1.0248  1.7163
    2MOL   H608 1370   2.016   4.018   3.635  0.1172 -0.7090  0.4536
    2MOL   H609 1371   2.141   3.892   3.507 -0.5694  1.5636  1.9778
    2MOL   C610 1372   1.368   4.131   3.998  0.3773 -0.0975 -0.2664
    2MOL   C611 1373   1.504   4.197   3.962 -0.5476  0.1477 -0.0744
    2MOL   C612 1374   1.565   4.143   3.824  0.0159  0.3478 -1.1984
    2MOL   C613 1375   1.700   4.206   3.796  0.0944 -0.1843 -0.1298
    2MOL   C614 1376   1.593   3.994   3.842  0.2336  0.4014 -0.2066
    2MOL   C615 1377   1.460   3.918   3.882  0.3060  0.6429 -0.4089
    2MOL   C616 1378   1.387   3.977   4.009  0.4601  0.0191 -0.5344
    2MOL   C617 1379   1.250   3.907   4.026 -0.5994  0.7102 -0.1475
    2MOL   O618 1380   1.264   3.768   4.021  0.5619  0.4058 -0.3741
    2MOL   C619 1381   1.162   3.682   4.045 -0.0782 -0.5419  0.3443
    2MOL   O620 1382   1.051   3.725   4.084  0.3328 -0.2602 -0.0246
    2MOL   C621 1383   1.207   3.540   4.033 -0.1652  0.0663 -0.2625
    2MOL   C622 1384   1.133   3.431   4.086  0.2298 -0.1468 -0.1578
    2MOL   C623 1385   1.180   3.300   4.071  0.2458 -0.4953  0.7321
    2MOL   C624 1386   1.302   3.270   4.009 -0.4330 -0.2315  0.1334
    2MOL   C625 1387   1.344   3.127   3.986 -0.2172  0.1648  1.0155
    2MOL   O626 1388   1.416   3.094   3.886 -0.0635 -0.2925  0.0959
    2MOL   O627 1389   1.268   3.045   4.054 -0.1538 -0.3876 -0.6051
    2MOL   C628 1390   1.379   3.376   3.958 -0.0456  0.3154 -0.4746
    2MOL   C629 1391   1.333   3.509   3.974 -0.7371  0.0027  0.1176
    2MOL   H630 1392   1.283   4.165   3.939 -2.1299 -1.4699  2.4418
    2MOL   H631 1393   1.359   4.163   4.101  1.2759 -2.2202  0.5050
    2MOL   H632 1394   1.566   4.170   4.048  1.1228  0.3708 -1.1707
    2MOL   H633 1395   1.495   4.305   3.969  0.7660  0.4153 -2.2504
    2MOL   H634 1396   1.498   4.162   3.740  1.7673 -2.5736 -3.3572
    2MOL   H635 1397   1.770   4.197   3.879  0.3460  1.8147 -0.0813
    2MOL   H636 1398   1.686   4.314   3.786  0.0230 -0.3041 -1.5087
    2MOL   H637 1399   1.659   3.976   3.928  0.1906  0.0335 -0.2480
    2MOL   H638 1400   1.642   3.954   3.753 -0.4196 -0.0124 -0.3827
    2MOL   H639 1401   1.390   3.931   3.799 -0.0301 -3.4823 -0.8869
    2MOL   H640 1402   1.474   3.811   3.896  0.5668  0.6928 -0.2843
    2MOL   H641 1403   1.446   3.948   4.096 -0.2694  0.6725  0.1828
    2MOL   H642 1404   1.193   3.943   3.940 -0.2266 -0.0777 -0.7324
    2MOL   H643 1405   1.211   3.945   4.121 -2.7023 -0.1321 -0.6365
    2MOL   H644 1406   1.042   3.442   4.142  0.5512 -3.5516  1.1282
    2MOL   H645 1407   1.119   3.224   4.116  1.1966 -0.9098  1.3280
    2MOL   H646 1408   1.473   3.354   3.908 -0.9426 -1.8950 -1.2514
    2MOL   H647 1409   1.402   3.583   3.936  0.0115 -0.2979  0.8888
    2MOL   C648 1410   1.344   2.754   4.383  0.9979 -0.2766  0.0164
    2MOL   C649 1411   1.363   2.837   4.251 -0.7036 -0.0289 -0.6421
    2MOL   C650 1412   1.240   2.834   4.163 -0.1039  0.5770 -0.3270
    2MOL   C651 1413   1.278   2.906   4.034  0.6839 -0.1890  0.3077
    2MOL   C652 1414   1.205   2.690   4.126  1.1993 -0.2085 -0.0823
    2MOL   C653 1415   1.189   2.604   4.254  0.7331  0.2409 -0.8029
    2MOL   C654 1416   1.318   2.611   4.342 -0.0931 -0.1191 -0.2951
    2MOL   C655 1417   1.319   2.508   4.456  0.3124 -0.2976 -0.6661
    2MOL   O656 1418   1.209   2.540   4.544 -0.1379  0.3458  0.3620
    2MOL   C657 1419   1.207   2.526   4.671  0.2020 -0.0120  0.1293
    2MOL   O658 1420   1.299   2.470   4.737  0.2373  0.4025  0.4220
    2MOL   C659 1421   1.100   2.601   4.737 -0.7311  0.2399 -0.2465
    2MOL   C660 1422   0.984   2.636   4.668  0.1581 -0.0261 -0.1144
    2MOL   C661 1423   0.885   2.715   4.730  0.5514 -0.1488  0.3442
    2MOL   C662 1424   0.912   2.765   4.862  0.4066  0.1898 -0.6433
    2MOL   C663 1425   0.809   2.851   4.917 -0.2135  0.1695  0.5854
    2MOL   O664 1426   0.809   2.886   5.036 -0.2328  0.0819 -0.0055
    2MOL   O665 1427   0.720   2.905   4.826 -0.1021  0.3025  0.1628
    2MOL   C666 1428   1.025   2.718   4.932 -0.9683 -0.1004  0.4145
    2MOL   C667 1429   1.127   2.647   4.867 -0.2995 -0.8331  0.7337
    2MOL   H668 1430   1.280   2.795   4.461  2.4577  0.4294  0.8511
    2MOL   H669 1431   1.440   2.754   4.434  0.7540 -0.3238  0.4838
    2MOL   H670 1432   1.450   2.796   4.200  1.9404  4.3379  0.0158
    2MOL   H671 1433   1.391   2.937   4.284  0.7947 -0.5438 -0.3548
    2MOL   H672 1434   1.150   2.879   4.206 -0.7425 -0.9054 -0.0842
    2MOL   H673 1435   1.205   2.878   3.958 -0.3579  2.2711  0.3423
    2MOL   H674 1436   1.374   2.874   3.994 -1.0673 -2.1261 -2.4653
    2MOL   H675 1437   1.286   2.638   4.075  0.8688 -0.8992  0.0946
    2MOL   H676 1438   1.117   2.687   4.061  0.7783  2.3520  0.3161
    2MOL   H677 1439   1.104   2.637   4.314  0.3759  0.3966 -1.3830
    2MOL   H678 1440   1.160   2.503   4.225  0.1436  0.7509 -2.0623
    2MOL   H679 1441   1.409   2.582   4.289  0.6952  0.2514  0.8477
    2MOL   H680 1442   1.414   2.508   4.509 -0.2918 -0.7714  0.4289
    2MOL   H681 1443   1.293   2.411   4.412 -0.4734 -0.6391  0.5191
    2MOL   H682 1444   0.973   2.626   4.561 -0.6531  0.8471 -0.1168
    2MOL   H683 1445   0.797   2.741   4.674 -0.3154 -0.7052  1.4363
    2MOL   H684 1446   1.045   2.743   5.035  1.7926 -1.2792  0.2278
    2MOL   H685 1447   1.217   2.620   4.921  1.5577 -0.2170 -1.9427
    2MOL   C686 1448   0.313   2.862   4.987 -0.1244  0.3555 -0.3516
    2MOL   C687 1449   0.465   2.871   4.965  0.0500  0.7267 -0.3455
    2MOL   C688 1450   0.491   2.980   4.859 -0.0225 -0.3674  0.1511
    2MOL   C689 1451   0.639   3.020   4.853  0.2518 -0.5915 -0.3891
    2MOL   C690 1452   0.420   2.944   4.730  0.3898  0.4253  0.1620
    2MOL   C691 1453   0.259   2.942   4.740 -0.5441 -0.9805  0.3054
    2MOL   C692 1454   0.225   2.842   4.857 -0.0065  0.1450  0.1150
    2MOL   C693 1455   0.074   2.860   4.885  0.6976 -0.6378  0.5329
    2MOL   O694 1456   8.029   2.861   4.766 -0.0200 -0.4244  0.2049
    2MOL   C695 1457   7.887   2.867   4.763 -0.3349  0.1576 -0.0863
    2MOL   O696 1458   7.811   2.865   4.860  0.0808 -0.0685 -0.1791
    2MOL   C697 1459   7.832   2.867   4.621  0.1325 -0.2123  0.0737
    2MOL   C698 1460   7.911   2.880   4.504  0.1869  0.5140 -0.1874
    2MOL   C699 1461   7.846   2.876   4.376 -0.4698  0.8520  0.1893
    2MOL   C700 1462   7.706   2.853   4.357  0.1635 -0.4841  0.1509
    2MOL   C701 1463   7.636   2.851   4.229  0.7313  0.1888 -0.8377
    2MOL   O702 1464   7.699   2.864   4.127 -1.0224  0.0928 -0.0859
    2MOL   O703 1465   7.497   2.835   4.223 -0.3822  0.1102 -0.2393
    2MOL   C704 1466   7.631   2.844   4.474 -0.4286 -0.2177  0.0977
    2MOL   C705 1467   7.694   2.849   4.604  0.0410 -0.1579 -0.4765
    2MOL   H706 1468   0.288   2.955   5.037 -0.1978  0.6631 -0.9541
    2MOL   H707 1469   0.296   2.777   5.054  1.3679  1.1251  1.0351
    2MOL   H708 1470   0.493   2.771   4.933 -0.8753 -0.2133  1.6423
    2MOL   H709 1471   0.514   2.887   5.061 -1.5031  2.1310  0.2455
    2MOL   H710 1472   0.439   3.073   4.885 -1.3013 -0.7534 -0.9322
    2MOL   H711 1473   0.679   3.064   4.944 -0.2049  0.1718 -0.5499
    2MOL   H712 1474   0.643   3.100   4.779  1.6373 -0.1762  0.1282
    2MOL   H713 1475   0.453   2.848   4.691  1.5231  1.0631 -0.4531
    2MOL   H714 1476   0.447   3.001   4.641 -2.3585 -2.9969 -3.0315
    2MOL   H715 1477   0.220   3.039   4.770  1.5152  0.9740 -3.0234
    2MOL   H716 1478   0.209   2.921   4.645 -0.6039  0.4404  0.0155
    2MOL   H717 1479   0.240   2.745   4.809 -0.0120  1.7914 -3.3588
    2MOL   H718 1480   0.052   2.952   4.939  1.5395 -1.3297  2.1037
    2MOL   H719 1481   0.036   2.780   4.947 -0.7524 -0.9842 -0.7924
    2MOL   H720 1482   8.017   2.892   4.524  0.0501  1.4752  0.0238
    2MOL   H721 1483   7.915   2.863   4.294 -1.5451 -0.7741 -0.4850
    2MOL   H722 1484   7.523   2.839   4.466 -0.3573 -1.1660 -0.3631
    2MOL   H723 1485   7.631   2.832   4.689  1.2198 -2.2079  0.0275
    2MOL   C724 1486   7.071   2.824   4.256  0.3571  0.1972  0.1803
    2MOL   C725 1487   7.214   2.874   4.226 -0.3414  0.3308  0.6844
    2MOL   C726 1488   7.282   2.796   4.121  0.1824 -0.0495 -0.1824
    2MOL   C727 1489   7.426   2.848   4.107  1.0131 -0.2671  0.2984
    2MOL   C728 1490   7.282   2.653   4.152  0.1225  0.0054 -0.5517
    2MOL   C729 1491   7.143   2.599   4.162  0.3079 -0.2826  0.4690
    2MOL   C730 1492   7.063   2.671   4.273  0.0633  0.8055  0.0036
    2MOL   C731 1493   6.916   2.625   4.285  0.1134 -0.4303 -0.0741
    2MOL   O732 1494   6.859   2.603   4.158  0.2021 -0.3710 -0.0256
    2MOL   C733 1495   6.747   2.666   4.109  0.6248  0.3224  0.6004
    2MOL   O734 1496   6.710   2.773   4.144  0.8215 -0.2484  0.2174
    2MOL   C735 1497   6.684   2.585   4.001 -0.1660  0.1574 -0.5407
    2MOL   C736 1498   6.763   2.491   3.930  0.0969 -0.7100  0.1502
    2MOL   C737 1499   6.714   2.422   3.818 -0.3574  0.0768  0.5359
    2MOL   C738 1500   6.587   2.456   3.767 -0.4557 -0.4202  0.3577
    2MOL   C739 1501   6.528   2.398   3.642  0.2476  0.2378 -0.6008
    2MOL   O740 1502   6.593   2.318   3.577 -0.4446  0.2707 -0.7083
    2MOL   O741 1503   6.391   2.416   3.631  0.0335 -0.2684 -0.1695
    2MOL   C742 1504   6.509   2.549   3.842 -0.4056 -0.1693 -0.2750
    2MOL   C743 1505   6.554   2.611   3.961  0.1313  0.5901  0.4690
    2MOL   H744 1506   7.005   2.840   4.171  0.7818  0.6247 -0.0702
    2MOL   H745 1507   7.031   2.889   4.334 -0.7021  1.5586 -1.4559
    2MOL   H746 1508   7.269   2.868   4.319  0.4821  1.8502  0.3212
    2MOL   H747 1509   7.209   2.983   4.212  2.7299  0.4306  0.0749
    2MOL   H748 1510   7.232   2.803   4.024 -1.0075 -0.0521  0.4197
    2MOL   H749 1511   7.413   2.953   4.081 -3.9350 -0.6250  0.6901
    2MOL   H750 1512   7.474   2.803   4.020 -1.7488 -0.5050 -1.1886
    2MOL   H751 1513   7.326   2.629   4.249 -0.1062  0.4913 -0.3228
    2MOL   H752 1514   7.346   2.600   4.082 -0.4563 -0.9430 -0.3740
    2MOL   H753 1515   7.091   2.602   4.066  2.4583 -0.9840 -0.7396
    2MOL   H754 1516   7.151   2.495   4.193  0.0439 -0.7184 -0.9062
    2MOL   H755 1517   7.103   2.656   4.373  2.0046  1.5497 -0.6391
    2MOL   H756 1518   6.856   2.684   4.355 -0.3783 -1.1281  0.1065
    2MOL   H757 1519   6.910   2.528   4.334 -0.6138 -0.0491  0.6063
    2MOL   H758 1520   6.856   2.454   3.972 -0.5105 -0.0815  2.0587
    2MOL   H759 1521   6.776   2.352   3.764 -0.9204  0.2011 -0.2866
    2MOL   H760 1522   6.406   2.575   3.819 -0.1370  0.3493 -0.9115
    2MOL   H761 1523   6.489   2.680   4.014  1.2589  2.2919 -0.3003
    2MOL   H762 1524   6.372   2.352   3.564  0.4185  0.9152 -1.4278
    3MOL     C1 1525   2.859   4.377   4.196 -0.3530 -0.3297  0.6955
    3MOL     C2 1526   2.889   4.519   4.145 -0.0370 -0.3324  0.0661
    3MOL     C3 1527   2.757   4.581   4.095 -0.5080  0.0065  0.2881
    3MOL     C4 1528   2.784   4.726   4.050 -0.0650  0.2566  0.2661
    3MOL     C5 1529   2.696   4.501   3.980 -0.7986  0.6994  0.0348
    3MOL     C6 1530   2.658   4.355   4.025 -0.3930 -0.5277  0.5293
    3MOL     C7 1531   2.792   4.297   4.083 -0.0285  0.3711  0.0500
    3MOL     C8 1532   2.774   4.154   4.141 -0.0650  0.5794 -0.4701
    3MOL     O9 1533   2.719   4.060   4.049 -0.4506  0.1656  0.0252
    3MOL    C10 1534   2.690   3.938   4.090 -0.3438  0.4708  0.3367
    3MOL    O11 1535   2.725   3.893   4.200  0.0491  0.6228  0.1811
    3MOL    C12 1536   2.605   3.858   3.995  0.6401  0.1613 -0.7682
    3MOL    C13 1537   2.599   3.723   3.999  0.2405 -0.5656 -0.3823
    3MOL    C14 1538   2.526   3.653   3.902 -0.0475  0.0404 -0.8773
    3MOL    C15 1539   2.453   3.728   3.805 -0.6228 -0.0872  0.3528
    3MOL    C16 1540   2.382   3.665   3.692  0.1483 -0.8950  0.1660
    3MOL    O17 1541   2.358   3.716   3.583 -0.2448 -0.2660  0.0273
    3MOL    O18 1542   2.354   3.536   3.728 -0.3894 -0.5021  0.3427
    3MOL    C19 1543   2.464   3.867   3.802 -0.3226  0.2306  1.0430
    3MOL    C20 1544   2.532   3.936   3.901 -0.7622 -0.7773 -0.6624
    3MOL    H21 1545   2.792   4.391   4.281 -0.5509  2.4083  0.1608
    3MOL    H22 1546   2.946   4.325   4.235 -0.7285 -0.7151  1.0176
    3MOL    H23 1547   2.971   4.514   4.074 -0.0833 -1.1786  0.0702
    3MOL    H24 1548   2.924   4.580   4.228  1.5665  0.7378 -1.3600
    3MOL    H25 1549   2.677   4.588   4.168 -1.0286  0.9180 -0.3577
    3MOL    H26 1550   2.708   4.774   3.988  2.1136  1.0413 -1.9069
    3MOL    H27 1551   2.874   4.745   3.991 -0.2957 -1.0018 -0.5223
    3MOL    H28 1552   2.748   4.498   3.884 -0.0605 -1.6507  0.4845
    3MOL    H29 1553   2.600   4.549   3.961 -1.9235 -1.7709 -0.6317
    3MOL    H30 1554   2.578   4.366   4.098 -0.0532  0.2463  0.7878
    3MOL    H31 1555   2.625   4.288   3.945  0.7355 -2.2752  1.5163
    3MOL    H32 1556   2.862   4.290   4.000 -0.3793  0.6720 -0.2756
    3MOL    H33 1557   2.704   4.156   4.225 -0.8681  2.3416 -1.1616
    3MOL    H34 1558   2.867   4.107   4.173 -0.4201  1.2994  1.7237
    3MOL    H35 1559   2.662   3.669   4.068  0.5176 -0.3042 -0.4338
    3MOL    H36 1560   2.519   3.545   3.900 -1.4105 -0.0042  2.4612
    3MOL    H37 1561   2.408   3.922   3.728 -0.2221 -0.0194  0.7807
    3MOL    H38 1562   2.529   4.044   3.903  2.2646 -0.6223 -2.1099
    3MOL    H39 1563   2.775   4.793   4.135  1.7707  0.0460  0.6657
    3MOL    C40 1564   1.894   3.374   3.731 -0.1416  0.4270 -0.1860
    3MOL    C41 1565   2.042   3.365   3.688  0.2637 -0.3689  0.1963
    3MOL    C42 1566   2.129   3.489   3.699  0.1991 -0.2808  0.5951
    3MOL    C43 1567   2.271   3.458   3.651 -0.2274 -0.2257  0.3819
    3MOL    C44 1568   2.059   3.607   3.624  0.2527  0.2138 -0.1807
    3MOL    C45 1569   1.925   3.630   3.684 -0.4163 -0.7298  0.6026
    3MOL    C46 1570   1.836   3.502   3.669  0.4160 -0.2398  0.6173
    3MOL    C47 1571   1.686   3.518   3.715  0.1459 -0.7760 -0.0383
    3MOL    O48 1572   1.632   3.612   3.627 -0.5405 -0.6261 -0.1800
    3MOL    C49 1573   1.506   3.656   3.627 -0.7383  0.2568 -0.1125
    3MOL    O50 1574   1.423   3.599   3.693  0.2723  0.1413 -0.1343
    3MOL    C51 1575   1.477   3.769   3.541  0.2742  0.1106  0.4200
    3MOL    C52 1576   1.582   3.830   3.472  0.3050 -0.6174 -0.3267
    3MOL    C53 1577   1.557   3.945   3.394  0.0612 -0.3558  0.4944
    3MOL    C54 1578   1.423   3.997   3.378  0.0209 -0.6818 -0.3586
    3MOL    C55 1579   1.402   4.120   3.294  0.6071  0.8941  0.5597
    3MOL    O56 1580   1.299   4.184   3.292 -0.3618 -0.9016 -0.5357
    3MOL    O57 1581   1.511   4.159   3.229 -0.3634 -0.7188 -0.2280
    3MOL    C58 1582   1.318   3.938   3.449 -0.0955  0.8231  0.3028
    3MOL    C59 1583   1.343   3.823   3.530  0.3142  0.1875 -0.4345
    3MOL    H60 1584   1.907   3.384   3.839  0.1150  0.4829 -0.2212
    3MOL    H61 1585   1.832   3.289   3.703  0.9964  0.1504 -1.9433
    3MOL    H62 1586   2.031   3.322   3.589 -0.6977 -3.6147  1.6355
    3MOL    H63 1587   2.089   3.279   3.737 -1.5372 -0.7992  1.2106
    3MOL    H64 1588   2.137   3.507   3.806 -0.5196 -2.0803  0.9704
    3MOL    H65 1589   2.270   3.476   3.544  0.6853  1.9147  0.6854
    3MOL    H66 1590   2.284   3.351   3.663  1.9422  0.1186  1.5091
    3MOL    H67 1591   2.059   3.579   3.519  0.8857 -2.4613  0.4852
    3MOL    H68 1592   2.111   3.701   3.636  0.7594 -0.1203  0.2532
    3MOL    H69 1593   1.920   3.661   3.789  2.0362  3.3545 -0.3793
    3MOL    H70 1594   1.876   3.709   3.627 -1.0897 -1.0563  0.7221
    3MOL    H71 1595   1.823   3.483   3.562  0.9080  0.7751  0.3741
    3MOL    H72 1596   1.680   3.556   3.817 -0.8521  1.3508 -0.8655
    3MOL    H73 1597   1.641   3.419   3.706  1.2363 -1.3746  0.9766
    3MOL    H74 1598   1.682   3.793   3.492  0.0651 -0.9963  0.1687
    3MOL    H75 1599   1.646   3.990   3.354 -0.8683  0.2285 -0.9834
    3MOL    H76 1600   1.218   3.976   3.435 -0.5981 -0.6267 -0.1149
    3MOL    H77 1601   1.267   3.783   3.596  0.7341  1.0982  0.6299
    3MOL    C78 1602   1.500   4.221   2.789  1.2129  0.2216 -0.8449
    3MOL    C79 1603   1.564   4.222   2.931 -0.6769 -0.4209 -0.0343
    3MOL    C80 1604   1.468   4.287   3.034 -0.4371 -1.0894 -0.1540
    3MOL    C81 1605   1.511   4.288   3.180 -0.5772  0.3949 -0.2315
    3MOL    C82 1606   1.437   4.431   2.985 -0.8287 -0.4022 -0.4872
    3MOL    C83 1607   1.376   4.442   2.852  0.4498  0.6305  0.4706
    3MOL    C84 1608   1.458   4.368   2.742  0.1010 -0.2122  0.1568
    3MOL    C85 1609   1.397   4.379   2.603  0.2619 -0.3562  0.4692
    3MOL    O86 1610   1.278   4.312   2.605 -0.1797  0.2592 -0.1320
    3MOL    C87 1611   1.171   4.364   2.539 -0.0689  0.0246  0.0122
    3MOL    O88 1612   1.174   4.468   2.466  0.4315  0.1122  0.0301
    3MOL    C89 1613   1.046   4.298   2.582 -0.0175  0.8005  0.1437
    3MOL    C90 1614   1.047   4.187   2.663  0.1577 -0.1951 -0.2658
    3MOL    C91 1615   0.926   4.128   2.692  0.0699 -0.5351  0.4199
    3MOL    C92 1616   0.803   4.182   2.663  0.0600 -0.4564  0.1695
    3MOL    C93 1617   0.677   4.117   2.711  0.3147 -0.2915 -0.6179
    3MOL    O94 1618   0.655   4.060   2.822 -0.5683 -0.0776 -0.0727
    3MOL    O95 1619   0.576   4.132   2.625  0.1567 -0.6995  0.1309
    3MOL    C96 1620   0.795   4.298   2.586 -0.3505 -0.0030 -0.3097
    3MOL    C97 1621   0.922   4.355   2.543  0.2887 -0.5551 -0.7463
    3MOL    H98 1622   1.415   4.154   2.779  1.0289  0.2818  0.2020
    3MOL    H99 1623   1.579   4.178   2.727  3.0943 -1.0137  2.2528
    3MOL   H100 1624   1.654   4.283   2.919 -0.8857 -0.6364 -2.9310
    3MOL   H101 1625   1.594   4.122   2.961  1.2794  0.0994 -0.1853
    3MOL   H102 1626   1.377   4.228   3.032 -0.8238 -0.4565 -1.5773
    3MOL   H103 1627   1.458   4.365   3.236 -0.7070  0.0990  0.0500
    3MOL   H104 1628   1.615   4.322   3.185 -1.4865  3.3554 -0.2677
    3MOL   H105 1629   1.531   4.486   2.991  0.9402 -3.4773  1.4138
    3MOL   H106 1630   1.379   4.483   3.062  3.3054 -1.0103  3.2673
    3MOL   H107 1631   1.273   4.405   2.847  0.7694 -0.0344 -1.7568
    3MOL   H108 1632   1.381   4.547   2.824 -0.5666  0.3039 -1.0144
    3MOL   H109 1633   1.555   4.416   2.729 -0.1367 -0.2175 -1.8360
    3MOL   H110 1634   1.452   4.332   2.521 -0.3506 -0.1103 -0.0903
    3MOL   H111 1635   1.390   4.484   2.574 -0.8688 -1.0812 -2.0047
    3MOL   H112 1636   1.137   4.135   2.692  1.4805  1.0402 -2.0053
    3MOL   H113 1637   0.934   4.030   2.736  2.4462  0.5199  2.4538
    3MOL   H114 1638   0.703   4.352   2.566 -0.6895 -0.7528 -0.8055
    3MOL   H115 1639   0.903   4.445   2.488 -1.2606 -1.8425 -2.3473
    3MOL   C116 1640   0.292   4.052   2.301  0.3447  0.4959  0.3322
    3MOL   C117 1641   0.395   4.030   2.407  0.1031 -0.1913  0.3221
    3MOL   C118 1642   0.350   4.075   2.545  0.4240  0.1351  0.3098
    3MOL   C119 1643   0.458   4.050   2.649  0.1760 -0.2274 -0.3127
    3MOL   C120 1644   0.304   4.217   2.545 -0.2699 -0.8637 -0.0580
    3MOL   C121 1645   0.201   4.246   2.430 -0.5056 -0.2911 -0.3953
    3MOL   C122 1646   0.249   4.199   2.293 -1.0121 -0.3854  0.3950
    3MOL   C123 1647   0.153   4.230   2.177 -0.1751  0.2396 -0.7222
    3MOL   O124 1648   0.146   4.367   2.135 -0.6008 -0.0415  0.3673
    3MOL   C125 1649   0.044   4.443   2.179  0.5766  0.4846 -0.4508
    3MOL   O126 1650   7.982   4.402   2.239  0.2402  0.5023  0.6870
    3MOL   C127 1651   0.048   4.583   2.122  0.0616  0.2736  0.0446
    3MOL   C128 1652   7.969   4.677   2.139 -0.8340 -0.3362  0.1706
    3MOL   C129 1653   7.982   4.811   2.097  0.3598  0.2302  0.3592
    3MOL   C130 1654   0.062   4.856   2.028 -0.3129 -0.1035  0.2692
    3MOL   C131 1655   0.061   4.994   1.972 -0.7832 -0.0428  0.0662
    3MOL   O132 1656   7.999   5.073   1.983  0.0277 -0.1360  0.2590
    3MOL   O133 1657   0.176   5.020   1.913 -0.4471  0.8114  0.0442
    3MOL   C134 1658   0.164   4.759   1.999 -0.2040  0.0992  0.1812
    3MOL   C135 1659   0.164   4.629   2.049  0.2469  0.7254 -0.4114
    3MOL   H136 1660   0.203   3.994   2.323 -0.3656  0.2240 -3.0215
    3MOL   H137 1661   0.333   4.004   2.213 -0.2899  0.0347  0.2901
    3MOL   H138 1662   0.486   4.080   2.374  1.1655 -1.6421  1.0236
    3MOL   H139 1663   0.426   3.926   2.413  3.5353  0.7576  0.0482
    3MOL   H140 1664   0.264   4.012   2.566  1.8303 -1.4954  1.3436
    3MOL   H141 1665   0.490   3.947   2.659 -1.9665 -0.6160  3.6570
    3MOL   H142 1666   0.407   4.057   2.745 -1.0956 -1.8297 -0.8492
    3MOL   H143 1667   0.389   4.286   2.548 -1.1397  0.2063  0.2080
    3MOL   H144 1668   0.249   4.230   2.639  0.9352  1.3692  0.3610
    3MOL   H145 1669   0.105   4.209   2.465 -0.5352 -1.0019 -1.2231
    3MOL   H146 1670   0.185   4.354   2.430  2.9019  0.2736 -0.3672
    3MOL   H147 1671   0.337   4.254   2.260 -1.8752 -0.3523 -1.9250
    3MOL   H148 1672   0.056   4.186   2.200  0.5018 -1.0536 -0.3157
    3MOL   H149 1673   0.193   4.178   2.090  2.2539  2.5615 -1.0790
    3MOL   H150 1674   7.884   4.635   2.191  1.1483 -3.2540  1.1696
    3MOL   H151 1675   7.902   4.884   2.106  0.1998  0.1910 -0.7109
    3MOL   H152 1676   0.246   4.781   1.932 -1.4654 -0.0355 -1.4316
    3MOL   H153 1677   0.250   4.567   2.030  0.6490  1.3902 -0.7934
    3MOL   C154 1678   0.375   5.479   1.983  0.6431 -0.1888 -0.6659
    3MOL   C155 1679   0.316   5.370   1.889  0.0710  0.1550 -0.1940
    3MOL   C156 1680   0.270   5.244   1.962 -0.0673 -0.6833  0.2175
    3MOL   C157 1681   0.209   5.141   1.859 -0.1715 -0.0240 -0.2945
    3MOL   C158 1682   0.396   5.184   2.037 -0.3769  0.2653 -0.0328
    3MOL   C159 1683   0.459   5.294   2.135 -0.5740 -0.7016 -0.0556
    3MOL   C160 1684   0.496   5.426   2.070  0.3844  0.0662  0.6257
    3MOL   C161 1685   0.540   5.540   2.158  0.6876  0.4759  0.5347
    3MOL   O162 1686   0.642   5.477   2.230  0.1205 -0.4088  0.4060
    3MOL   C163 1687   0.755   5.540   2.272  0.2379  0.2277 -0.0232
    3MOL   O164 1688   0.769   5.663   2.265 -0.5331 -0.2954  0.5306
    3MOL   C165 1689   0.852   5.448   2.334  0.5263  0.2762 -0.2419
    3MOL   C166 1690   0.983   5.497   2.362  0.2274 -0.5544  0.7426
    3MOL   C167 1691   1.086   5.429   2.422  0.6617 -0.5040  0.2890
    3MOL   C168 1692   1.065   5.297   2.456  0.2682 -0.2096 -0.2408
    3MOL   C169 1693   1.173   5.218   2.519 -0.1648  0.1387  0.1969
    3MOL   O170 1694   1.291   5.249   2.505  0.0877  0.4156  0.0915
    3MOL   O171 1695   1.129   5.103   2.575  0.1304  0.0719  0.0313
    3MOL   C172 1696   0.943   5.238   2.431  0.5957 -0.3607  0.4273
    3MOL   C173 1697   0.838   5.309   2.360 -0.1688  0.8564  0.0467
    3MOL   H174 1698   0.291   5.507   2.047 -0.1150 -0.8847 -1.3458
    3MOL   H175 1699   0.421   5.552   1.917  1.3193  0.3413  0.3704
    3MOL   H176 1700   0.398   5.335   1.826 -1.7295 -1.3371 -1.7605
    3MOL   H177 1701   0.246   5.415   1.818  0.1853 -0.5616 -0.7649
    3MOL   H178 1702   0.187   5.255   2.031 -1.0327  1.5944 -1.2372
    3MOL   H179 1703   0.271   5.122   1.771 -1.0618  0.4459 -1.0432
    3MOL   H180 1704   0.117   5.188   1.823 -0.1298  0.8698  0.7437
    3MOL   H181 1705   0.477   5.163   1.967 -0.2361  1.2940 -0.1880
    3MOL   H182 1706   0.373   5.092   2.090 -0.5922  0.6264  0.5125
    3MOL   H183 1707   0.377   5.327   2.198  0.2031  1.6341 -0.2260
    3MOL   H184 1708   0.547   5.255   2.187 -0.1086 -0.0315 -0.3339
    3MOL   H185 1709   0.570   5.391   1.998 -1.3572 -0.5353 -0.9006
    3MOL   H186 1710   0.462   5.573   2.227  0.5347 -0.1605  0.6712
    3MOL   H187 1711   0.590   5.609   2.090  0.1703 -1.1311 -1.5466
    3MOL   H188 1712   0.997   5.601   2.338  2.5440 -1.1383 -0.5958
    3MOL   H189 1713   1.173   5.485   2.451 -0.2736  1.1503 -0.0013
    3MOL   H190 1714   0.933   5.131   2.445 -0.9478 -0.4169 -0.8940
    3MOL   H191 1715   0.741   5.264   2.345  0.4079  0.0825 -1.4534
    3MOL   C192 1716   1.135   4.715   2.876  0.3701  0.3943  0.0290
    3MOL   C193 1717   1.232   4.799   2.785 -0.1688 -0.8032  0.4686
    3MOL   C194 1718   1.144   4.904   2.705 -0.2097  0.0535 -0.2199
    3MOL   C195 1719   1.220   5.007   2.627 -0.2418 -0.0110  0.2154
    3MOL   C196 1720   1.044   4.825   2.621  0.4152  0.2951 -0.1709
    3MOL   C197 1721   0.963   4.729   2.699 -1.3724 -0.6363 -0.1919
    3MOL   C198 1722   1.040   4.637   2.784  0.1952  0.2915 -0.5385
    3MOL   C199 1723   0.936   4.552   2.860  0.0031  0.1333 -0.3452
    3MOL   O200 1724   0.982   4.436   2.929 -0.6352  0.0542 -0.0694
    3MOL   C201 1725   0.887   4.352   2.974  0.7487  0.4750 -0.3775
    3MOL   O202 1726   0.767   4.379   2.962 -0.4803  0.4154 -0.2028
    3MOL   C203 1727   0.944   4.225   3.033  0.1601 -0.5403  0.4656
    3MOL   C204 1728   1.078   4.173   3.009  0.4331 -0.1374  0.2733
    3MOL   C205 1729   1.122   4.055   3.062 -0.0434  0.6050  1.0098
    3MOL   C206 1730   1.035   3.967   3.132 -1.0005 -0.5273 -0.3278
    3MOL   C207 1731   1.095   3.846   3.192  0.0048  0.5091  0.0687
    3MOL   O208 1732   1.205   3.802   3.159  0.1976 -0.4593  0.0337
    3MOL   O209 1733   1.017   3.780   3.281 -0.5764 -0.0330 -0.0290
    3MOL   C210 1734   0.900   4.009   3.146  0.2996 -0.1885  0.1327
    3MOL   C211 1735   0.858   4.133   3.093  0.0140 -0.2998  0.3411
    3MOL   H212 1736   1.088   4.784   2.946  0.8009  1.0975 -0.3647
    3MOL   H213 1737   1.192   4.652   2.944  1.4836  1.5725  0.2196
    3MOL   H214 1738   1.289   4.736   2.717 -0.4065 -1.1300  0.5682
    3MOL   H215 1739   1.308   4.847   2.847 -0.5245 -0.0055  0.2952
    3MOL   H216 1740   1.079   4.965   2.769 -0.3323  0.5489 -0.8136
    3MOL   H217 1741   1.273   4.952   2.550  0.2317 -0.6514  0.9957
    3MOL   H218 1742   1.288   5.054   2.698  2.0541 -2.1664 -0.5128
    3MOL   H219 1743   1.100   4.771   2.544 -0.0657 -1.1626  0.4886
    3MOL   H220 1744   0.980   4.889   2.561  1.8547  0.9268 -1.0759
    3MOL   H221 1745   0.891   4.793   2.750 -0.0514  0.5135  0.2606
    3MOL   H222 1746   0.901   4.674   2.627  0.7321 -3.8584  0.3983
    3MOL   H223 1747   1.091   4.566   2.718  0.8079  0.1748  0.0494
    3MOL   H224 1748   0.867   4.512   2.786  0.7481 -1.6098 -0.1262
    3MOL   H225 1749   0.883   4.619   2.927 -0.7288 -1.9219  1.1586
    3MOL   H226 1750   1.148   4.233   2.953  0.2795  0.6689  0.9246
    3MOL   H227 1751   1.226   4.029   3.049 -0.0071  3.1549 -5.7223
    3MOL   H228 1752   0.827   3.955   3.204 -0.5151  0.7471 -0.0189
    3MOL   H229 1753   0.752   4.156   3.101  0.0726  0.9853 -2.2303
    3MOL   C230 1754   1.017   3.503   3.699 -0.0665 -0.0169 -0.8859
    3MOL   C231 1755   1.070   3.539   3.565 -0.3407 -0.0489 -0.2647
    3MOL   C232 1756   0.999   3.650   3.487  0.0015  0.4386  0.2785
    3MOL   C233 1757   1.069   3.665   3.354  0.4113 -0.1008 -0.0097
    3MOL   C234 1758   0.847   3.624   3.488  0.1378 -0.7279  1.1173
    3MOL   C235 1759   0.787   3.588   3.623 -0.9675 -0.0598  0.2183
    3MOL   C236 1760   0.866   3.472   3.694 -0.3252 -0.5720  0.2946
    3MOL   C237 1761   0.800   3.428   3.832 -0.1201 -0.2293  0.7013
    3MOL   O238 1762   0.761   3.541   3.901 -0.3056  0.2313 -0.3933
    3MOL   C239 1763   0.726   3.541   4.024  0.1226 -0.4329  0.0050
    3MOL   O240 1764   0.747   3.449   4.101  0.0334  1.4391  0.2066
    3MOL   C241 1765   0.678   3.676   4.065  0.1026 -0.7140  0.1750
    3MOL   C242 1766   0.668   3.787   3.970 -0.0500 -0.3086 -0.1289
    3MOL   C243 1767   0.633   3.916   4.010 -0.9152  0.1802  1.0480
    3MOL   C244 1768   0.586   3.937   4.141  0.2686 -0.0354  0.3278
    3MOL   C245 1769   0.539   4.069   4.183 -0.2108 -0.5417  0.2568
    3MOL   O246 1770   0.474   4.087   4.281  0.6832 -0.0364 -0.1289
    3MOL   O247 1771   0.569   4.171   4.089 -0.4407 -0.5559 -0.0209
    3MOL   C248 1772   0.599   3.829   4.233 -0.1546 -0.7066  0.7918
    3MOL   C249 1773   0.644   3.699   4.200  0.1563  0.4980  0.3790
    3MOL   H250 1774   1.034   3.590   3.763  0.6295  0.2127 -1.3786
    3MOL   H251 1775   1.071   3.421   3.747 -1.7424 -0.4614  0.3081
    3MOL   H252 1776   1.063   3.454   3.497 -2.1821  0.5727 -0.8664
    3MOL   H253 1777   1.176   3.566   3.573  0.1256 -1.5871 -1.0134
    3MOL   H254 1778   1.019   3.746   3.534 -0.0932  1.5574 -1.8837
    3MOL   H255 1779   1.055   3.584   3.282 -0.8608 -1.5762  1.8366
    3MOL   H256 1780   1.175   3.671   3.378  0.3882  0.6711 -0.1125
    3MOL   H257 1781   0.819   3.540   3.426 -1.6113  0.5591  0.1271
    3MOL   H258 1782   0.795   3.713   3.452 -0.4360 -2.3571 -2.2771
    3MOL   H259 1783   0.785   3.678   3.684  0.2347 -2.1056  3.3524
    3MOL   H260 1784   0.679   3.572   3.618 -0.6882 -2.2524  0.5988
    3MOL   H261 1785   0.858   3.386   3.627 -0.0293 -0.0862 -0.3723
    3MOL   H262 1786   0.879   3.370   3.881  0.4795 -0.1871 -0.1946
    3MOL   H263 1787   0.712   3.370   3.803 -0.3206  0.7499 -0.6881
    3MOL   H264 1788   0.699   3.772   3.868  1.6670  0.7144  0.2158
    3MOL   H265 1789   0.625   3.997   3.938  1.7240 -1.4262 -1.1370
    3MOL   H266 1790   0.578   3.859   4.335 -2.2010  1.2450 -0.1678
    3MOL   H267 1791   0.660   3.616   4.267 -0.8278  0.4401  0.5475
    3MOL   C268 1792   0.636   4.487   3.775  0.1286 -0.0816 -0.3175
    3MOL   C269 1793   0.560   4.381   3.858  0.0415 -0.5129 -0.3748
    3MOL   C270 1794   0.579   4.402   4.009 -0.7465 -0.4479 -0.3081
    3MOL   C271 1795   0.499   4.294   4.083 -0.6419 -0.1255  0.0296
    3MOL   C272 1796   0.721   4.414   4.069 -1.2476  0.1034  0.2480
    3MOL   C273 1797   0.796   4.515   3.979 -0.4845 -0.3362 -0.1638
    3MOL   C274 1798   0.781   4.493   3.822 -0.1560  0.5074  0.3797
    3MOL   C275 1799   0.851   4.606   3.748  0.2148 -0.1672 -0.1083
    3MOL   O276 1800   0.989   4.601   3.769  0.4733  0.3256  0.2409
    3MOL   C277 1801   1.057   4.702   3.817 -0.3985  0.4534 -0.0277
    3MOL   O278 1802   1.016   4.809   3.846  0.3305 -0.3884 -0.4140
    3MOL   C279 1803   1.206   4.678   3.815 -0.1736 -0.6566  0.3343
    3MOL   C280 1804   1.267   4.547   3.808  0.0374 -0.1348  0.9689
    3MOL   C281 1805   1.412   4.540   3.807 -0.1965  0.2813 -0.0447
    3MOL   C282 1806   1.495   4.652   3.808  0.2809  0.1081 -0.1867
    3MOL   C283 1807   1.642   4.639   3.823  0.3451  0.1445 -0.5526
    3MOL   O284 1808   1.703   4.535   3.841 -0.6111 -0.4476  0.3525
    3MOL   O285 1809   1.701   4.767   3.818  0.5364  0.2707 -0.1835
    3MOL   C286 1810   1.428   4.779   3.811 -0.0873 -0.6769  0.1094
    3MOL   C287 1811   1.289   4.792   3.816  0.1881  0.9968  0.3497
    3MOL   H288 1812   0.576   4.578   3.785  0.0405 -0.1848  0.0895
    3MOL   H289 1813   0.631   4.478   3.666  0.0952  1.5035 -0.4546
    3MOL   H290 1814   0.599   4.282   3.836 -0.5142 -1.0565  1.0213
    3MOL   H291 1815   0.454   4.387   3.834 -0.2801  1.1680  1.3060
    3MOL   H292 1816   0.532   4.497   4.036  1.3296  0.5028  0.0695
    3MOL   H293 1817   0.394   4.290   4.054 -0.4217 -0.1784 -0.7791
    3MOL   H294 1818   0.486   4.323   4.187 -3.8287  0.2827 -0.4440
    3MOL   H295 1819   0.769   4.317   4.057 -2.1179 -0.5862  2.0506
    3MOL   H296 1820   0.721   4.436   4.176  1.0088  1.7783 -0.0618
    3MOL   H297 1821   0.769   4.614   4.016  1.3318  0.4965 -0.9997
    3MOL   H298 1822   0.903   4.510   4.001 -0.4108  1.6939  0.0320
    3MOL   H299 1823   0.824   4.397   3.795 -1.2613 -0.2098  1.1173
    3MOL   H300 1824   0.805   4.703   3.770 -1.4020 -1.2222  1.3459
    3MOL   H301 1825   0.821   4.582   3.646 -0.5667  0.0505  0.0616
    3MOL   H302 1826   1.202   4.460   3.811 -0.9047  0.5979  1.8389
    3MOL   H303 1827   1.458   4.443   3.814 -0.8370  0.1124  2.3327
    3MOL   H304 1828   1.481   4.872   3.827 -0.9494 -0.0223 -0.7395
    3MOL   H305 1829   1.240   4.887   3.826 -1.7309  0.1119 -0.4819
    3MOL   C306 1830   1.920   5.089   3.626 -0.6681 -0.2577 -0.4796
    3MOL   C307 1831   1.890   4.939   3.661 -0.3060 -0.0022  0.5080
    3MOL   C308 1832   1.889   4.915   3.806 -0.3333 -0.5864  0.7068
    3MOL   C309 1833   1.839   4.771   3.845 -0.0950  0.8065 -0.0605
    3MOL   C310 1834   2.025   4.956   3.865 -0.0489  0.5775 -0.4191
    3MOL   C311 1835   2.065   5.104   3.828 -0.1586 -0.3527  0.3107
    3MOL   C312 1836   2.056   5.135   3.680  0.9835  0.3948 -0.0293
    3MOL   C313 1837   2.075   5.286   3.647 -0.0465 -0.1814 -0.1031
    3MOL   O314 1838   1.977   5.369   3.699  0.3378 -0.1094  0.2159
    3MOL   C315 1839   1.983   5.497   3.669 -0.6048 -0.8283  0.0911
    3MOL   O316 1840   2.081   5.540   3.609 -0.5236  0.2920 -0.3757
    3MOL   C317 1841   1.860   5.576   3.708  0.2455 -0.1017 -0.6743
    3MOL   C318 1842   1.775   5.543   3.816  0.9398  0.5192  0.1564
    3MOL   C319 1843   1.656   5.617   3.842 -0.3331 -0.0495 -0.4724
    3MOL   C320 1844   1.620   5.723   3.750 -0.4649  0.2257 -0.7199
    3MOL   C321 1845   1.494   5.802   3.774 -0.5372 -0.2092  0.0064
    3MOL   O322 1846   1.465   5.906   3.715 -0.5364 -0.4326  0.3602
    3MOL   O323 1847   1.416   5.739   3.873 -0.1879  0.6992 -0.4375
    3MOL   C324 1848   1.714   5.757   3.648  0.7695  0.1316  0.4467
    3MOL   C325 1849   1.830   5.685   3.635  0.4091  0.0376  0.0807
    3MOL   H326 1850   1.839   5.153   3.662 -1.5248 -1.0425 -0.9587
    3MOL   H327 1851   1.914   5.099   3.518  2.2408  1.4217 -0.5184
    3MOL   H328 1852   1.971   4.879   3.619  0.7996  1.7668  0.0801
    3MOL   H329 1853   1.801   4.895   3.616 -0.4658 -0.4028  1.2160
    3MOL   H330 1854   1.815   4.989   3.836  2.7561  3.0353 -0.2129
    3MOL   H331 1855   1.855   4.769   3.953  0.5638 -1.6979 -0.1660
    3MOL   H332 1856   1.904   4.696   3.799 -2.8866 -1.8569  0.2166
    3MOL   H333 1857   2.108   4.896   3.826  0.3749 -0.0883  1.4480
    3MOL   H334 1858   2.018   4.928   3.970  0.7181 -1.3025 -0.8450
    3MOL   H335 1859   2.007   5.172   3.891 -1.3348  1.3604 -2.5396
    3MOL   H336 1860   2.166   5.117   3.869 -0.3255  1.2027  0.2711
    3MOL   H337 1861   2.139   5.083   3.632  2.5095  1.0590  1.8039
    3MOL   H338 1862   2.095   5.303   3.541  3.7171 -1.9170  0.2837
    3MOL   H339 1863   2.172   5.299   3.695  0.6614 -3.5718 -0.5240
    3MOL   H340 1864   1.801   5.460   3.879 -1.8796 -0.5197 -0.0011
    3MOL   H341 1865   1.594   5.596   3.928  0.1044  0.8128  0.0647
    3MOL   H342 1866   1.696   5.834   3.574  1.2191 -1.2272 -1.1088
    3MOL   H343 1867   1.897   5.716   3.557  0.2868  3.1770  1.1548
    3MOL   C344 1868   1.013   5.670   4.151  0.0502  0.1796  0.1128
    3MOL   C345 1869   1.060   5.753   4.033  0.2407 -0.6134  0.1170
    3MOL   C346 1870   1.219   5.748   4.023  0.0223  0.4534 -0.0728
    3MOL   C347 1871   1.288   5.799   3.894  0.3291 -0.3750  0.0962
    3MOL   C348 1872   1.262   5.827   4.146 -0.4195 -0.0819  0.3505
    3MOL   C349 1873   1.209   5.762   4.273 -0.5871 -0.1211  0.0601
    3MOL   C350 1874   1.065   5.736   4.284 -0.1998  0.0960  0.2965
    3MOL   C351 1875   1.032   5.647   4.405  0.2326  0.5094 -0.9713
    3MOL   O352 1876   0.893   5.612   4.432  0.2487  0.0255 -0.0337
    3MOL   C353 1877   0.859   5.492   4.488  0.1696 -0.6055  0.4754
    3MOL   O354 1878   0.941   5.409   4.505 -0.6489 -0.0276  0.0885
    3MOL   C355 1879   0.716   5.478   4.520 -0.7716  0.8773  0.1144
    3MOL   C356 1880   0.655   5.349   4.550 -0.1402  0.4530 -0.0046
    3MOL   C357 1881   0.519   5.347   4.586  0.3581  0.2142  0.8465
    3MOL   C358 1882   0.447   5.471   4.599 -0.5374 -0.6805  0.6316
    3MOL   C359 1883   0.302   5.463   4.645 -0.7458 -0.2449  0.0426
    3MOL   O360 1884   0.222   5.552   4.616  0.1766 -0.0456  0.2366
    3MOL   O361 1885   0.264   5.353   4.708 -0.1370 -0.0892 -0.3970
    3MOL   C362 1886   0.505   5.591   4.562  0.6354  0.1952  0.1590
    3MOL   C363 1887   0.640   5.596   4.525 -0.0364  0.8394  0.7256
    3MOL   H364 1888   1.063   5.573   4.146 -0.1036  0.1405 -0.7857
    3MOL   H365 1889   0.905   5.655   4.152 -0.0654  1.0096 -0.3778
    3MOL   H366 1890   1.024   5.855   4.045 -4.8071 -2.4402  1.7030
    3MOL   H367 1891   1.013   5.711   3.943 -0.9340 -1.6430  1.1830
    3MOL   H368 1892   1.248   5.644   4.040  1.2976  1.4569  4.7102
    3MOL   H369 1893   1.303   5.904   3.915  0.0335 -0.3589  0.2371
    3MOL   H370 1894   1.215   5.812   3.814  2.2057  3.6968 -1.0544
    3MOL   H371 1895   1.220   5.928   4.138 -0.6133 -0.2234 -0.4605
    3MOL   H372 1896   1.370   5.832   4.148 -0.3682 -0.9145  0.0119
    3MOL   H373 1897   1.258   5.668   4.299 -1.4883 -0.5969  0.0553
    3MOL   H374 1898   1.233   5.835   4.351 -2.9077 -0.2149  0.8849
    3MOL   H375 1899   1.011   5.827   4.309  0.2348  0.6716 -0.8318
    3MOL   H376 1900   1.071   5.684   4.500 -1.0778 -0.0287 -0.2202
    3MOL   H377 1901   1.079   5.550   4.387  0.0159  0.4123 -1.0046
    3MOL   H378 1902   0.714   5.259   4.538 -0.5956  0.1522  0.0148
    3MOL   H379 1903   0.488   5.248   4.616  1.3131 -0.3936 -0.1862
    3MOL   H380 1904   0.445   5.680   4.554  2.2932  1.2141 -1.4731
    3MOL   H381 1905   0.684   5.690   4.494  0.7871  0.9873  2.3110
    3MOL   C382 1906   7.917   5.141   4.563  0.4969 -0.3002 -0.2501
    3MOL   C383 1907   8.003   5.253   4.614  0.3565  0.2460 -0.2822
    3MOL   C384 1908   0.057   5.220   4.739  0.3819 -0.3070 -0.5784
    3MOL   C385 1909   0.146   5.335   4.781  0.2255 -0.5095 -0.2798
    3MOL   C386 1910   7.995   5.175   4.854  0.8257  0.5728 -0.1406
    3MOL   C387 1911   7.890   5.072   4.805 -0.0462  0.1060 -0.1923
    3MOL   C388 1912   7.809   5.102   4.673 -0.6502 -0.3806 -0.1957
    3MOL   C389 1913   7.722   4.984   4.634  0.5115  0.0534  0.8609
    3MOL   O390 1914   7.800   4.873   4.617 -0.4993 -0.5025 -0.3927
    3MOL   C391 1915   7.749   4.768   4.545  1.1119 -0.5782 -0.3020
    3MOL   O392 1916   7.628   4.761   4.503  0.2163 -0.5317  0.2795
    3MOL   C393 1917   7.858   4.673   4.510 -0.2458 -0.2878  0.0633
    3MOL   C394 1918   7.826   4.547   4.466 -0.2907  0.0067 -0.4342
    3MOL   C395 1919   7.926   4.460   4.414 -0.9374  0.2210 -0.6100
    3MOL   C396 1920   0.029   4.493   4.418  0.2144  0.0562  0.1220
    3MOL   C397 1921   0.132   4.394   4.372  0.3407  0.0804  0.0471
    3MOL   O398 1922   0.245   4.423   4.333  0.5260  0.3146 -0.5476
    3MOL   O399 1923   0.093   4.272   4.390 -0.1680  0.3573 -0.3314
    3MOL   C400 1924   0.064   4.621   4.479 -0.2561  0.3491 -0.0696
    3MOL   C401 1925   7.995   4.709   4.524  0.3177  0.2837  0.5707
    3MOL   H402 1926   7.975   5.059   4.522  1.4108  0.4930 -0.5772
    3MOL   H403 1927   7.865   5.187   4.479  0.1739  0.2578  0.2481
    3MOL   H404 1928   7.946   5.345   4.628 -1.5513 -1.3424  2.9060
    3MOL   H405 1929   0.038   5.290   4.536 -0.6947  1.6598 -0.5357
    3MOL   H406 1930   0.120   5.135   4.715  1.2345  0.6505 -1.8043
    3MOL   H407 1931   0.177   5.319   4.884  0.1358 -0.1563 -0.1949
    3MOL   H408 1932   0.091   5.429   4.785  0.0900 -0.4120 -3.5769
    3MOL   H409 1933   7.935   5.259   4.886  0.0946 -0.0391  0.1138
    3MOL   H410 1934   0.022   5.150   4.942 -0.1533  1.2438  0.7056
    3MOL   H411 1935   7.949   4.981   4.791  0.8380  0.4656  1.1271
    3MOL   H412 1936   7.820   5.047   4.885  0.5712  1.2430  0.7121
    3MOL   H413 1937   7.750   5.192   4.689 -0.4442 -0.1102 -0.9429
    3MOL   H414 1938   7.679   5.010   4.538  1.9349  1.5607  0.6140
    3MOL   H415 1939   7.639   4.964   4.703 -0.1822 -0.4358 -0.0992
    3MOL   H416 1940   7.721   4.524   4.458 -0.9706  1.8446  2.3862
    3MOL   H417 1941   7.898   4.369   4.364 -1.5422  0.0674 -0.0050
    3MOL   H418 1942   0.168   4.647   4.485 -0.3164  1.3863 -2.8780
    3MOL   H419 1943   8.025   4.808   4.557  1.1182  0.7242 -1.4371
    3MOL   C420 1944   7.940   3.887   4.447  0.4853 -0.3307  0.1484
    3MOL   C421 1945   8.017   4.023   4.460 -0.1198  0.6878  0.5596
    3MOL   C422 1946   0.098   4.026   4.357 -0.5620  0.0003 -0.2778
    3MOL   C423 1947   0.176   4.156   4.365  0.6058 -0.2982  0.3595
    3MOL   C424 1948   0.193   3.896   4.383 -0.5442  0.6313 -0.1728
    3MOL   C425 1949   0.118   3.766   4.383 -0.0287  0.2363  0.8989
    3MOL   C426 1950   0.002   3.775   4.485 -0.2771  0.1279  0.3894
    3MOL   C427 1951   7.964   3.635   4.506  0.1279  0.0153 -0.2183
    3MOL   O428 1952   8.027   3.540   4.597  0.0670  0.4879  0.2358
    3MOL   C429 1953   7.973   3.443   4.660 -0.4146 -0.6491 -0.2553
    3MOL   O430 1954   7.854   3.401   4.646  0.3016 -0.0632  0.0201
    3MOL   C431 1955   0.033   3.391   4.770 -0.2784  0.2832  0.1761
    3MOL   C432 1956   8.017   3.296   4.864  0.0314 -0.3012 -0.3435
    3MOL   C433 1957   0.067   3.257   4.973 -0.1206 -0.9210  0.1211
    3MOL   C434 1958   0.196   3.306   4.980 -0.1628  1.2911 -0.0189
    3MOL   C435 1959   0.290   3.262   5.079  0.0523 -0.1154 -0.4222
    3MOL   O436 1960   0.253   3.201   5.181 -0.5059 -0.3028 -0.0312
    3MOL   O437 1961   0.424   3.291   5.046  0.3426 -0.3716  0.1573
    3MOL   C438 1962   0.246   3.400   4.885  0.8552  0.1528 -0.5106
    3MOL   C439 1963   0.159   3.444   4.782  0.0406  0.3131 -0.7351
    3MOL   H440 1964   7.906   3.867   4.346 -1.6455  0.0302  0.7834
    3MOL   H441 1965   7.852   3.902   4.510  0.4903 -0.2688  0.1410
    3MOL   H442 1966   0.012   4.049   4.563 -2.0494 -0.5761  1.4152
    3MOL   H443 1967   7.934   4.083   4.425 -0.4146 -0.1990 -0.2814
    3MOL   H444 1968   0.057   3.997   4.260 -0.2630 -1.3000 -0.0289
    3MOL   H445 1969   0.211   4.166   4.262 -0.8120  2.3820  0.0808
    3MOL   H446 1970   0.263   4.160   4.431  0.6017  2.8164  0.2729
    3MOL   H447 1971   0.226   3.917   4.484  0.4979  2.3826 -0.8479
    3MOL   H448 1972   0.280   3.900   4.318 -2.0923 -0.2995 -2.3780
    3MOL   H449 1973   0.078   3.743   4.284  4.0353  0.0244 -0.7661
    3MOL   H450 1974   0.187   3.687   4.411  0.9273 -0.1631 -2.3801
    3MOL   H451 1975   0.046   3.796   4.582  1.0313 -0.4598 -0.0592
    3MOL   H452 1976   7.949   3.584   4.411  0.0697 -0.3882  0.0069
    3MOL   H453 1977   7.865   3.659   4.546 -0.5654 -0.3688 -1.6641
    3MOL   H454 1978   7.911   3.277   4.859 -0.4091  1.4231  1.5583
    3MOL   H455 1979   0.041   3.181   5.044 -0.0717  0.5921  1.7922
    3MOL   H456 1980   0.346   3.440   4.895 -0.0259  2.1348  0.7182
    3MOL   H457 1981   0.198   3.517   4.711  0.1397  2.4345  1.4302
    3MOL   C458 1982   0.915   3.304   5.106  0.4509  0.2680 -0.3375
    3MOL   C459 1983   0.781   3.235   5.144 -0.4128  0.1785  0.1597
    3MOL   C460 1984   0.656   3.309   5.102  0.0348 -0.6374 -0.6490
    3MOL   C461 1985   0.527   3.230   5.123  0.1579 -0.5532  0.2081
    3MOL   C462 1986   0.664   3.454   5.159 -1.2993  0.0312 -0.7236
    3MOL   C463 1987   0.785   3.529   5.096 -0.3296 -0.7431  0.9287
    3MOL   C464 1988   0.924   3.460   5.126  0.4613 -0.1757  0.4981
    3MOL   C465 1989   1.034   3.520   5.036  0.0178  0.5131  0.1481
    3MOL   O466 1990   1.061   3.651   5.068  0.3302  0.3266 -0.6442
    3MOL   C467 1991   1.162   3.709   5.012 -0.3620  0.0616  0.5846
    3MOL   O468 1992   1.225   3.660   4.917  0.2886  0.5664  0.7295
    3MOL   C469 1993   1.189   3.846   5.068 -0.4038 -0.1429 -0.5937
    3MOL   C470 1994   1.309   3.914   5.040  1.5712  0.1969  0.9157
    3MOL   C471 1995   1.332   4.042   5.087 -0.7711  0.3808 -0.1161
    3MOL   C472 1996   1.236   4.106   5.171  0.5918 -0.3044 -0.3220
    3MOL   C473 1997   1.260   4.245   5.223 -0.4968 -0.6794 -0.0351
    3MOL   O474 1998   1.347   4.323   5.181 -0.1532 -0.4844 -0.0697
    3MOL   O475 1999   1.164   4.283   5.297 -0.3699  0.0205 -0.2262
    3MOL   C476 2000   1.116   4.036   5.196 -0.1736 -0.1272  0.5665
    3MOL   C477 2001   1.097   3.905   5.153 -0.5679  0.6639  0.4522
    3MOL   H478 2002   0.946   3.287   5.003  0.2159  1.2819 -0.5832
    3MOL   H479 2003   0.982   3.241   5.164 -0.9691 -1.2089 -0.2850
    3MOL   H480 2004   0.791   3.214   5.250  1.9060 -1.3533 -0.3307
    3MOL   H481 2005   0.778   3.140   5.090  0.8641  1.3803 -2.0866
    3MOL   H482 2006   0.668   3.316   4.994  0.8080 -1.4779 -0.6213
    3MOL   H483 2007   0.491   3.231   5.226 -1.4086  0.0686 -0.3300
    3MOL   H484 2008   0.533   3.129   5.083 -0.9199 -1.0935  1.3836
    3MOL   H485 2009   0.678   3.454   5.267  0.1173  0.8147 -0.8954
    3MOL   H486 2010   0.575   3.512   5.133 -1.6956  1.3807  3.3051
    3MOL   H487 2011   0.782   3.524   4.987  1.4212 -0.8161  0.8605
    3MOL   H488 2012   0.791   3.636   5.118  1.8819 -0.5901 -0.2668
    3MOL   H489 2013   0.954   3.476   5.230  0.7254 -0.1161  0.4151
    3MOL   H490 2014   1.007   3.507   4.931  0.2610 -1.3059  0.2852
    3MOL   H491 2015   1.121   3.454   5.040  0.7673  1.3787 -1.3837
    3MOL   H492 2016   1.379   3.877   4.967  1.0199  0.1523  0.4037
    3MOL   H493 2017   1.421   4.097   5.060 -0.4015  0.6833  1.6842
    3MOL   H494 2018   1.034   4.084   5.249  1.2877  0.5005  2.3005
    3MOL   H495 2019   1.004   3.860   5.183  0.2614 -1.3028  0.1634
    3MOL   C496 2020   0.875   4.374   5.629 -0.0411 -0.7013  0.3189
    3MOL   C497 2021   1.005   4.337   5.561  0.0207 -0.2953  0.3078
    3MOL   C498 2022   1.040   4.434   5.438 -0.0863  0.4342 -0.3050
    3MOL   C499 2023   1.175   4.406   5.373 -0.0324 -0.5828 -0.7007
    3MOL   C500 2024   0.915   4.433   5.340 -0.5300  0.0840  0.3430
    3MOL   C501 2025   0.802   4.493   5.422 -0.6025 -0.2052 -0.1658
    3MOL   C502 2026   0.751   4.411   5.541  0.1649  0.3282  0.7000
    3MOL   C503 2027   0.633   4.474   5.622 -0.0510  0.5530 -0.2625
    3MOL   O504 2028   0.510   4.446   5.556 -0.5264  0.1885 -0.0877
    3MOL   C505 2029   0.423   4.356   5.602 -0.1811 -0.1155  0.6024
    3MOL   O506 2030   0.447   4.279   5.689 -0.2612  0.2784 -0.1331
    3MOL   C507 2031   0.297   4.352   5.515 -0.5056 -0.1208 -0.0272
    3MOL   C508 2032   0.213   4.248   5.513 -0.5838  0.6644 -0.4921
    3MOL   C509 2033   0.104   4.229   5.429 -0.0259 -0.1305  0.1957
    3MOL   C510 2034   0.080   4.326   5.334 -0.7334  0.3181 -0.6212
    3MOL   C511 2035   8.002   4.312   5.236 -0.1491  0.7636 -0.4266
    3MOL   O512 2036   7.982   4.391   5.142  0.0247  0.0711 -0.0071
    3MOL   O513 2037   7.919   4.209   5.255 -0.2058 -0.1242 -0.6483
    3MOL   C514 2038   0.171   4.435   5.321 -0.3547 -0.3061  0.8131
    3MOL   C515 2039   0.273   4.452   5.414 -0.5351 -0.0224 -0.9679
    3MOL   H516 2040   0.890   4.442   5.713  1.0699 -0.4239 -0.0967
    3MOL   H517 2041   0.838   4.287   5.683  1.0907 -1.6847 -0.4703
    3MOL   H518 2042   0.986   4.236   5.524  0.0609  0.1738 -1.0262
    3MOL   H519 2043   1.087   4.337   5.633  1.4952 -2.4728 -1.2857
    3MOL   H520 2044   1.061   4.530   5.485  2.3218  0.0866 -0.6334
    3MOL   H521 2045   1.247   4.398   5.455  0.4718 -1.3097 -1.2141
    3MOL   H522 2046   1.190   4.488   5.304  0.9432 -0.6870 -0.6262
    3MOL   H523 2047   0.894   4.334   5.300  1.1247 -0.4982  0.8738
    3MOL   H524 2048   0.946   4.495   5.257  2.1138 -0.0360  1.1934
    3MOL   H525 2049   0.838   4.591   5.453 -0.1999 -0.5777  0.5520
    3MOL   H526 2050   0.714   4.515   5.362 -1.2269  0.5523  1.0154
    3MOL   H527 2051   0.711   4.326   5.485  1.1248  0.6575 -0.5016
    3MOL   H528 2052   0.644   4.583   5.629  0.8400  0.5188 -1.0164
    3MOL   H529 2053   0.626   4.430   5.721  4.1460 -1.3211 -0.6792
    3MOL   H530 2054   0.237   4.162   5.573 -2.7726  0.0423 -0.4598
    3MOL   H531 2055   0.037   4.146   5.448  1.2590 -0.7661  2.0495
    3MOL   H532 2056   0.155   4.508   5.242 -2.1608  0.5009  1.8828
    3MOL   H533 2057   0.337   4.534   5.385 -1.0418  0.4727 -0.7019
    3MOL   C534 2058   7.739   3.835   5.316  0.0024  0.3610  0.6610
    3MOL   C535 2059   7.825   3.945   5.249  0.3281 -0.0908  0.2076
    3MOL   C536 2060   7.735   4.066   5.212  0.7057 -0.1322 -0.0247
    3MOL   C537 2061   7.810   4.188   5.160  0.3528 -0.1341 -0.5722
    3MOL   C538 2062   7.614   4.022   5.129 -0.2169 -0.4198  0.0412
    3MOL   C539 2063   7.533   3.908   5.197  0.2503  0.6214  0.1131
    3MOL   C540 2064   7.626   3.792   5.225 -0.0091 -0.0744 -0.3215
    3MOL   C541 2065   7.553   3.676   5.281  0.4655  0.1930  0.1736
    3MOL   O542 2066   7.512   3.689   5.418 -0.1573  0.0235 -0.7698
    3MOL   C543 2067   7.444   3.588   5.470  0.2543  0.5444  0.4033
    3MOL   O544 2068   7.418   3.488   5.406 -0.4775 -0.5797 -0.6488
    3MOL   C545 2069   7.413   3.614   5.610 -0.0882  1.1772 -0.5718
    3MOL   C546 2070   7.380   3.742   5.659 -0.6779  0.6056 -0.2882
    3MOL   C547 2071   7.346   3.754   5.801 -0.3344  0.6092 -0.0812
    3MOL   C548 2072   7.334   3.633   5.882  0.5075 -0.6072  0.2533
    3MOL   C549 2073   7.303   3.642   6.029  0.1306  0.5743  0.1628
    3MOL   O550 2074   7.318   3.550   6.109  0.3136  0.8728  0.2600
    3MOL   O551 2075   7.254   3.758   6.061 -0.1155  0.1161  0.0913
    3MOL   C552 2076   7.352   3.508   5.827  0.0296  0.1076  0.2758
    3MOL   C553 2077   7.394   3.493   5.690 -0.4312 -0.5126  0.3217
    3MOL   H554 2078   7.712   3.855   5.419  1.4304 -0.5203  1.2341
    3MOL   H555 2079   7.809   3.751   5.315  0.1262  0.4615  1.0388
    3MOL   H556 2080   7.857   3.904   5.153 -0.1064  0.1081 -0.0229
    3MOL   H557 2081   7.909   3.970   5.314  2.8235  1.3709 -3.4493
    3MOL   H558 2082   7.695   4.099   5.308 -0.6404 -3.0755  0.4706
    3MOL   H559 2083   7.737   4.268   5.151  0.0270 -0.2441  0.9633
    3MOL   H560 2084   7.846   4.158   5.062  1.9300 -0.9035  0.2195
    3MOL   H561 2085   7.634   3.992   5.027  1.7047 -0.2722  0.3666
    3MOL   H562 2086   7.547   4.107   5.113  1.2012  1.0884  1.7955
    3MOL   H563 2087   7.494   3.950   5.290 -1.2472 -0.8972  0.1887
    3MOL   H564 2088   7.438   3.886   5.148 -0.4275  0.8876  1.2842
    3MOL   H565 2089   7.664   3.773   5.125  1.1957 -2.2770  0.5221
    3MOL   H566 2090   7.616   3.587   5.276 -0.3910 -0.5620  2.3016
    3MOL   H567 2091   7.470   3.641   5.220  1.3079 -2.7012  0.6116
    3MOL   H568 2092   7.391   3.825   5.591  0.4875 -1.7491 -3.0926
    3MOL   H569 2093   7.321   3.852   5.839 -1.0504  0.7042 -0.7819
    3MOL   H570 2094   7.346   3.421   5.890 -2.5185 -0.4626 -0.6870
    3MOL   H571 2095   7.427   3.394   5.663  1.3795 -0.5851  2.6116
    3MOL   C572 2096   7.013   4.124   6.188  0.3143  0.0787  0.5802
    3MOL   C573 2097   7.050   3.977   6.138 -0.2497  0.0357 -0.4289
    3MOL   C574 2098   7.167   3.922   6.235 -0.3912  0.6286  0.2445
    3MOL   C575 2099   7.218   3.779   6.202  0.1324  0.6077 -0.4587
    3MOL   C576 2100   7.285   4.010   6.241 -0.3704  0.2968 -0.5635
    3MOL   C577 2101   7.244   4.152   6.280 -0.0516 -0.5760  0.0959
    3MOL   C578 2102   7.138   4.210   6.196  0.2012  0.2087 -0.2714
    3MOL   C579 2103   7.095   4.359   6.229 -0.1796 -0.0967 -0.2288
    3MOL   O580 2104   7.058   4.422   6.104 -0.4495 -0.1350 -0.1148
    3MOL   C581 2105   7.141   4.506   6.038  0.0286 -0.3349 -0.3835
    3MOL   O582 2106   7.262   4.515   6.058  0.2385  0.4331  0.1162
    3MOL   C583 2107   7.069   4.585   5.930  0.9574  0.0356  0.8987
    3MOL   C584 2108   7.137   4.692   5.868  0.5164  0.3042  1.0536
    3MOL   C585 2109   7.076   4.775   5.773  0.1348 -0.0575 -0.0006
    3MOL   C586 2110   6.944   4.744   5.729 -0.4756  0.0750  0.0176
    3MOL   C587 2111   6.884   4.830   5.628  0.1735 -0.4012  1.0528
    3MOL   O588 2112   6.935   4.934   5.584  0.1608  0.1266 -0.6211
    3MOL   O589 2113   6.763   4.777   5.585  0.3573 -0.1256  0.1802
    3MOL   C590 2114   6.878   4.630   5.780 -0.7960 -0.2190 -0.4944
    3MOL   C591 2115   6.938   4.551   5.880  0.6019  0.0254 -0.7978
    3MOL   H592 2116   6.976   4.132   6.290 -3.1101 -0.3555 -0.5793
    3MOL   H593 2117   6.932   4.155   6.122  1.5204 -1.3807 -1.6444
    3MOL   H594 2118   7.076   3.970   6.033 -0.2261  0.0606 -0.4246
    3MOL   H595 2119   6.963   3.916   6.163 -1.3843  1.4619 -0.7984
    3MOL   H596 2120   7.132   3.928   6.338  0.2288  0.0458  0.4921
    3MOL   H597 2121   7.156   3.698   6.239  1.3996 -0.4495 -0.6259
    3MOL   H598 2122   7.311   3.762   6.256  1.4174  2.9397 -1.8639
    3MOL   H599 2123   7.339   4.009   6.146  1.1780 -3.5828  0.2515
    3MOL   H600 2124   7.357   3.977   6.316 -0.7333 -1.0549 -0.8090
    3MOL   H601 2125   7.218   4.132   6.383 -0.1914 -2.6486 -0.3231
    3MOL   H602 2126   7.319   4.230   6.292  1.3570 -1.5337 -2.0613
    3MOL   H603 2127   7.185   4.206   6.097 -1.2287 -0.8434 -0.9252
    3MOL   H604 2128   7.185   4.408   6.264 -1.0046  0.8350  0.6175
    3MOL   H605 2129   7.018   4.364   6.306 -0.3424  1.2514 -0.4764
    3MOL   H606 2130   7.240   4.719   5.883  0.7369  0.1509 -0.1394
    3MOL   H607 2131   7.136   4.843   5.715  0.5368  0.5247  1.0826
    3MOL   H608 2132   6.778   4.611   5.743 -0.3961  0.7256 -2.1056
    3MOL   H609 2133   6.899   4.460   5.923  0.2324 -0.3161 -1.8471
    3MOL   C610 2134   6.719   4.557   5.220 -0.7001 -0.2864 -0.6261
    3MOL   C611 2135   6.700   4.622   5.357 -0.0618 -0.4989 -0.3490
    3MOL   C612 2136   6.728   4.772   5.352 -0.6346 -0.5230 -0.1495
    3MOL   C613 2137   6.692   4.841   5.482 -0.1103 -0.1364 -0.5063
    3MOL   C614 2138   6.877   4.793   5.290  0.4213 -0.2508 -0.1014
    3MOL   C615 2139   6.894   4.718   5.156  0.0738  0.6353 -0.0093
    3MOL   C616 2140   6.874   4.574   5.169  0.7729 -0.0837 -0.7968
    3MOL   C617 2141   6.917   4.486   5.046  0.5648  0.9037 -0.5161
    3MOL   O618 2142   6.869   4.539   4.915  0.5557 -0.2494 -0.0613
    3MOL   C619 2143   6.940   4.623   4.843 -0.2081  0.1170  0.1453
    3MOL   O620 2144   7.062   4.654   4.851  0.0020  0.0254 -0.4802
    3MOL   C621 2145   6.856   4.675   4.729  0.9531 -0.1180  0.1436
    3MOL   C622 2146   6.909   4.776   4.650  0.0934 -0.1733 -0.2435
    3MOL   C623 2147   6.838   4.832   4.543 -0.0160 -0.4167  0.2311
    3MOL   C624 2148   6.706   4.784   4.519 -0.9774  0.2379 -0.5346
    3MOL   C625 2149   6.633   4.840   4.404 -0.3950  0.3751 -1.0108
    3MOL   O626 2150   6.683   4.901   4.314 -0.0747 -0.2814  0.5212
    3MOL   O627 2151   6.508   4.813   4.404 -0.3994 -0.9478 -0.1092
    3MOL   C628 2152   6.649   4.683   4.605  1.2689 -0.0633  0.3206
    3MOL   C629 2153   6.722   4.633   4.715 -0.5906  0.1423 -0.9279
    3MOL   H630 2154   6.647   4.595   5.148 -0.5918  1.0027 -0.0631
    3MOL   H631 2155   6.705   4.449   5.227  2.5617 -0.8111 -1.4803
    3MOL   H632 2156   6.752   4.577   5.441  0.9093  0.8108 -0.2353
    3MOL   H633 2157   6.596   4.608   5.384  0.2493 -2.1289  0.0591
    3MOL   H634 2158   6.659   4.817   5.281 -1.9129 -0.7603  0.9301
    3MOL   H635 2159   6.585   4.832   5.500 -0.1469 -0.4913 -0.9000
    3MOL   H636 2160   6.713   4.948   5.495  1.7813 -0.6886  1.3513
    3MOL   H637 2161   6.951   4.760   5.363  1.6911  2.4759 -0.0999
    3MOL   H638 2162   6.907   4.895   5.265  1.3422 -0.4763  0.0709
    3MOL   H639 2163   6.826   4.768   5.087 -2.0064 -0.8017  0.9614
    3MOL   H640 2164   6.992   4.730   5.110  0.5012  2.3292  1.2606
    3MOL   H641 2165   6.946   4.539   5.243 -1.3542 -1.7921  0.5352
    3MOL   H642 2166   6.873   4.387   5.055  0.6213  1.1934  3.4918
    3MOL   H643 2167   7.026   4.483   5.046  0.5644  0.8075  1.1392
    3MOL   H644 2168   7.008   4.815   4.664  0.7538 -0.5610 -3.4523
    3MOL   H645 2169   6.882   4.911   4.483  1.2222 -0.3402  1.2046
    3MOL   H646 2170   6.544   4.659   4.603  0.9967  0.9271  1.8359
    3MOL   H647 2171   6.672   4.564   4.781 -0.1695 -1.5918 -2.3607
    3MOL   C648 2172   6.254   5.207   4.423 -0.4467  0.0052 -0.1244
    3MOL   C649 2173   6.300   5.058   4.416 -0.2371  0.5506 -0.4229
    3MOL   C650 2174   6.395   5.022   4.302  0.2462  0.1275  0.0669
    3MOL   C651 2175   6.424   4.867   4.298  0.0010  0.2965  1.1086
    3MOL   C652 2176   6.348   5.079   4.159  0.5156 -0.0137 -0.4137
    3MOL   C653 2177   6.310   5.231   4.183  0.2589  0.6365  0.7212
    3MOL   C654 2178   6.209   5.260   4.285  0.2762 -0.8682 -0.2626
    3MOL   C655 2179   6.178   5.408   4.289 -0.0412 -0.1135  0.4513
    3MOL   O656 2180   6.075   5.438   4.384 -0.0786 -0.2604 -0.1063
    3MOL   C657 2181   6.061   5.562   4.442 -0.8127  0.0587 -0.5905
    3MOL   O658 2182   6.142   5.653   4.416 -0.4665 -0.1500  0.4380
    3MOL   C659 2183   5.967   5.581   4.560  0.6121  0.0198  0.1353
    3MOL   C660 2184   5.959   5.712   4.614  0.3057  0.2100 -0.1916
    3MOL   C661 2185   5.868   5.734   4.718 -1.3746 -0.8946  0.0364
    3MOL   C662 2186   5.797   5.629   4.774  0.6835  0.6656 -0.3646
    3MOL   C663 2187   5.694   5.660   4.879  0.5305  0.2526  0.0940
    3MOL   O664 2188   5.680   5.770   4.924 -0.7210 -0.1761  0.3072
    3MOL   O665 2189   5.609   5.561   4.910  0.0182 -0.1159 -0.8441
    3MOL   C666 2190   5.814   5.500   4.729  0.1567 -0.2253 -0.0364
    3MOL   C667 2191   5.899   5.474   4.620 -0.1706  0.1529  0.7082
    3MOL   H668 2192   6.338   5.261   4.467 -1.3108  1.1495  0.1465
    3MOL   H669 2193   6.177   5.213   4.500  0.8640 -0.4621  1.2468
    3MOL   H670 2194   6.213   4.993   4.404 -0.1327  0.1301  1.0513
    3MOL   H671 2195   6.337   5.023   4.512 -2.4912  1.6349  0.8909
    3MOL   H672 2196   6.497   5.061   4.308  0.1723  0.4068 -0.5144
    3MOL   H673 2197   6.469   4.833   4.205 -2.3835  0.5090 -0.1733
    3MOL   H674 2198   6.327   4.817   4.299 -0.4905  1.2591  1.7940
    3MOL   H675 2199   6.257   5.027   4.130 -0.4711  1.6523 -0.3385
    3MOL   H676 2200   6.426   5.076   4.083  1.0121  1.0314  0.0488
    3MOL   H677 2201   6.398   5.294   4.192  0.4376  0.5093 -0.0953
    3MOL   H678 2202   6.268   5.276   4.093 -0.8819 -2.0919 -0.1596
    3MOL   H679 2203   6.114   5.214   4.257 -0.2858 -1.2308  2.0965
    3MOL   H680 2204   6.131   5.427   4.193  0.1365  1.8125  0.7063
    3MOL   H681 2205   6.264   5.468   4.317 -0.8397  0.9469  0.6770
    3MOL   H682 2206   6.010   5.791   4.561 -0.9274  0.4815 -1.0199
    3MOL   H683 2207   5.859   5.838   4.747  0.7468 -0.8394  0.5679
    3MOL   H684 2208   5.753   5.420   4.770  0.2121 -0.7239 -0.9090
    3MOL   H685 2209   5.904   5.375   4.578  2.4492  0.7682 -0.5906
    3MOL   C686 2210   5.273   5.390   5.214 -0.1117 -0.6736 -0.5298
    3MOL   C687 2211   5.340   5.511   5.152 -0.0346  0.3636 -0.7412
    3MOL   C688 2212   5.440   5.470   5.050 -0.0168 -0.0886  0.5272
    3MOL   C689 2213   5.522   5.591   5.013  0.2922  0.1998  0.4734
    3MOL   C690 2214   5.551   5.381   5.117  0.3259 -0.2736 -0.1773
    3MOL   C691 2215   5.487   5.253   5.160 -0.2327  0.4819 -0.2664
    3MOL   C692 2216   5.377   5.277   5.265  1.3046 -0.1809  0.8084
    3MOL   C693 2217   5.295   5.147   5.295 -0.1957  0.1200 -0.3093
    3MOL   O694 2218   5.370   5.030   5.339  0.2241  0.3968  0.4079
    3MOL   C695 2219   5.303   4.934   5.399 -0.2568  0.1354 -1.2225
    3MOL   O696 2220   5.183   4.926   5.403  0.1044 -0.2258 -0.0450
    3MOL   C697 2221   5.392   4.819   5.445  0.0792  0.2515  0.0744
    3MOL   C698 2222   5.533   4.834   5.471 -0.2578  0.1775  1.0320
    3MOL   C699 2223   5.606   4.729   5.524 -0.0196  0.1876 -0.4312
    3MOL   C700 2224   5.543   4.604   5.549  0.4550  0.0198 -0.0305
    3MOL   C701 2225   5.626   4.492   5.615 -0.5424  0.0193 -0.5691
    3MOL   O702 2226   5.586   4.379   5.650  0.2125  0.3251 -0.0648
    3MOL   O703 2227   5.750   4.537   5.648 -0.0958  0.2135  0.0360
    3MOL   C704 2228   5.402   4.584   5.529  0.3304 -0.7956  0.1467
    3MOL   C705 2229   5.331   4.689   5.472 -0.0108  0.3616 -0.2002
    3MOL   H706 2230   5.218   5.339   5.134 -1.5437  0.7796 -0.4857
    3MOL   H707 2231   5.197   5.418   5.287  0.4443 -0.1269 -0.1629
    3MOL   H708 2232   5.385   5.556   5.241  1.9680  1.1306 -2.0987
    3MOL   H709 2233   5.268   5.578   5.104 -0.5508  1.1682  1.1183
    3MOL   H710 2234   5.396   5.422   4.963 -0.0185 -1.7701  1.4534
    3MOL   H711 2235   5.573   5.626   5.102 -1.1331  0.5481  1.1674
    3MOL   H712 2236   5.451   5.670   4.985  0.8851 -0.0907 -1.9492
    3MOL   H713 2237   5.608   5.422   5.199  1.3489  0.3692 -1.1927
    3MOL   H714 2238   5.618   5.350   5.037 -1.3527 -3.7663 -0.3514
    3MOL   H715 2239   5.454   5.197   5.072 -0.2817 -1.4185  0.9336
    3MOL   H716 2240   5.560   5.187   5.208 -1.8928 -0.2037  1.3675
    3MOL   H717 2241   5.418   5.313   5.359  3.2833  0.2675 -0.1823
    3MOL   H718 2242   5.247   5.126   5.200 -2.0157  2.5556  0.0035
    3MOL   H719 2243   5.209   5.164   5.360 -0.9564  2.4501 -1.8367
    3MOL   H720 2244   5.589   4.923   5.446  1.2549 -0.6188  1.5567
    3MOL   H721 2245   5.707   4.764   5.537 -0.6001  0.6153  3.8107
    3MOL   H722 2246   5.352   4.489   5.534 -0.5320 -0.4185 -1.1110
    3MOL   H723 2247   5.235   4.674   5.424 -0.9457 -1.8332  2.2117
    3MOL   C724 2248   5.986   4.765   5.594  1.0278  0.3352 -0.0704
    3MOL   C725 2249   6.038   4.651   5.685 -0.3226 -0.1574  0.1191
    3MOL   C726 2250   5.991   4.505   5.638 -0.9779 -0.8637  0.0782
    3MOL   C727 2251   5.856   4.452   5.685 -0.6101 -0.7391 -0.3474
    3MOL   C728 2252   6.007   4.484   5.487  0.0100 -0.6797 -0.8959
    3MOL   C729 2253   5.955   4.595   5.400  0.2278  0.5491 -0.1297
    3MOL   C730 2254   6.007   4.741   5.440 -0.2538  0.7694 -0.3024
    3MOL   C731 2255   6.155   4.752   5.408  0.3648 -0.1727  0.4861
    3MOL   O732 2256   6.185   4.892   5.407  0.3968 -0.1613  0.2601
    3MOL   C733 2257   6.297   4.937   5.349 -0.7520  0.8626  0.2799
    3MOL   O734 2258   6.385   4.864   5.300 -0.0926  0.3735  0.5974
    3MOL   C735 2259   6.320   5.084   5.364 -0.2694  0.0026  0.2436
    3MOL   C736 2260   6.265   5.158   5.472 -0.1621  0.2313 -0.1946
    3MOL   C737 2261   6.277   5.298   5.476  0.8822 -0.1564 -0.7707
    3MOL   C738 2262   6.349   5.363   5.381 -0.5902  0.7101  0.1511
    3MOL   C739 2263   6.365   5.514   5.402 -0.2999 -0.3685 -0.4226
    3MOL   O740 2264   6.343   5.592   5.310 -0.0996  0.1358  0.5725
    3MOL   O741 2265   6.381   5.551   5.534 -0.5382 -0.4036 -0.1556
    3MOL   C742 2266   6.400   5.295   5.268  0.0678  0.1531 -0.0366
    3MOL   C743 2267   6.394   5.155   5.266  0.6335  0.2415 -0.0198
    3MOL   H744 2268   6.035   4.859   5.620  0.6824  0.0783  1.5149
    3MOL   H745 2269   5.880   4.778   5.611  0.7608 -0.0348 -1.3930
    3MOL   H746 2270   6.009   4.679   5.786 -2.0738 -3.0574  0.4833
    3MOL   H747 2271   6.146   4.660   5.678 -0.4755  2.5034  0.6653
    3MOL   H748 2272   6.057   4.444   5.699 -0.4077  1.5442  1.9669
    3MOL   H749 2273   5.862   4.448   5.794 -0.3011 -0.8502 -0.3688
    3MOL   H750 2274   5.856   4.350   5.647 -0.5355 -0.8502 -0.0506
    3MOL   H751 2275   5.957   4.393   5.456  0.6388 -1.8787  1.5402
    3MOL   H752 2276   6.112   4.464   5.466  0.1288 -2.5188  1.2674
    3MOL   H753 2277   6.001   4.574   5.304 -0.3996  1.7253 -0.7044
    3MOL   H754 2278   5.846   4.593   5.399  0.2462  0.2403 -2.0016
    3MOL   H755 2279   5.940   4.805   5.384  0.5176  1.4245 -0.4792
    3MOL   H756 2280   6.163   4.710   5.308  1.0699  1.0520  0.0139
    3MOL   H757 2281   6.222   4.695   5.472 -0.3058  0.0420  1.4004
    3MOL   H758 2282   6.216   5.103   5.552 -0.3221  1.1053  0.3209
    3MOL   H759 2283   6.232   5.353   5.558  1.6064 -1.4308  0.5140
    3MOL   H760 2284   6.443   5.359   5.192  0.6284  0.8364  0.8524
    3MOL   H761 2285   6.447   5.097   5.193  1.8949 -0.4039  1.3722
    3MOL   H762 2286   6.349   5.639   5.545 -0.1402  0.0652 -2.5799
    4MOL     C1 2287   4.388   2.294   1.266  0.5855  0.5120  0.6077
    4MOL     C2 2288   4.401   2.180   1.370 -0.1699  0.8884 -0.1510
    4MOL     C3 2289   4.545   2.151   1.406  0.1897  0.4035  0.6995
    4MOL     C4 2290   4.551   2.011   1.480  0.8184  0.0076 -0.4495
    4MOL     C5 2291   4.646   2.160   1.291  0.4975 -1.9484 -0.1258
    4MOL     C6 2292   4.619   2.266   1.176 -0.1096 -0.9801  0.0080
    4MOL     C7 2293   4.472   2.271   1.139  0.4025  1.2819  0.5715
    4MOL     C8 2294   4.443   2.397   1.050 -0.7529  0.8684 -0.1179
    4MOL     O9 2295   4.519   2.388   0.928 -0.4817  0.2338  0.3614
    4MOL    C10 2296   4.459   2.351   0.819  0.1527 -0.1215  0.3031
    4MOL    O11 2297   4.335   2.336   0.819  0.5793 -0.5807  0.3259
    4MOL    C12 2298   4.550   2.357   0.701 -0.1491  0.0589 -1.0818
    4MOL    C13 2299   4.688   2.321   0.718  0.2138  0.1546 -0.4397
    4MOL    C14 2300   4.768   2.313   0.604  0.6366  0.0759 -0.2752
    4MOL    C15 2301   4.711   2.336   0.473 -0.4970 -0.7380  0.3403
    4MOL    C16 2302   4.811   2.325   0.359  0.1005 -0.3886  0.5935
    4MOL    O17 2303   4.914   2.260   0.368  0.0901  0.0803  0.0951
    4MOL    O18 2304   4.773   2.391   0.255 -0.8061 -0.0903 -0.0543
    4MOL    C19 2305   4.583   2.386   0.455  0.2268 -0.1905  0.3162
    4MOL    C20 2306   4.499   2.397   0.574 -0.4550 -0.1092  0.3456
    4MOL    H21 2307   4.427   2.385   1.312 -0.2598  0.7668  0.8216
    4MOL    H22 2308   4.285   2.307   1.232  1.3066 -1.4904 -2.5896
    4MOL    H23 2309   4.348   2.095   1.326  0.5940  0.0570  0.5080
    4MOL    H24 2310   4.347   2.202   1.462 -0.1033  0.7313 -0.0759
    4MOL    H25 2311   4.588   2.228   1.470  0.9438  0.8621 -0.3451
    4MOL    H26 2312   4.516   1.925   1.423  1.2147 -2.1059  2.4569
    4MOL    H27 2313   4.477   1.996   1.558  0.7707  0.9880 -0.2978
    4MOL    H28 2314   4.655   2.061   1.245 -0.6116 -1.9399 -0.3626
    4MOL    H29 2315   4.741   2.193   1.334  1.1421 -0.6380 -2.4345
    4MOL    H30 2316   4.655   2.358   1.222  0.3659 -0.5404 -1.2265
    4MOL    H31 2317   4.682   2.242   1.091  1.8485 -1.9248  1.6818
    4MOL    H32 2318   4.442   2.176   1.094 -0.4777  1.2531  1.1975
    4MOL    H33 2319   4.477   2.486   1.103  1.7649  1.0538 -1.9535
    4MOL    H34 2320   4.336   2.412   1.039 -0.7786  0.2737 -0.7532
    4MOL    H35 2321   4.727   2.296   0.815  0.7789  1.5921 -0.2933
    4MOL    H36 2322   4.874   2.294   0.619  0.7041  0.1033 -0.7053
    4MOL    H37 2323   4.549   2.401   0.354 -0.1591 -1.3076  0.2749
    4MOL    H38 2324   4.397   2.430   0.562  0.0510  1.0307 -0.9634
    4MOL    H39 2325   4.647   1.999   1.530 -0.8422 -0.8325  2.5992
    4MOL    C40 2326   4.586   2.603   7.957 -0.6093  0.2324 -0.4363
    4MOL    C41 2327   4.683   2.578   0.039  0.2763 -0.2285 -0.0339
    4MOL    C42 2328   4.744   2.436   0.027 -0.4178 -0.4239  0.0953
    4MOL    C43 2329   4.843   2.400   0.139 -0.0442  0.3531  0.0312
    4MOL    C44 2330   4.634   2.333   0.011 -0.1949  0.0703 -0.5016
    4MOL    C45 2331   4.549   2.365   7.920  0.4509  0.3751  0.2489
    4MOL    C46 2332   4.475   2.498   7.924 -0.2053 -0.8640  0.0320
    4MOL    C47 2333   4.391   2.540   7.805 -0.3450 -0.2787  0.2780
    4MOL    O48 2334   4.279   2.614   7.856  0.4595 -0.4571  0.5811
    4MOL    C49 2335   4.275   2.746   7.851  0.6104 -0.2160  0.4778
    4MOL    O50 2336   4.368   2.810   7.808 -0.6893  0.5938 -0.2168
    4MOL    C51 2337   4.158   2.806   7.910 -0.0502 -1.0252 -0.3890
    4MOL    C52 2338   4.036   2.733   7.923 -0.7437  0.3902  0.3268
    4MOL    C53 2339   3.924   2.786   7.986  0.3201  0.1904  0.1264
    4MOL    C54 2340   3.919   2.919   0.001  0.3566  0.2608  0.7339
    4MOL    C55 2341   3.795   2.969   0.069  1.0649 -0.2134  0.3537
    4MOL    O56 2342   3.782   3.093   0.083  0.3418 -0.1939 -0.6564
    4MOL    O57 2343   3.702   2.876   0.104  0.2619  0.0374 -0.0959
    4MOL    C58 2344   4.040   2.997   8.008  0.0459  0.5476 -0.3792
    4MOL    C59 2345   4.156   2.945   7.950 -0.4254 -0.2001  0.9007
    4MOL    H60 2346   4.652   2.610   7.870 -0.3176 -1.0759 -0.3321
    4MOL    H61 2347   4.543   2.701   7.976  0.1853  0.6071 -0.5338
    4MOL    H62 2348   4.638   2.587   0.138  1.2252 -1.4561  0.5303
    4MOL    H63 2349   4.757   2.657   0.031  0.1002 -0.1275 -0.6292
    4MOL    H64 2350   4.802   2.433   7.967 -3.4431 -1.4343 -1.8888
    4MOL    H65 2351   4.908   2.487   0.152 -0.2650  0.3612  1.1557
    4MOL    H66 2352   4.895   2.313   0.099 -1.2329 -0.4084  0.1219
    4MOL    H67 2353   4.579   2.310   0.102 -0.8431  0.4208 -0.7995
    4MOL    H68 2354   4.679   2.239   8.011 -0.5348  0.3576 -1.8743
    4MOL    H69 2355   4.608   2.356   7.829  1.9466 -1.0016  1.3337
    4MOL    H70 2356   4.471   2.291   7.901 -0.6256  2.3264 -3.4979
    4MOL    H71 2357   4.417   2.499   8.016 -1.2839 -0.5708 -0.6482
    4MOL    H72 2358   4.345   2.455   7.755 -1.8886 -0.6894  2.3101
    4MOL    H73 2359   4.459   2.596   7.741  0.3839 -3.0856 -1.4873
    4MOL    H74 2360   4.029   2.632   7.886 -0.1381 -0.2811  1.9994
    4MOL    H75 2361   3.839   2.720   7.994  0.7558 -0.6910 -1.9798
    4MOL    H76 2362   4.030   3.103   8.027  0.7687  1.0176 -2.5131
    4MOL    H77 2363   4.243   3.007   7.936 -0.2444 -0.2399  1.8799
    4MOL    C78 2364   3.222   2.782   0.102 -0.5360  0.3885  0.0031
    4MOL    C79 2365   3.337   2.853   0.170  0.4197 -0.0734 -0.5685
    4MOL    C80 2366   3.466   2.801   0.115 -0.0052 -0.1919  0.2637
    4MOL    C81 2367   3.579   2.896   0.164 -0.6624 -1.0046  0.0345
    4MOL    C82 2368   3.487   2.655   0.144  0.0032 -0.4767  0.1471
    4MOL    C83 2369   3.364   2.567   0.113  0.5954  0.0655  0.8773
    4MOL    C84 2370   3.224   2.633   0.143 -0.6333  0.4674 -0.1208
    4MOL    C85 2371   3.109   2.547   0.082 -0.4776 -0.2144 -0.1329
    4MOL    O86 2372   3.117   2.411   0.115  0.4032  0.4375  0.0188
    4MOL    C87 2373   3.067   2.371   0.230  0.6162 -0.0577 -0.4372
    4MOL    O88 2374   2.997   2.442   0.302 -0.4650  0.5941 -0.0926
    4MOL    C89 2375   3.095   2.228   0.258  0.7983  0.5220  0.3132
    4MOL    C90 2376   3.141   2.141   0.155 -0.6138  0.1199 -0.1138
    4MOL    C91 2377   3.158   2.003   0.177 -0.0708 -0.1956 -0.3922
    4MOL    C92 2378   3.119   1.953   0.302 -0.2793  0.5013 -0.2786
    4MOL    C93 2379   3.138   1.810   0.346 -0.0264 -0.8966 -0.6955
    4MOL    O94 2380   3.125   1.768   0.464 -0.4384 -0.5722 -0.1743
    4MOL    O95 2381   3.164   1.731   0.244 -0.3352  0.0303  0.4013
    4MOL    C96 2382   3.073   2.037   0.409  0.2289 -0.6284 -0.0031
    4MOL    C97 2383   3.059   2.177   0.385 -0.0705  0.8838  0.0265
    4MOL    H98 2384   3.217   2.804   8.027 -1.6403  0.6794  0.1111
    4MOL    H99 2385   3.132   2.815   0.152  0.0310 -0.5801  1.6781
    4MOL   H100 2386   3.338   2.838   0.278  3.2929  1.0639 -0.3937
    4MOL   H101 2387   3.330   2.961   0.156  0.2132 -0.2069 -1.5082
    4MOL   H102 2388   3.470   2.810   0.007 -2.7626  1.8382  0.2947
    4MOL   H103 2389   3.580   2.900   0.273  0.4524 -1.7794  0.0573
    4MOL   H104 2390   3.550   2.999   0.143  1.5351 -0.1159  1.1128
    4MOL   H105 2391   3.513   2.642   0.249  0.5024  4.3099  0.7570
    4MOL   H106 2392   3.574   2.624   0.086 -0.0654  1.5961 -1.1047
    4MOL   H107 2393   3.356   2.541   0.008  0.1717  0.7756  0.7339
    4MOL   H108 2394   3.369   2.475   0.172 -0.7346  0.9125  2.3728
    4MOL   H109 2395   3.209   2.635   0.251  1.1745  0.4276  0.1498
    4MOL   H110 2396   3.126   2.550   8.007  1.1327  0.1253  0.1311
    4MOL   H111 2397   3.009   2.592   0.090  1.3516  3.5264  4.0935
    4MOL   H112 2398   3.164   2.183   0.058  0.3400  0.1074  0.1055
    4MOL   H113 2399   3.196   1.936   0.100  0.4568  0.1050 -0.3973
    4MOL   H114 2400   3.047   1.991   0.503  0.1768  1.1545  0.8707
    4MOL   H115 2401   3.009   2.234   0.461 -2.8322 -1.5873  0.1728
    4MOL   C116 2402   3.514   1.558   0.066  1.0716 -0.3496  0.2019
    4MOL   C117 2403   3.361   1.577   0.089  0.1233 -0.7635 -0.0781
    4MOL   C118 2404   3.330   1.570   0.238 -0.2470  0.0026 -0.0017
    4MOL   C119 2405   3.179   1.595   0.275 -0.0828 -0.2457 -0.1055
    4MOL   C120 2406   3.373   1.425   0.293 -0.3893  0.1050 -0.0948
    4MOL   C121 2407   3.519   1.396   0.257 -0.3008  0.0802 -0.5620
    4MOL   C122 2408   3.551   1.417   0.106  0.3476 -0.8099 -0.0922
    4MOL   C123 2409   3.704   1.381   0.079 -0.3839  0.0082 -0.0025
    4MOL   O124 2410   3.708   1.344   7.971 -0.5694  0.0426 -0.2503
    4MOL   C125 2411   3.819   1.372   7.899 -0.6382 -0.2140 -0.0608
    4MOL   O126 2412   3.925   1.411   7.953  0.4561  0.0896 -0.2060
    4MOL   C127 2413   3.808   1.348   7.756  0.5421  0.0824  0.5924
    4MOL   C128 2414   3.921   1.364   7.671  0.1023 -0.0437 -0.5852
    4MOL   C129 2415   3.914   1.333   7.532 -0.4675 -0.2117  0.2209
    4MOL   C130 2416   3.794   1.303   7.472 -0.6058  1.0706 -0.7340
    4MOL   C131 2417   3.786   1.292   7.325 -0.0905 -0.4729 -0.3546
    4MOL   O132 2418   3.882   1.293   7.253  0.2404  0.1093  0.1492
    4MOL   O133 2419   3.661   1.281   7.280 -0.2998  0.5952 -0.4624
    4MOL   C134 2420   3.678   1.288   7.553  0.0927  0.5237  0.1222
    4MOL   C135 2421   3.687   1.302   7.692 -0.6986  0.5533 -0.0358
    4MOL   H136 2422   3.574   1.628   0.125 -0.2874  4.2658 -3.5636
    4MOL   H137 2423   3.539   1.571   7.993  1.2985 -0.4849  0.2400
    4MOL   H138 2424   3.315   1.498   0.030 -0.4199 -0.1996 -0.4077
    4MOL   H139 2425   3.336   1.677   0.055  0.9274  0.0273  1.5800
    4MOL   H140 2426   3.392   1.639   0.296  0.4010 -1.3708  0.9953
    4MOL   H141 2427   3.146   1.557   0.372  1.5443 -1.2359  0.0692
    4MOL   H142 2428   3.112   1.542   0.206 -0.0959  0.6476 -0.7922
    4MOL   H143 2429   3.310   1.342   0.261  1.2655 -0.5508 -1.7268
    4MOL   H144 2430   3.353   1.426   0.400  1.4742 -2.8314  0.3520
    4MOL   H145 2431   3.589   1.447   0.323 -1.1418  2.1957 -1.2542
    4MOL   H146 2432   3.542   1.291   0.275  0.3465  0.4170  0.6364
    4MOL   H147 2433   3.493   1.350   0.043 -2.0302 -1.8338  3.0571
    4MOL   H148 2434   3.738   1.285   0.119 -0.6906  0.2438  0.8273
    4MOL   H149 2435   3.774   1.457   0.113 -1.7775  2.1667 -1.8016
    4MOL   H150 2436   4.011   1.391   7.724 -0.3415  1.3038 -0.4803
    4MOL   H151 2437   3.997   1.340   7.464 -0.6130 -0.2180  0.0435
    4MOL   H152 2438   3.578   1.266   7.517 -0.8233  1.6356  1.9126
    4MOL   H153 2439   3.594   1.291   7.747 -0.8592 -1.9330 -0.7395
    4MOL   C154 2440   3.589   1.616   6.995  0.1295  0.0673 -0.6551
    4MOL   C155 2441   3.562   1.484   7.072 -0.0673  0.5807 -0.1429
    4MOL   C156 2442   3.678   1.383   7.047 -0.6473  0.2123 -0.1140
    4MOL   C157 2443   3.647   1.257   7.140 -0.0518 -0.5065  0.3948
    4MOL   C158 2444   3.688   1.357   6.896 -0.8742 -0.1368 -0.2117
    4MOL   C159 2445   3.733   1.495   6.836 -0.6321 -0.8188 -0.1060
    4MOL   C160 2446   3.622   1.608   6.844  0.1502 -0.2537  1.2264
    4MOL   C161 2447   3.667   1.743   6.784  0.1868  0.6681 -0.9906
    4MOL   O162 2448   3.674   1.727   6.649 -0.0275 -0.0088  0.3174
    4MOL   C163 2449   3.664   1.828   6.555 -0.0274 -0.1425 -0.3676
    4MOL   O164 2450   3.637   1.941   6.580  0.4716  0.1472 -0.1963
    4MOL   C165 2451   3.726   1.785   6.423 -0.3998 -0.2503 -0.1673
    4MOL   C166 2452   3.759   1.648   6.396  0.0196 -0.1754  0.5277
    4MOL   C167 2453   3.824   1.609   6.283  0.4790  0.5963  1.4653
    4MOL   C168 2454   3.842   1.701   6.176  1.0484 -0.6492 -0.2634
    4MOL   C169 2455   3.893   1.641   6.043 -0.3722  0.1738 -0.0107
    4MOL   O170 2456   3.902   1.520   6.015 -0.1509  0.2937  0.1353
    4MOL   O171 2457   3.910   1.739   5.962  0.4083  0.4054 -0.3986
    4MOL   C172 2458   3.806   1.834   6.198  0.3046 -1.0055  0.7548
    4MOL   C173 2459   3.758   1.876   6.319 -0.0868 -0.5710 -0.8254
    4MOL   H174 2460   3.668   1.671   7.046 -1.9887  1.7262  0.9046
    4MOL   H175 2461   3.505   1.685   7.003 -0.0520 -0.1006 -1.0771
    4MOL   H176 2462   3.466   1.440   7.046  0.3686 -0.0530 -0.7103
    4MOL   H177 2463   3.555   1.508   7.178  0.5651  0.1173  0.0110
    4MOL   H178 2464   3.777   1.420   7.075 -0.0036 -1.9819  0.6121
    4MOL   H179 2465   3.723   1.188   7.103 -1.5245 -1.7353 -0.4154
    4MOL   H180 2466   3.553   1.207   7.119  0.8498 -2.1154  0.1360
    4MOL   H181 2467   3.592   1.326   6.854 -0.3070 -1.8689 -0.2754
    4MOL   H182 2468   3.764   1.283   6.870  2.6719  3.2088  0.1970
    4MOL   H183 2469   3.819   1.542   6.885 -0.4532  0.1084 -1.2978
    4MOL   H184 2470   3.757   1.471   6.732  1.2617 -0.4975  0.2348
    4MOL   H185 2471   3.537   1.579   6.783  0.5808  0.7450  0.1310
    4MOL   H186 2472   3.765   1.767   6.825  0.3119 -0.4732 -0.6013
    4MOL   H187 2473   3.594   1.823   6.797 -1.6726 -1.2670  1.1581
    4MOL   H188 2474   3.741   1.582   6.479 -2.2635  1.2711  1.2593
    4MOL   H189 2475   3.845   1.503   6.280 -0.2432  0.4725  0.7604
    4MOL   H190 2476   3.806   1.912   6.124  2.5031 -0.9684  0.7611
    4MOL   H191 2477   3.738   1.982   6.333  0.4758 -0.3534 -1.6252
    4MOL   C192 2478   4.202   2.027   5.862 -0.3283 -0.1890  1.1891
    4MOL   C193 2479   4.075   1.948   5.845  0.4498  0.3569  0.0990
    4MOL   C194 2480   4.099   1.792   5.835 -0.2219  0.4821 -0.4687
    4MOL   C195 2481   3.966   1.722   5.833  0.1652  0.1480 -0.0844
    4MOL   C196 2482   4.201   1.763   5.719 -0.4670 -0.3250  0.4018
    4MOL   C197 2483   4.329   1.846   5.732 -0.3279 -0.5234  0.6168
    4MOL   C198 2484   4.305   1.995   5.748  0.0647 -0.0855 -1.0537
    4MOL   C199 2485   4.442   2.068   5.772  1.1227  0.0064  0.0647
    4MOL   O200 2486   4.516   2.064   5.648  0.5691 -0.1852  0.1649
    4MOL   C201 2487   4.645   2.102   5.646  0.0330 -0.1487  0.3604
    4MOL   O202 2488   4.700   2.171   5.727  0.0482  0.1615 -0.2351
    4MOL   C203 2489   4.713   2.043   5.528 -0.4353 -0.1150  0.2745
    4MOL   C204 2490   4.841   2.100   5.496 -0.1945  0.5870  0.6869
    4MOL   C205 2491   4.916   2.031   5.397 -0.1141  0.0932  0.1509
    4MOL   C206 2492   4.864   1.923   5.321  0.5102  0.0693  0.5304
    4MOL   C207 2493   4.942   1.871   5.209  0.2564  0.3569 -0.1522
    4MOL   O208 2494   5.061   1.911   5.182 -0.3880 -0.0011 -0.7334
    4MOL   O209 2495   4.878   1.764   5.150  0.4899  0.2738 -0.5856
    4MOL   C210 2496   4.736   1.862   5.363  0.0200  0.4015  0.1338
    4MOL   C211 2497   4.667   1.927   5.467 -0.4231 -0.6826  0.0315
    4MOL   H212 2498   4.255   1.994   5.952  1.9264  0.0988  0.0055
    4MOL   H213 2499   4.189   2.135   5.867 -0.4770 -0.1554  0.1665
    4MOL   H214 2500   4.014   1.984   5.762 -1.8760 -0.6843  1.2975
    4MOL   H215 2501   4.014   1.968   5.933  0.4300  3.2004 -0.4992
    4MOL   H216 2502   4.145   1.766   5.931  2.5746  1.2089 -1.5501
    4MOL   H217 2503   3.987   1.615   5.822  3.1567  0.3522  2.8353
    4MOL   H218 2504   3.902   1.768   5.758  0.3750 -0.4223 -0.6177
    4MOL   H219 2505   4.168   1.810   5.627 -1.4467 -0.4524  0.6805
    4MOL   H220 2506   4.217   1.656   5.707 -0.7921 -0.5198  1.6400
    4MOL   H221 2507   4.392   1.812   5.814 -0.7124  1.3977  1.7381
    4MOL   H222 2508   4.396   1.833   5.646  0.3976  0.5048  1.0105
    4MOL   H223 2509   4.263   2.050   5.664 -0.9558  1.6749  0.5536
    4MOL   H224 2510   4.502   2.015   5.845  1.0059 -0.4103 -0.1422
    4MOL   H225 2511   4.421   2.169   5.806 -1.7205 -0.5267  0.0110
    4MOL   H226 2512   4.870   2.191   5.547  0.6391  0.2130  0.8741
    4MOL   H227 2513   5.009   2.073   5.362  0.1346 -1.0002 -0.5050
    4MOL   H228 2514   4.678   1.799   5.298 -0.6577  2.9265 -1.7921
    4MOL   H229 2515   4.565   1.894   5.482 -0.7857 -0.4230 -1.6830
    4MOL   C230 2516   4.710   1.432   4.890 -0.4947  0.1747 -0.3665
    4MOL   C231 2517   4.782   1.566   4.923 -0.1647  0.3789 -0.0204
    4MOL   C232 2518   4.885   1.549   5.033 -0.5626 -0.4461  0.3196
    4MOL   C233 2519   4.960   1.676   5.071 -0.7052 -1.3950  0.2132
    4MOL   C234 2520   4.831   1.478   5.164  0.0808 -0.0683 -0.2148
    4MOL   C235 2521   4.783   1.337   5.128 -0.0935 -0.7060 -0.3200
    4MOL   C236 2522   4.673   1.356   5.024 -0.0459  0.7054 -0.1667
    4MOL   C237 2523   4.617   1.223   4.983  1.0115 -0.4761  1.5231
    4MOL   O238 2524   4.507   1.238   4.892  0.4055 -0.3900  0.4002
    4MOL   C239 2525   4.451   1.132   4.841  0.0465 -0.1567  0.1384
    4MOL   O240 2526   4.494   1.021   4.870 -0.1742 -0.1965 -0.2237
    4MOL   C241 2527   4.337   1.167   4.753 -0.4970  0.3511 -0.4772
    4MOL   C242 2528   4.313   1.303   4.715  0.6113  0.9518  0.2849
    4MOL   C243 2529   4.201   1.335   4.635  0.2008 -0.0927 -0.2612
    4MOL   C244 2530   4.110   1.237   4.594  0.1675 -0.1101 -0.5597
    4MOL   C245 2531   3.986   1.273   4.524  0.3726 -0.3721  0.0812
    4MOL   O246 2532   3.950   1.392   4.506  0.0629  0.0974  0.1646
    4MOL   O247 2533   3.923   1.168   4.464 -0.0659 -0.2240 -0.0259
    4MOL   C248 2534   4.130   1.107   4.637  0.0290  0.5676  0.0767
    4MOL   C249 2535   4.248   1.071   4.708 -0.0922 -0.2305  0.3380
    4MOL   H250 2536   4.783   1.373   4.835 -1.0665 -1.2448  0.3696
    4MOL   H251 2537   4.623   1.451   4.827 -1.4384  0.0408  0.8862
    4MOL   H252 2538   4.704   1.634   4.960  1.1311 -0.2612  4.1657
    4MOL   H253 2539   4.819   1.616   4.834 -2.3463  0.7831 -0.7480
    4MOL   H254 2540   4.955   1.486   4.979 -0.8381 -0.8178  0.3979
    4MOL   H255 2541   4.971   1.723   4.974 -0.1132 -1.0558  0.4420
    4MOL   H256 2542   5.054   1.653   5.121 -0.3934 -2.0228 -0.6496
    4MOL   H257 2543   4.753   1.538   5.210  0.6674  0.3421  0.2459
    4MOL   H258 2544   4.920   1.470   5.227 -0.5555 -1.2536  0.5510
    4MOL   H259 2545   4.861   1.278   5.080 -1.2454 -1.6006 -1.1567
    4MOL   H260 2546   4.760   1.277   5.217 -0.8402  0.5344  0.3369
    4MOL   H261 2547   4.599   1.420   5.072 -1.3161  2.5082 -4.2748
    4MOL   H262 2548   4.574   1.160   5.060 -1.4542 -0.5299  0.1601
    4MOL   H263 2549   4.697   1.168   4.933  1.7318 -0.4211  2.6025
    4MOL   H264 2550   4.380   1.382   4.745  1.1005 -0.0120  1.7491
    4MOL   H265 2551   4.194   1.434   4.591 -2.8147 -0.3869 -0.5420
    4MOL   H266 2552   4.047   1.039   4.629 -0.3651  0.8611  1.5015
    4MOL   H267 2553   4.258   0.970   4.745  1.6178 -0.4424 -0.6614
    4MOL   C268 2554   3.463   1.016   4.474  0.0072  0.4741  0.2680
    4MOL   C269 2555   3.573   1.071   4.383  0.5112 -0.9213 -0.2394
    4MOL   C270 2556   3.684   1.137   4.464 -0.3495 -0.2744 -0.2581
    4MOL   C271 2557   3.808   1.181   4.383 -0.2858  0.3003  0.3884
    4MOL   C272 2558   3.623   1.254   4.543 -1.0108  0.0512  0.2977
    4MOL   C273 2559   3.521   1.206   4.638  0.1780 -0.1317 -0.4521
    4MOL   C274 2560   3.407   1.128   4.567 -0.4945 -0.1079  0.1791
    4MOL   C275 2561   3.306   1.064   4.665 -0.1482  0.4475  0.0915
    4MOL   O276 2562   3.217   1.162   4.714 -0.3276 -0.3048  0.5768
    4MOL   C277 2563   3.141   1.125   4.811 -0.2013 -0.4540  0.1373
    4MOL   O278 2564   3.166   1.044   4.897 -0.6246 -0.1853 -0.1313
    4MOL   C279 2565   3.013   1.202   4.814 -0.8120  0.2824  0.3829
    4MOL   C280 2566   2.912   1.170   4.905  0.4568  0.3304  0.4633
    4MOL   C281 2567   2.787   1.240   4.920  0.1599  0.2767  0.9472
    4MOL   C282 2568   2.761   1.341   4.827 -0.7283  0.0216  0.7235
    4MOL   C283 2569   2.628   1.417   4.840  0.5745 -0.4721  0.0791
    4MOL   O284 2570   2.542   1.383   4.919 -0.0950  0.1409 -0.0310
    4MOL   O285 2571   2.602   1.516   4.748  0.0421 -0.7115  0.0972
    4MOL   C286 2572   2.853   1.371   4.721  1.0156  0.0197 -0.0026
    4MOL   C287 2573   2.975   1.301   4.719  0.6193 -0.3054 -0.3669
    4MOL   H288 2574   3.514   0.938   4.531  1.1251  0.8340 -0.2277
    4MOL   H289 2575   3.386   0.958   4.424  0.7230 -1.5439  1.4436
    4MOL   H290 2576   3.525   1.137   4.310  0.6997  1.2388  1.5341
    4MOL   H291 2577   3.619   0.992   4.325  0.1640 -2.7603  1.9369
    4MOL   H292 2578   3.715   1.059   4.533  2.9785 -0.0826 -1.4386
    4MOL   H293 2579   3.797   1.286   4.356  1.2995  0.6476  1.0426
    4MOL   H294 2580   3.832   1.130   4.290  2.3128  1.2045  0.5278
    4MOL   H295 2581   3.583   1.331   4.477 -0.5674 -2.4992 -3.0744
    4MOL   H296 2582   3.693   1.315   4.601 -0.8158 -0.4055  0.5446
    4MOL   H297 2583   3.572   1.146   4.713  1.5213 -1.2507 -2.2183
    4MOL   H298 2584   3.474   1.289   4.691  2.1776  1.3844 -1.0083
    4MOL   H299 2585   3.350   1.189   4.498  1.6427 -1.3247 -2.7977
    4MOL   H300 2586   3.368   1.024   4.745 -0.1974 -0.5937 -0.3818
    4MOL   H301 2587   3.260   0.982   4.609 -0.3922  0.6511 -0.0064
    4MOL   H302 2588   2.936   1.086   4.969  0.3436 -0.2106 -0.1864
    4MOL   H303 2589   2.721   1.205   4.998 -1.1935 -0.0336 -0.3218
    4MOL   H304 2590   2.845   1.441   4.639  1.9108 -0.1095 -0.2010
    4MOL   H305 2591   3.039   1.320   4.634  0.2259  1.6999 -0.2358
    4MOL   C306 2592   2.547   1.702   4.378  0.4336 -0.9466  0.1591
    4MOL   C307 2593   2.536   1.597   4.495 -0.0235 -0.7155  0.4726
    4MOL   C308 2594   2.479   1.666   4.619 -0.1450  0.3774  0.2318
    4MOL   C309 2595   2.467   1.569   4.736 -0.0006  0.1583  0.1068
    4MOL   C310 2596   2.570   1.788   4.661  0.1067 -0.0040  1.0741
    4MOL   C311 2597   2.587   1.885   4.538 -0.3022 -0.0944 -0.6253
    4MOL   C312 2598   2.647   1.806   4.424  0.1612 -0.2297 -0.1979
    4MOL   C313 2599   2.683   1.900   4.306 -0.1721  0.2485 -0.8888
    4MOL   O314 2600   2.810   1.961   4.334  0.4246  0.1888 -0.3358
    4MOL   C315 2601   2.829   2.085   4.317  0.2117 -0.2150 -0.0531
    4MOL   O316 2602   2.761   2.153   4.241 -0.4637  0.3580  1.0084
    4MOL   C317 2603   2.947   2.138   4.396  0.0973  0.2856  0.8185
    4MOL   C318 2604   2.983   2.273   4.389 -0.1983  0.6161 -0.0772
    4MOL   C319 2605   3.096   2.323   4.452 -0.4806  1.3199 -0.1129
    4MOL   C320 2606   3.183   2.234   4.514 -0.6372  0.0191 -0.4489
    4MOL   C321 2607   3.306   2.285   4.579 -0.4093  0.2016 -0.2233
    4MOL   O322 2608   3.390   2.219   4.634 -0.3046  0.4295  0.1444
    4MOL   O323 2609   3.308   2.420   4.588 -0.4921 -0.0856 -0.0226
    4MOL   C324 2610   3.154   2.095   4.515  0.2136 -0.4020 -0.7385
    4MOL   C325 2611   3.034   2.044   4.452  0.1538  0.3051 -0.2752
    4MOL   H326 2612   2.448   1.743   4.355 -0.1230 -2.3266  0.0018
    4MOL   H327 2613   2.587   1.649   4.291  0.1336  0.0210 -0.5736
    4MOL   H328 2614   2.633   1.557   4.523 -1.5410 -3.1106  2.5868
    4MOL   H329 2615   2.469   1.518   4.460  1.6442 -1.1897 -1.7459
    4MOL   H330 2616   2.381   1.710   4.603  0.0408  0.6817 -0.0660
    4MOL   H331 2617   2.402   1.488   4.704 -0.7971 -0.5472  3.3359
    4MOL   H332 2618   2.434   1.610   4.831  0.6296  0.6738  0.1114
    4MOL   H333 2619   2.667   1.759   4.702  0.4020 -1.1889 -0.3774
    4MOL   H334 2620   2.517   1.835   4.744 -0.9913  0.6652  0.0124
    4MOL   H335 2621   2.494   1.927   4.500 -0.7006 -1.9432 -1.7408
    4MOL   H336 2622   2.651   1.965   4.576 -3.1543  1.4098  1.1717
    4MOL   H337 2623   2.744   1.764   4.448  1.2081  0.4288 -3.0416
    4MOL   H338 2624   2.608   1.977   4.292  1.9958  2.3108 -1.6146
    4MOL   H339 2625   2.688   1.833   4.220  0.1213  0.4769 -1.0535
    4MOL   H340 2626   2.926   2.348   4.335 -0.3060  0.8672  0.3830
    4MOL   H341 2627   3.116   2.429   4.446  0.1800  1.2458  0.7236
    4MOL   H342 2628   3.220   2.022   4.558 -1.7741 -2.0708 -0.4164
    4MOL   H343 2629   3.015   1.938   4.459  0.0352  0.4488  1.7557
    4MOL   C344 2630   3.363   2.863   4.619  0.6410 -0.3586 -0.1693
    4MOL   C345 2631   3.414   2.722   4.578  0.7491  0.5689 -0.2501
    4MOL   C346 2632   3.388   2.621   4.690 -0.3000  0.5911 -0.1631
    4MOL   C347 2633   3.419   2.485   4.650  0.1170 -0.6111  0.1180
    4MOL   C348 2634   3.453   2.667   4.825 -0.2778 -0.6181  0.3114
    4MOL   C349 2635   3.395   2.805   4.866  0.3480 -0.8311 -0.5707
    4MOL   C350 2636   3.418   2.908   4.757 -0.0708  0.2308 -0.4286
    4MOL   C351 2637   3.345   3.042   4.797  0.3452 -0.8378  0.0180
    4MOL   O352 2638   3.386   3.146   4.704  0.6955  0.9091 -0.2942
    4MOL   C353 2639   3.433   3.267   4.753 -0.3171 -0.5046  0.1753
    4MOL   O354 2640   3.460   3.280   4.872 -0.3289  0.4765  0.6119
    4MOL   C355 2641   3.455   3.372   4.651 -0.6205  0.4115  0.0902
    4MOL   C356 2642   3.430   3.353   4.515  0.3370 -0.8403  0.4854
    4MOL   C357 2643   3.443   3.463   4.427  0.4536  0.3031 -0.0119
    4MOL   C358 2644   3.484   3.587   4.474 -1.1705  0.4003  0.3262
    4MOL   C359 2645   3.507   3.701   4.376  0.2867 -0.1613  0.3626
    4MOL   O360 2646   3.558   3.808   4.407  0.3072 -0.3327  0.3843
    4MOL   O361 2647   3.464   3.672   4.254  0.2885  0.2098 -0.3625
    4MOL   C362 2648   3.519   3.600   4.611  0.0403 -0.1043 -0.0781
    4MOL   C363 2649   3.504   3.492   4.699  0.3067 -0.5064 -0.3214
    4MOL   H364 2650   3.256   2.882   4.616  0.9652  1.9088  0.9575
    4MOL   H365 2651   3.389   2.938   4.544  0.3166 -1.4217 -1.3647
    4MOL   H366 2652   3.520   2.723   4.552  0.8952  3.0948  0.3181
    4MOL   H367 2653   3.381   2.685   4.481 -0.0135 -0.8745  0.5386
    4MOL   H368 2654   3.285   2.620   4.724 -0.7023  0.7775 -1.3531
    4MOL   H369 2655   3.458   2.434   4.738  0.8590  0.1716  0.2485
    4MOL   H370 2656   3.494   2.483   4.571  0.2930  0.3025  0.2568
    4MOL   H371 2657   3.559   2.673   4.802 -0.4210  1.7309  0.1915
    4MOL   H372 2658   3.440   2.595   4.906 -0.3944  0.8188  1.5896
    4MOL   H373 2659   3.290   2.802   4.893  0.6799 -1.0566  0.7140
    4MOL   H374 2660   3.440   2.833   4.961  0.1386 -2.0462 -0.1128
    4MOL   H375 2661   3.523   2.937   4.747  0.0605 -0.1460 -0.1596
    4MOL   H376 2662   3.378   3.075   4.895  1.9925 -1.1036 -0.4286
    4MOL   H377 2663   3.237   3.035   4.794  0.2408  0.7866 -0.8979
    4MOL   H378 2664   3.417   3.256   4.468 -2.9334 -0.3925  0.3924
    4MOL   H379 2665   3.441   3.437   4.322  0.8434  0.0151  0.0502
    4MOL   H380 2666   3.552   3.695   4.648  1.1588 -0.2407 -0.6869
    4MOL   H381 2667   3.542   3.500   4.800 -1.4155 -1.7969  0.4430
    4MOL   C382 2668   3.449   3.606   3.800  0.0950  0.7376 -0.9085
    4MOL   C383 2669   3.481   3.628   3.953  0.8325 -0.1127 -0.0333
    4MOL   C384 2670   3.389   3.738   4.030 -0.1998  1.2870 -0.5977
    4MOL   C385 2671   3.456   3.778   4.163 -0.5486  0.3734 -0.1253
    4MOL   C386 2672   3.381   3.863   3.949 -0.3798 -0.4408 -0.3661
    4MOL   C387 2673   3.336   3.835   3.801 -0.1377 -0.3613 -0.2517
    4MOL   C388 2674   3.437   3.745   3.729  0.7100 -0.2819  0.4094
    4MOL   C389 2675   3.429   3.733   3.575  0.5594  0.2083 -1.2572
    4MOL   O390 2676   3.418   3.859   3.512  0.5343 -0.5681  0.4869
    4MOL   C391 2677   3.529   3.939   3.510 -0.6221 -0.1933  0.0777
    4MOL   O392 2678   3.642   3.896   3.531  0.6377  0.4475  0.7596
    4MOL   C393 2679   3.507   4.078   3.464 -0.2708 -0.3766 -0.2941
    4MOL   C394 2680   3.608   4.169   3.432 -0.3692 -0.4186 -0.7472
    4MOL   C395 2681   3.586   4.299   3.395 -0.0682 -0.3091  0.6127
    4MOL   C396 2682   3.455   4.348   3.384  0.4204  0.0196  0.5355
    4MOL   C397 2683   3.427   4.486   3.334  0.1997  0.1278  0.1809
    4MOL   O398 2684   3.314   4.529   3.327  0.3868 -0.4092  0.1455
    4MOL   O399 2685   3.527   4.554   3.285 -0.2839  0.1162 -0.5657
    4MOL   C400 2686   3.344   4.255   3.405 -0.2152  0.5279 -0.2659
    4MOL   C401 2687   3.373   4.126   3.454  0.2599 -0.1845 -0.9832
    4MOL   H402 2688   3.361   3.541   3.808  0.3563  0.6588  1.7671
    4MOL   H403 2689   3.531   3.553   3.752 -1.0070  0.2262 -2.2857
    4MOL   H404 2690   3.586   3.654   3.965  0.2202  1.5555  1.8844
    4MOL   H405 2691   3.478   3.539   4.016  1.4787 -0.1696 -0.0825
    4MOL   H406 2692   3.290   3.696   4.042  0.7518 -1.7956 -2.9070
    4MOL   H407 2693   3.401   3.864   4.200 -1.3775 -0.1232 -0.1885
    4MOL   H408 2694   3.557   3.816   4.150 -0.0876 -0.2261  1.5512
    4MOL   H409 2695   3.476   3.916   3.951 -1.3357  1.3401 -0.7607
    4MOL   H410 2696   3.310   3.934   3.992  0.4232  0.0063  0.2388
    4MOL   H411 2697   3.242   3.779   3.795  0.2471 -1.3047  1.9883
    4MOL   H412 2698   3.328   3.926   3.743 -0.0607 -0.8337 -1.0090
    4MOL   H413 2699   3.532   3.797   3.744  0.3824  1.2298 -2.3386
    4MOL   H414 2700   3.340   3.675   3.550 -0.9135  1.5571  0.7351
    4MOL   H415 2701   3.504   3.670   3.526  0.1664 -0.8403 -0.5277
    4MOL   H416 2702   3.710   4.134   3.432 -0.1790  0.0682  0.9507
    4MOL   H417 2703   3.665   4.364   3.359  0.1231 -1.0199 -0.2812
    4MOL   H418 2704   3.242   4.288   3.399  0.0047  1.2924  0.1135
    4MOL   H419 2705   3.290   4.063   3.481 -0.3288  0.9473 -0.0823
    4MOL   C420 2706   3.644   4.597   2.853 -0.2271  0.6234 -0.2220
    4MOL   C421 2707   3.647   4.632   3.004 -0.0137  0.6016  0.0791
    4MOL   C422 2708   3.503   4.627   3.061 -0.1508 -0.7161 -0.3320
    4MOL   C423 2709   3.506   4.669   3.207  0.5836  0.1057  0.3172
    4MOL   C424 2710   3.412   4.724   2.981  0.1328 -0.3785 -0.5790
    4MOL   C425 2711   3.415   4.705   2.826  0.0572  0.3276  0.1118
    4MOL   C426 2712   3.557   4.696   2.765 -0.1205  0.2730 -0.4614
    4MOL   C427 2713   3.555   4.656   2.619 -0.2525 -0.0740  0.3763
    4MOL   O428 2714   3.500   4.527   2.597  0.1160  0.0908 -0.1435
    4MOL   C429 2715   3.599   4.432   2.577 -0.5314  0.1515  0.4312
    4MOL   O430 2716   3.719   4.458   2.574 -0.1448  0.8102 -0.6813
    4MOL   C431 2717   3.545   4.299   2.553 -0.3407  0.6333  0.0451
    4MOL   C432 2718   3.405   4.273   2.575 -0.4070  0.0222 -0.0210
    4MOL   C433 2719   3.355   4.145   2.554 -0.3814 -0.3419  0.8514
    4MOL   C434 2720   3.436   4.036   2.533  0.0923 -0.0815  0.3284
    4MOL   C435 2721   3.384   3.889   2.518  0.0663  0.1670  0.6162
    4MOL   O436 2722   3.455   3.790   2.483  0.0516  0.1881 -0.1155
    4MOL   O437 2723   3.256   3.877   2.552  0.3429 -0.0671 -0.3184
    4MOL   C438 2724   3.575   4.052   2.506  0.6602 -0.6837 -0.3894
    4MOL   C439 2725   3.631   4.187   2.516  0.3060  0.2923 -0.4826
    4MOL   H440 2726   3.603   4.496   2.855  1.6645 -0.1726 -0.2521
    4MOL   H441 2727   3.744   4.580   2.814  0.0960 -0.3541  0.9784
    4MOL   H442 2728   3.711   4.719   3.020  1.2004 -0.6326  2.2146
    4MOL   H443 2729   3.704   4.554   3.054  1.7330  2.1652  0.5704
    4MOL   H444 2730   3.456   4.529   3.056  0.4838 -0.9635 -1.5757
    4MOL   H445 2731   3.427   4.740   3.232  0.9933  0.7207 -0.1279
    4MOL   H446 2732   3.598   4.725   3.221  0.2004  1.5148 -2.5108
    4MOL   H447 2733   3.439   4.826   3.010  0.7376 -0.4752 -0.8038
    4MOL   H448 2734   3.312   4.696   3.015  1.1648 -3.5686 -0.0458
    4MOL   H449 2735   3.361   4.613   2.799 -0.5921  1.1228 -1.3508
    4MOL   H450 2736   3.360   4.778   2.767 -1.5836 -0.7744  0.2265
    4MOL   H451 2737   3.602   4.796   2.760  0.3516  0.1163  0.5941
    4MOL   H452 2738   3.655   4.668   2.577 -0.3441 -1.2504 -0.2048
    4MOL   H453 2739   3.489   4.726   2.569 -0.3666 -1.2466 -1.1233
    4MOL   H454 2740   3.339   4.348   2.617 -0.1685 -1.0356  2.3601
    4MOL   H455 2741   3.249   4.123   2.561 -0.7141 -0.0455 -2.3882
    4MOL   H456 2742   3.642   3.972   2.480  1.4878  0.2095 -1.0508
    4MOL   H457 2743   3.736   4.211   2.511  0.2029  1.2623  1.4401
    4MOL   C458 2744   3.142   3.671   2.920  0.1867  0.5130  0.4185
    4MOL   C459 2745   3.212   3.707   2.789  0.2836 -0.1875  0.4614
    4MOL   C460 2746   3.103   3.740   2.679 -0.2288  0.3965  0.2101
    4MOL   C461 2747   3.177   3.767   2.540 -0.0391 -0.6422 -0.1875
    4MOL   C462 2748   3.006   3.624   2.663 -0.2078 -0.2580  0.6706
    4MOL   C463 2749   2.935   3.589   2.794 -0.6283 -0.2377 -0.0133
    4MOL   C464 2750   3.039   3.553   2.908  0.2491  0.0793  0.5787
    4MOL   C465 2751   2.975   3.529   3.045  0.2425  0.0024 -0.0392
    4MOL   O466 2752   2.905   3.642   3.080  0.5293  0.1921  0.2594
    4MOL   C467 2753   2.818   3.637   3.185 -0.6296 -0.1264  0.6621
    4MOL   O468 2754   2.803   3.536   3.247  0.3390  0.0532  0.2220
    4MOL   C469 2755   2.741   3.759   3.193 -0.1129  0.2982  0.3835
    4MOL   C470 2756   2.689   3.795   3.318  0.1531  0.2368 -0.0573
    4MOL   C471 2757   2.595   3.899   3.327 -0.5926 -0.0529 -0.3841
    4MOL   C472 2758   2.561   3.976   3.213  0.2623  0.3355  0.5273
    4MOL   C473 2759   2.462   4.086   3.219 -0.6198 -0.1547 -0.3696
    4MOL   O474 2760   2.425   4.154   3.120 -0.1880  0.4537 -0.2296
    4MOL   O475 2761   2.421   4.111   3.342 -0.1084 -0.2302 -0.2685
    4MOL   C476 2762   2.615   3.934   3.087 -0.5475  0.2220  0.1693
    4MOL   C477 2763   2.705   3.826   3.075 -0.5418 -0.0647 -0.0503
    4MOL   H478 2764   3.091   3.759   2.960  0.8525  0.4563  1.4346
    4MOL   H479 2765   3.211   3.644   3.001  0.3623  0.8623  0.3887
    4MOL   H480 2766   3.263   3.620   2.748 -1.5425 -1.1463  0.1806
    4MOL   H481 2767   3.288   3.784   2.796 -1.9811  2.1153  0.3964
    4MOL   H482 2768   3.061   3.838   2.699  1.3351  0.8272  1.4343
    4MOL   H483 2769   3.106   3.783   2.459 -0.3901 -0.8519  0.0786
    4MOL   H484 2770   3.226   3.671   2.521  0.6790 -0.8018  2.2469
    4MOL   H485 2771   3.068   3.539   2.634 -0.4172 -0.4750  0.8573
    4MOL   H486 2772   2.934   3.638   2.583  0.0709 -0.3880  0.3947
    4MOL   H487 2773   2.878   3.677   2.822  0.7069  0.3768  0.8415
    4MOL   H488 2774   2.856   3.514   2.789  0.0309 -0.9972  0.7924
    4MOL   H489 2775   3.095   3.465   2.876 -0.8806 -0.4665  0.0655
    4MOL   H490 2776   3.052   3.519   3.121  0.9065 -2.2211 -0.9752
    4MOL   H491 2777   2.906   3.444   3.048  1.4393 -0.9510  2.5802
    4MOL   H492 2778   2.705   3.743   3.411 -0.8070 -2.8109 -1.4993
    4MOL   H493 2779   2.554   3.932   3.421  1.2113 -1.1655  0.8405
    4MOL   H494 2780   2.593   3.995   3.001 -2.7801  0.0878  0.6066
    4MOL   H495 2781   2.760   3.789   2.989 -0.9228  1.4788 -0.9909
    4MOL   C496 2782   2.128   4.369   3.654 -0.3541 -0.1842 -1.3316
    4MOL   C497 2783   2.162   4.322   3.512  0.6179 -0.7436 -0.1711
    4MOL   C498 2784   2.285   4.233   3.511 -0.2871 -0.1707  0.4642
    4MOL   C499 2785   2.317   4.204   3.360  0.1403  0.1213  0.6061
    4MOL   C500 2786   2.404   4.279   3.587 -0.4980  0.0030  0.0249
    4MOL   C501 2787   2.366   4.308   3.731  0.5151  0.6223 -0.1150
    4MOL   C502 2788   2.249   4.418   3.735 -0.2351  0.1342  0.0833
    4MOL   C503 2789   2.219   4.449   3.889 -0.0666  0.3195 -0.0378
    4MOL   O504 2790   2.267   4.576   3.914  0.1699  0.2684 -0.0437
    4MOL   C505 2791   2.224   4.638   4.028  0.3856 -0.1342 -0.2423
    4MOL   O506 2792   2.129   4.596   4.097 -0.2487 -0.4969  0.3554
    4MOL   C507 2793   2.293   4.767   4.055  0.2879  0.1653  0.3887
    4MOL   C508 2794   2.272   4.836   4.177  0.8413  0.2197 -0.0561
    4MOL   C509 2795   2.342   4.956   4.205  0.6007 -0.2396  0.1261
    4MOL   C510 2796   2.425   5.012   4.105  0.3742  0.7767 -0.0092
    4MOL   C511 2797   2.499   5.140   4.128 -0.1408  0.5775  0.3585
    4MOL   O512 2798   2.478   5.206   4.227  0.4120 -0.6465 -0.4057
    4MOL   O513 2799   2.580   5.166   4.033  0.1850 -0.3870 -0.2756
    4MOL   C514 2800   2.440   4.948   3.981 -1.0310 -0.3290 -0.2228
    4MOL   C515 2801   2.375   4.828   3.953 -0.0607 -0.4268 -0.2054
    4MOL   H516 2802   2.088   4.287   3.715  0.5240  1.1713  1.1141
    4MOL   H517 2803   2.057   4.450   3.666  0.9192  0.5538  1.5371
    4MOL   H518 2804   2.189   4.410   3.453  2.5339 -1.7537 -0.8633
    4MOL   H519 2805   2.077   4.279   3.459  0.6515 -1.2733  0.2040
    4MOL   H520 2806   2.249   4.141   3.558  1.4890 -0.0929  2.0366
    4MOL   H521 2807   2.355   4.300   3.324  1.3578  0.7031  3.3352
    4MOL   H522 2808   2.231   4.174   3.299  2.2866 -0.4392 -2.2598
    4MOL   H523 2809   2.448   4.367   3.541  0.7226 -0.7406 -0.2390
    4MOL   H524 2810   2.483   4.204   3.585  0.0636  0.6209 -0.9674
    4MOL   H525 2811   2.330   4.219   3.783 -1.2627  1.5419  0.2606
    4MOL   H526 2812   2.459   4.345   3.773  0.3194 -1.3926  2.2150
    4MOL   H527 2813   2.286   4.508   3.687 -2.0676  1.5958  1.2943
    4MOL   H528 2814   2.258   4.371   3.955 -0.5335  0.0099 -0.1212
    4MOL   H529 2815   2.112   4.437   3.911 -0.8143  1.1952 -2.9615
    4MOL   H530 2816   2.221   4.784   4.257  1.7840  0.5249  0.7554
    4MOL   H531 2817   2.343   5.003   4.303  2.2946 -1.9867  0.9694
    4MOL   H532 2818   2.500   4.998   3.906 -2.8114 -0.8610 -2.0410
    4MOL   H533 2819   2.387   4.774   3.860 -0.2991 -2.7703  1.0751
    4MOL   C534 2820   2.654   5.560   3.724  0.5114 -0.3356  0.0685
    4MOL   C535 2821   2.691   5.479   3.846  0.0255  0.1890 -0.0882
    4MOL   C536 2822   2.623   5.343   3.864  0.1703 -0.4605  0.0611
    4MOL   C537 2823   2.643   5.289   4.014 -0.1987 -0.0655  0.4363
    4MOL   C538 2824   2.469   5.353   3.838 -0.3456  0.1650 -0.2420
    4MOL   C539 2825   2.427   5.437   3.720 -0.0804  0.4919  0.6814
    4MOL   C540 2826   2.492   5.574   3.705 -0.9232  0.2050  0.1205
    4MOL   C541 2827   2.457   5.620   3.565  0.6241 -0.0402 -0.4550
    4MOL   O542 2828   2.524   5.544   3.459  0.6854  0.1440  0.4307
    4MOL   C543 2829   2.486   5.561   3.331  0.9912 -0.5322  0.3922
    4MOL   O544 2830   2.383   5.622   3.297 -0.1420 -0.1575 -0.1276
    4MOL   C545 2831   2.588   5.500   3.236  0.1727  0.4506 -0.3962
    4MOL   C546 2832   2.706   5.435   3.292  0.5850  0.5484 -0.1189
    4MOL   C547 2833   2.791   5.366   3.211 -0.1848 -0.3325  0.6083
    4MOL   C548 2834   2.772   5.362   3.068 -0.2277 -0.7205  0.4258
    4MOL   C549 2835   2.857   5.284   2.979  0.2474 -0.2663  0.3437
    4MOL   O550 2836   2.970   5.242   3.022  0.5843 -0.3036 -0.2179
    4MOL   O551 2837   2.814   5.271   2.852 -0.1916 -1.0339  0.3671
    4MOL   C552 2838   2.666   5.439   3.017 -0.0529 -0.6825 -0.2715
    4MOL   C553 2839   2.571   5.506   3.101  0.4592 -0.2883 -0.1205
    4MOL   H554 2840   2.692   5.498   3.643  0.6440  0.6207 -0.6127
    4MOL   H555 2841   2.712   5.652   3.715  1.0502 -0.6924 -0.1499
    4MOL   H556 2842   2.676   5.544   3.933  1.5111  2.4775 -1.4684
    4MOL   H557 2843   2.800   5.467   3.852  0.0429  1.1407  2.2510
    4MOL   H558 2844   2.669   5.286   3.783 -0.8887  1.0394 -1.6264
    4MOL   H559 2845   2.605   5.361   4.087  0.5538 -0.2190  0.9886
    4MOL   H560 2846   2.748   5.265   4.025 -0.5225 -1.7460  0.0917
    4MOL   H561 2847   2.411   5.393   3.921  1.5812 -0.1039  1.2646
    4MOL   H562 2848   2.433   5.251   3.833  0.5921 -0.2340  0.9740
    4MOL   H563 2849   2.455   5.385   3.628  1.6962  1.8105  0.4493
    4MOL   H564 2850   2.322   5.460   3.699  0.3043  0.4897 -1.4008
    4MOL   H565 2851   2.442   5.630   3.784 -1.4965 -1.5858  1.0419
    4MOL   H566 2852   2.492   5.722   3.546  3.0871 -1.1677 -2.2551
    4MOL   H567 2853   2.351   5.622   3.540  1.0053  0.3956 -2.1157
    4MOL   H568 2854   2.734   5.437   3.396 -0.6646 -1.8356  0.3099
    4MOL   H569 2855   2.878   5.319   3.254 -0.3256 -0.3399  0.8841
    4MOL   H570 2856   2.656   5.439   2.909 -0.5141 -0.7125 -0.2311
    4MOL   H571 2857   2.485   5.559   3.063  1.2289  2.0244  1.2530
    4MOL   C572 2858   2.987   5.602   2.670  0.2955 -0.2636 -0.0152
    4MOL   C573 2859   2.898   5.480   2.692  0.3338 -0.4119 -0.1150
    4MOL   C574 2860   2.990   5.356   2.715 -0.1917 -0.1274  0.0080
    4MOL   C575 2861   2.907   5.232   2.755 -0.0127 -0.1649 -0.9751
    4MOL   C576 2862   3.069   5.339   2.581 -0.4441 -0.6990 -0.5084
    4MOL   C577 2863   3.161   5.462   2.555 -0.0765  0.0142  0.0454
    4MOL   C578 2864   3.074   5.585   2.548  0.1865 -0.2716  0.8200
    4MOL   C579 2865   3.164   5.711   2.533 -0.2166  0.5758  0.1698
    4MOL   O580 2866   3.084   5.819   2.483  0.2705  0.2435 -0.0827
    4MOL   C581 2867   3.081   5.853   2.351 -0.5125  0.2957  0.0277
    4MOL   O582 2868   3.164   5.809   2.275  0.5271 -0.3765  0.2729
    4MOL   C583 2869   2.980   5.959   2.318  0.8028 -0.4971 -0.0967
    4MOL   C584 2870   2.873   5.988   2.403  0.0224  0.0264  0.3304
    4MOL   C585 2871   2.783   6.093   2.366  0.3595 -0.0191 -0.1336
    4MOL   C586 2872   2.806   6.163   2.246  0.2634 -0.2352 -0.4051
    4MOL   C587 2873   2.710   6.273   2.208  0.0235  0.0279 -0.2366
    4MOL   O588 2874   2.690   6.307   2.091  0.0829 -0.2188  0.3641
    4MOL   O589 2875   2.651   6.333   2.314  0.7108 -0.0720 -0.5769
    4MOL   C590 2876   2.912   6.135   2.162  0.4377  0.0888  0.0332
    4MOL   C591 2877   3.000   6.036   2.200 -0.2246 -0.1166 -0.0783
    4MOL   H592 2878   3.056   5.616   2.753  1.3441  4.1655 -1.5193
    4MOL   H593 2879   2.922   5.689   2.683  1.6498  0.6339  0.8332
    4MOL   H594 2880   2.844   5.456   2.600  0.9986 -2.0156 -0.0989
    4MOL   H595 2881   2.825   5.500   2.771  0.2948  0.0067 -0.2551
    4MOL   H596 2882   3.057   5.372   2.799 -0.7352  0.7106  0.2939
    4MOL   H597 2883   2.969   5.152   2.793  0.8003  1.5807  1.4841
    4MOL   H598 2884   2.842   5.195   2.675  1.2959 -2.2216 -1.1071
    4MOL   H599 2885   3.006   5.330   2.494 -1.8036 -3.2661  0.6796
    4MOL   H600 2886   3.128   5.247   2.591 -0.1428 -0.4122  0.4455
    4MOL   H601 2887   3.233   5.472   2.637  0.7523 -0.0741 -0.6701
    4MOL   H602 2888   3.215   5.450   2.461  0.7491  1.2219  0.3542
    4MOL   H603 2889   3.020   5.571   2.454  1.5712  0.2249 -0.0627
    4MOL   H604 2890   3.243   5.689   2.461 -0.4623 -1.1516  0.4072
    4MOL   H605 2891   3.210   5.741   2.627 -1.0011 -0.1441  0.7926
    4MOL   H606 2892   2.856   5.934   2.495 -1.9996  1.2095  0.6800
    4MOL   H607 2893   2.704   6.126   2.432 -1.2321 -0.2918 -1.8482
    4MOL   H608 2894   2.938   6.187   2.071 -0.6986 -1.5317 -1.2635
    4MOL   H609 2895   3.083   6.004   2.139 -0.3643  0.2031 -0.4339
    4MOL   C610 2896   2.617   6.601   2.650  0.2138  0.1633 -0.4040
    4MOL   C611 2897   2.572   6.494   2.546 -0.3324  0.0560  0.0715
    4MOL   C612 2898   2.573   6.552   2.402 -0.6132  0.4225 -1.5107
    4MOL   C613 2899   2.554   6.435   2.306 -0.2723  0.4480  0.0865
    4MOL   C614 2900   2.487   6.677   2.387 -0.3139 -0.1515  0.6322
    4MOL   C615 2901   2.511   6.780   2.499  0.3643  0.4406 -0.8418
    4MOL   C616 2902   2.512   6.711   2.640 -0.3662  0.3845  0.5567
    4MOL   C617 2903   2.534   6.821   2.744 -1.0782  0.3494  0.2555
    4MOL   O618 2904   2.433   6.927   2.737  0.0918 -0.2726 -0.2499
    4MOL   C619 2905   2.449   7.055   2.758  0.1366 -0.2318  0.4165
    4MOL   O620 2906   2.549   7.103   2.809  0.3417 -0.2807  0.6959
    4MOL   C621 2907   2.327   7.128   2.722  0.6499  0.2083  0.4123
    4MOL   C622 2908   2.236   7.080   2.628 -0.2843 -0.0795 -0.5147
    4MOL   C623 2909   2.118   7.151   2.586 -0.9331 -0.8384  0.1930
    4MOL   C624 2910   2.098   7.276   2.646 -0.3285  0.4677 -0.3620
    4MOL   C625 2911   1.976   7.347   2.606  0.2979 -0.6029  0.3672
    4MOL   O626 2912   1.908   7.327   2.502  0.1637 -0.1039  0.3449
    4MOL   O627 2913   1.928   7.429   2.698 -0.2748 -0.6731  0.3860
    4MOL   C628 2914   2.195   7.340   2.726 -0.6678 -0.0020 -0.7395
    4MOL   C629 2915   2.305   7.262   2.762  0.1488  0.1018 -0.5692
    4MOL   H630 2916   2.716   6.645   2.638 -0.2234  1.6783  1.1702
    4MOL   H631 2917   2.609   6.584   2.758  1.3009  1.6982 -0.0544
    4MOL   H632 2918   2.474   6.452   2.566  0.3777 -0.9414  1.5147
    4MOL   H633 2919   2.655   6.423   2.552  0.0134  0.5220  0.9694
    4MOL   H634 2920   2.674   6.590   2.385  0.3743 -1.0482  0.8053
    4MOL   H635 2921   2.528   6.468   2.205  0.2268  3.0031  0.7714
    4MOL   H636 2922   2.456   6.396   2.332 -0.3235  1.7376  1.8603
    4MOL   H637 2923   2.387   6.636   2.385 -0.2519 -0.2548 -1.0391
    4MOL   H638 2924   2.499   6.733   2.294  2.5267 -0.1562  0.9278
    4MOL   H639 2925   2.614   6.815   2.496  0.5483  0.1267  1.3172
    4MOL   H640 2926   2.443   6.865   2.497  2.2339  1.9877 -0.6457
    4MOL   H641 2927   2.412   6.670   2.645  0.0870 -0.7046  0.7741
    4MOL   H642 2928   2.630   6.869   2.725  0.3297 -2.0979  1.0021
    4MOL   H643 2929   2.542   6.789   2.848  2.0496 -0.7681 -0.2812
    4MOL   H644 2930   2.254   6.985   2.580  0.9520 -1.1664  1.9791
    4MOL   H645 2931   2.053   7.116   2.508 -2.5717  1.2075  0.5691
    4MOL   H646 2932   2.190   7.441   2.763 -0.2243 -0.3816  0.3573
    4MOL   H647 2933   2.390   7.309   2.810 -0.6025  1.2825 -0.3836
    4MOL   C648 2934   1.785   7.270   3.092 -1.1348  0.3833  0.8733
    4MOL   C649 2935   1.806   7.278   2.939 -0.2259 -0.4408 -0.4074
    4MOL   C650 2936   1.782   7.420   2.884  0.0764 -0.5402  0.1745
    4MOL   C651 2937   1.790   7.435   2.731 -0.3183 -0.6455 -0.0275
    4MOL   C652 2938   1.642   7.478   2.925  0.5323 -0.1446  0.3514
    4MOL   C653 2939   1.635   7.479   3.071  0.7294  0.4578  0.0601
    4MOL   C654 2940   1.660   7.339   3.136 -0.5288  0.4961  0.3684
    4MOL   C655 2941   1.651   7.332   3.290 -0.0380 -0.3571 -0.4716
    4MOL   O656 2942   1.514   7.322   3.326 -0.5620 -0.2141  0.0991
    4MOL   C657 2943   1.484   7.338   3.453 -0.1560 -0.4331 -0.9392
    4MOL   O658 2944   1.567   7.373   3.541  0.2426 -0.1796 -0.7593
    4MOL   C659 2945   1.339   7.321   3.476 -0.5511 -0.7581  0.7287
    4MOL   C660 2946   1.293   7.312   3.610 -0.8067 -0.2080 -0.2232
    4MOL   C661 2947   1.157   7.318   3.637  0.4384 -0.0978  0.1717
    4MOL   C662 2948   1.063   7.315   3.531 -0.0179 -0.0959 -0.6983
    4MOL   C663 2949   0.923   7.292   3.568 -0.5592  0.5251 -0.3846
    4MOL   O664 2950   0.878   7.304   3.687 -0.4642  0.0390  0.5687
    4MOL   O665 2951   0.843   7.264   3.457 -1.0073 -0.4946 -0.4226
    4MOL   C666 2952   1.106   7.323   3.395 -0.3056  0.5249 -0.4626
    4MOL   C667 2953   1.246   7.326   3.371  0.2025 -0.2172 -0.3004
    4MOL   H668 2954   1.862   7.330   3.142  1.1947 -2.1686  0.4864
    4MOL   H669 2955   1.807   7.171   3.131  2.0084  1.0250  0.8703
    4MOL   H670 2956   1.731   7.209   2.900  1.0949 -2.3959  0.3676
    4MOL   H671 2957   1.902   7.239   2.905 -0.0673  0.2540 -0.7410
    4MOL   H672 2958   1.851   7.496   2.920  0.0019 -0.6940  0.6494
    4MOL   H673 2959   1.742   7.526   2.695 -0.5903 -0.7904 -0.0322
    4MOL   H674 2960   1.739   7.355   2.677 -1.3598 -0.3110  0.4592
    4MOL   H675 2961   1.568   7.411   2.882  2.4791 -1.1135 -1.5522
    4MOL   H676 2962   1.616   7.573   2.878  0.8633 -0.8335 -1.2663
    4MOL   H677 2963   1.714   7.549   3.098  2.0041 -0.5025 -1.0624
    4MOL   H678 2964   1.543   7.524   3.106  0.6133 -1.1538  1.8701
    4MOL   H679 2965   1.586   7.272   3.091  2.4528 -0.2640 -3.6816
    4MOL   H680 2966   1.694   7.418   3.342 -0.1681 -1.2853  1.2146
    4MOL   H681 2967   1.696   7.245   3.338 -0.8153  0.3228  1.5460
    4MOL   H682 2968   1.372   7.325   3.683 -1.1234 -0.5730  0.1893
    4MOL   H683 2969   1.128   7.289   3.736 -1.2271  1.2798  0.0899
    4MOL   H684 2970   1.035   7.331   3.314 -0.7545  1.6758  0.0301
    4MOL   H685 2971   1.287   7.337   3.272 -0.7209  0.3709 -0.6208
    4MOL   C686 2972   0.393   7.441   3.383  0.1657  0.4857  0.4959
    4MOL   C687 2973   0.483   7.329   3.431  0.4562  0.6010  0.1074
    4MOL   C688 2974   0.632   7.368   3.420 -0.4389 -0.5569 -0.5035
    4MOL   C689 2975   0.709   7.246   3.479  1.1920  0.1977 -0.4286
    4MOL   C690 2976   0.669   7.423   3.282 -0.5899  0.3890 -0.3899
    4MOL   C691 2977   0.585   7.543   3.250 -0.0002  0.0938  0.7804
    4MOL   C692 2978   0.433   7.507   3.245 -0.0920  0.5791 -0.6544
    4MOL   C693 2979   0.356   7.639   3.223  1.0860  0.5675 -0.0461
    4MOL   O694 2980   0.323   7.668   3.085  0.2806 -0.3521 -0.5667
    4MOL   C695 2981   0.375   7.770   3.029  0.3567 -0.1953 -0.5288
    4MOL   O696 2982   0.474   7.835   3.067  0.6214 -0.0642 -0.3209
    4MOL   C697 2983   0.310   7.808   2.899 -0.4240  1.0324 -0.0157
    4MOL   C698 2984   0.196   7.735   2.855  0.3944 -0.2708 -0.5786
    4MOL   C699 2985   0.131   7.769   2.737 -0.6211  0.2014 -0.5598
    4MOL   C700 2986   0.174   7.870   2.657 -0.0942  0.0355  0.0347
    4MOL   C701 2987   0.097   7.907   2.545 -0.1719 -0.4485 -0.2073
    4MOL   O702 2988   0.025   7.828   2.486  0.9745 -0.5427 -0.4257
    4MOL   O703 2989   0.111   0.007   2.522  0.3163  0.7080  0.4118
    4MOL   C704 2990   0.291   7.940   2.689 -0.2952 -0.1317 -0.4660
    4MOL   C705 2991   0.355   7.914   2.815  0.0869 -0.3005 -1.6865
    4MOL   H706 2992   0.403   7.511   3.465  2.2920 -0.6417  1.2521
    4MOL   H707 2993   0.294   7.397   3.394  0.6913 -0.3451  2.1706
    4MOL   H708 2994   0.458   7.246   3.366  0.1626  1.9550 -1.5535
    4MOL   H709 2995   0.457   7.300   3.533  2.6973  0.9398  0.7961
    4MOL   H710 2996   0.645   7.449   3.492 -0.8168  0.7958 -1.9599
    4MOL   H711 2997   0.681   7.150   3.435 -0.0704  0.7109 -0.7622
    4MOL   H712 2998   0.684   7.234   3.585 -0.6932  1.5876 -0.6870
    4MOL   H713 2999   0.658   7.340   3.212  3.0975  0.7770 -1.5802
    4MOL   H714 3000   0.776   7.444   3.280 -0.4199 -0.3113  0.8308
    4MOL   H715 3001   0.600   7.628   3.317  0.9199  0.1413  0.5122
    4MOL   H716 3002   0.627   7.566   3.152 -1.7484 -0.4795 -0.1250
    4MOL   H717 3003   0.410   7.443   3.159  1.3671 -2.8675  1.4217
    4MOL   H718 3004   0.408   7.721   3.273 -0.4212  1.4563  0.0851
    4MOL   H719 3005   0.264   7.628   3.281  0.6602  2.2931 -0.3557
    4MOL   H720 3006   0.154   7.649   2.906  1.4242 -1.3869 -1.6003
    4MOL   H721 3007   0.045   7.714   2.703 -0.1478  0.8639 -2.9484
    4MOL   H722 3008   0.330   8.016   2.624 -0.4940  0.6057  0.2743
    4MOL   H723 3009   0.444   7.964   2.850  0.4225 -2.0570  0.0971
    4MOL   C724 3010   0.119   0.263   2.103  0.9028 -0.1421 -0.0455
    4MOL   C725 3011   0.032   0.203   2.219  0.1985  0.1481  0.6343
    4MOL   C726 3012   0.110   0.112   2.309 -0.3149  0.7615  0.1772
    4MOL   C727 3013   0.024   0.063   2.428 -0.3510 -0.5154 -0.3371
    4MOL   C728 3014   0.194   0.009   2.239  0.5216  0.8247 -0.0355
    4MOL   C729 3015   0.274   0.061   2.116  0.0266  0.4540  0.0101
    4MOL   C730 3016   0.185   0.148   2.028 -0.3630  0.5194  0.3765
    4MOL   C731 3017   0.267   0.196   1.904  0.7830  0.3548 -0.1501
    4MOL   O732 3018   0.190   0.232   1.791 -0.4220 -0.6516  0.1781
    4MOL   C733 3019   0.259   0.300   1.693  0.4050 -0.3512 -0.0518
    4MOL   O734 3020   0.382   0.291   1.686  0.1443 -0.4020 -0.2616
    4MOL   C735 3021   0.177   0.384   1.604 -0.0340  0.3646  0.7491
    4MOL   C736 3022   0.230   0.436   1.480  1.1578 -0.2527 -1.1025
    4MOL   C737 3023   0.143   0.492   1.384  0.5314 -0.1427 -1.0717
    4MOL   C738 3024   0.001   0.509   1.413  0.4464  0.3614 -0.2499
    4MOL   C739 3025   7.949   0.584   1.313  1.1388  0.5331  0.3014
    4MOL   O740 3026   7.989   0.610   1.204 -0.4880 -0.3126 -0.0004
    4MOL   O741 3027   7.829   0.625   1.366 -0.4608 -0.0234  0.2952
    4MOL   C742 3028   7.985   0.467   1.542  0.1651 -1.0469  0.4226
    4MOL   C743 3029   0.037   0.401   1.630 -0.0453 -1.1292  0.0260
    4MOL   H744 3030   0.186   0.337   2.144  1.2173 -0.2553 -0.3554
    4MOL   H745 3031   0.046   0.318   2.043  0.0388 -1.1901  0.0289
    4MOL   H746 3032   7.979   0.151   2.174  1.2228 -1.9510  1.0608
    4MOL   H747 3033   8.021   0.287   2.272 -1.5030 -0.7654  0.7470
    4MOL   H748 3034   0.172   0.188   2.357 -0.0803 -1.3733  3.4498
    4MOL   H749 3035   7.968   0.009   2.394 -0.5097 -0.5342  0.1017
    4MOL   H750 3036   8.008   0.154   2.465 -0.9375 -0.4083 -1.3598
    4MOL   H751 3037   0.121   7.962   2.221  1.6267 -0.4783  1.1384
    4MOL   H752 3038   0.260   7.995   2.312  2.4650 -0.4268 -2.5225
    4MOL   H753 3039   0.355   0.119   2.162  0.4704  0.2381 -0.5013
    4MOL   H754 3040   0.300   8.011   2.050  0.7376 -0.2524  1.1516
    4MOL   H755 3041   0.106   0.080   1.994 -0.6722 -0.2940  2.6682
    4MOL   H756 3042   0.336   0.120   1.866 -1.4143 -1.7869  0.0179
    4MOL   H757 3043   0.332   0.273   1.945  1.7661 -1.4651  1.8157
    4MOL   H758 3044   0.335   0.435   1.454  1.9833 -2.0585  2.0616
    4MOL   H759 3045   0.174   0.527   1.287  1.3495 -0.5485 -0.9587
    4MOL   H760 3046   7.882   0.469   1.573 -0.0187 -1.7538 -0.1365
    4MOL   H761 3047   8.013   0.367   1.716 -1.1946  2.7923  0.9011
    4MOL   H762 3048   7.789   0.684   1.305 -0.3366  0.6748  0.8799
    5MOL     C1 3049   4.980   1.758   0.615  0.0630  0.0965  0.8591
    5MOL     C2 3050   4.937   1.664   0.724  0.4251  0.6797  0.4099
    5MOL     C3 3051   5.049   1.607   0.803 -0.0925  0.1825  1.4549
    5MOL     C4 3052   4.994   1.526   0.922 -0.5348 -0.3907 -0.2863
    5MOL     C5 3053   5.145   1.534   0.699  0.1257  0.3203 -0.1653
    5MOL     C6 3054   5.197   1.625   0.589 -0.5497 -0.8574 -0.0296
    5MOL     C7 3055   5.072   1.693   0.515 -0.1376 -0.7315 -0.7582
    5MOL     C8 3056   5.120   1.784   0.396  1.1245  0.5136 -0.5732
    5MOL     O9 3057   5.178   1.709   0.292  0.2434  0.1344  0.1276
    5MOL    C10 3058   5.102   1.653   0.197  0.2712  0.3247  0.0743
    5MOL    O11 3059   4.981   1.663   0.190  0.3117  0.0481 -0.7133
    5MOL    C12 3060   5.183   1.567   0.101  0.0751  0.4542 -0.0525
    5MOL    C13 3061   5.323   1.548   0.115  0.9299  0.0089 -0.9274
    5MOL    C14 3062   5.398   1.468   0.020  0.8762  0.1764  0.5940
    5MOL    C15 3063   5.328   1.399   7.947  0.5069  0.1877  0.1544
    5MOL    C16 3064   5.396   1.322   7.848  0.6158 -1.2198 -0.2417
    5MOL    O17 3065   5.517   1.310   7.855  0.3241 -0.3133 -0.2758
    5MOL    O18 3066   5.319   1.270   7.751 -0.3994  0.7905  0.2293
    5MOL    C19 3067   5.189   1.419   7.937  0.8169  0.4881 -0.1127
    5MOL    C20 3068   5.121   1.507   8.020  0.3708 -0.4310 -0.0962
    5MOL    H21 3069   5.033   1.844   0.657  0.9664 -0.4361  0.8201
    5MOL    H22 3070   4.897   1.794   0.554  1.3646 -0.6449 -1.4015
    5MOL    H23 3071   4.868   1.593   0.680  1.0082 -0.0623  0.6765
    5MOL    H24 3072   4.871   1.721   0.790  1.3103  2.2170 -0.0020
    5MOL    H25 3073   5.106   1.686   0.850  1.4022 -0.0591  0.1016
    5MOL    H26 3074   4.953   1.426   0.906 -0.2684 -0.2376 -2.0788
    5MOL    H27 3075   4.921   1.580   0.983  0.2866 -1.4853  1.6992
    5MOL    H28 3076   5.104   1.455   0.636 -2.2054  0.4470  1.1715
    5MOL    H29 3077   5.226   1.486   0.754 -1.8321 -2.3095  0.5133
    5MOL    H30 3078   5.263   1.703   0.624 -1.7707 -0.5978  1.7648
    5MOL    H31 3079   5.248   1.564   0.513  0.9906  0.3853 -0.0023
    5MOL    H32 3080   5.014   1.614   0.468  1.4936 -1.2314 -1.9709
    5MOL    H33 3081   5.202   1.850   0.423  1.8726 -0.7987  0.4638
    5MOL    H34 3082   5.039   1.850   0.363 -0.8987 -0.9651  1.2228
    5MOL    H35 3083   5.374   1.588   0.202  1.4461 -0.5084 -0.9899
    5MOL    H36 3084   5.500   1.441   0.043  0.2047 -2.2181  0.8679
    5MOL    H37 3085   5.132   1.364   7.864 -0.3444 -0.1531  1.2647
    5MOL    H38 3086   5.019   1.531   7.991  0.5076  0.1690 -0.0793
    5MOL    H39 3087   5.075   1.507   0.992 -0.6701 -1.5216 -0.4319
    5MOL    C40 3088   5.092   1.179   7.381  0.3432 -0.3787 -0.1900
    5MOL    C41 3089   5.209   1.244   7.471  0.2881 -0.7370  0.4361
    5MOL    C42 3090   5.271   1.138   7.554 -0.0726  0.7829  0.3537
    5MOL    C43 3091   5.383   1.184   7.654 -0.6306  0.2994 -0.4670
    5MOL    C44 3092   5.156   1.068   7.632 -0.0279 -0.5726 -0.2137
    5MOL    C45 3093   5.050   1.003   7.543 -0.0734  0.5531  0.0571
    5MOL    C46 3094   4.984   1.100   7.448 -0.0429 -0.4625 -0.2405
    5MOL    C47 3095   4.897   1.025   7.340 -0.5629 -0.3571 -0.1153
    5MOL    O48 3096   4.772   0.965   7.387  0.1842 -0.1968 -0.2252
    5MOL    C49 3097   4.666   1.041   7.389 -0.7684 -0.2607 -0.5839
    5MOL    O50 3098   4.671   1.162   7.356 -0.8655  0.4331 -0.0024
    5MOL    C51 3099   4.547   0.966   7.444 -0.2170 -0.4023 -0.1498
    5MOL    C52 3100   4.425   1.036   7.456 -0.2235 -1.0304  0.3182
    5MOL    C53 3101   4.313   0.972   7.518  0.4327  0.5577  0.1291
    5MOL    C54 3102   4.326   0.847   7.590  0.8828 -0.4582 -0.7064
    5MOL    C55 3103   4.206   0.796   7.656  0.6110 -0.2595  0.2003
    5MOL    O56 3104   4.104   0.863   7.685  0.3692  0.0197  0.4723
    5MOL    O57 3105   4.224   0.672   7.701  0.2668 -0.3761 -0.0898
    5MOL    C58 3106   4.455   0.786   7.589 -0.4450  0.2195 -0.5796
    5MOL    C59 3107   4.558   0.841   7.511  0.1450 -0.1060 -0.4591
    5MOL    H60 3108   5.132   1.116   7.302 -2.4537 -1.2801 -0.9601
    5MOL    H61 3109   5.051   1.268   7.332 -0.7707 -0.9560 -0.3083
    5MOL    H62 3110   5.172   1.320   7.540 -2.1152 -0.5843 -0.9840
    5MOL    H63 3111   5.282   1.297   7.409 -1.4053 -0.9230 -1.7955
    5MOL    H64 3112   5.315   1.063   7.488  1.5401  1.5738  0.4974
    5MOL    H65 3113   5.459   1.242   7.601  0.3020 -0.2707  0.2317
    5MOL    H66 3114   5.445   1.105   7.696 -0.1007  1.0250  0.1241
    5MOL    H67 3115   5.100   1.147   7.683  0.6095 -0.6607  0.6223
    5MOL    H68 3116   5.190   0.988   7.697  4.4716  0.5601 -1.0449
    5MOL    H69 3117   5.102   0.927   7.483  1.2049  0.3117  1.4268
    5MOL    H70 3118   4.986   0.946   7.611 -0.7841  1.9776  0.5998
    5MOL    H71 3119   4.924   1.166   7.510  0.0540  0.0016 -0.6411
    5MOL    H72 3120   4.936   0.944   7.279  1.2160  0.8618 -0.6562
    5MOL    H73 3121   4.878   1.101   7.263 -1.7279 -0.5673 -0.0422
    5MOL    H74 3122   4.406   1.134   7.415 -1.0193 -0.8759  1.0347
    5MOL    H75 3123   4.223   1.032   7.521  0.2550  0.2915  0.1369
    5MOL    H76 3124   4.470   0.691   7.637 -0.6252  0.8348  0.7113
    5MOL    H77 3125   4.653   0.791   7.503  0.3033 -0.1483  1.3718
    5MOL    C78 3126   4.276   0.719   0.094  0.6287 -0.8948  0.1121
    5MOL    C79 3127   4.218   0.733   7.981 -0.0789  0.1036  0.2734
    5MOL    C80 3128   4.182   0.592   7.924  0.7874 -0.4989 -0.1563
    5MOL    C81 3129   4.127   0.603   7.784 -0.6968  0.6774 -0.0164
    5MOL    C82 3130   4.298   0.493   7.939  0.2987  0.0741 -0.8061
    5MOL    C83 3131   4.349   0.474   0.052  0.8292 -0.7189 -0.1410
    5MOL    C84 3132   4.388   0.618   0.108  0.7375 -0.6238  0.7624
    5MOL    C85 3133   4.445   0.621   0.250 -0.1267 -0.0947 -0.3078
    5MOL    O86 3134   4.357   0.565   0.342  0.3330  0.1597  0.1164
    5MOL    C87 3135   4.288   0.646   0.428 -0.3617 -0.7487  0.2108
    5MOL    O88 3136   4.303   0.765   0.447 -0.5072 -0.8220  0.4861
    5MOL    C89 3137   4.192   0.566   0.510  0.6507 -0.0753 -0.3313
    5MOL    C90 3138   4.189   0.424   0.501  0.8446  0.3344  0.9122
    5MOL    C91 3139   4.097   0.357   0.586 -0.6385  0.6218  0.3507
    5MOL    C92 3140   4.009   0.423   0.671 -0.3288  0.0173  0.4214
    5MOL    C93 3141   3.909   0.346   0.749 -1.1722  0.2208  0.2123
    5MOL    O94 3142   3.864   0.378   0.859 -0.1293 -0.2249  0.6698
    5MOL    O95 3143   3.882   0.239   0.688 -0.3580  0.0396  0.1886
    5MOL    C96 3144   4.007   0.565   0.678  0.4866  0.7374 -0.3920
    5MOL    C97 3145   4.104   0.636   0.600  0.4531 -0.0035 -0.2012
    5MOL    H98 3146   4.194   0.689   0.159  0.8238 -2.5495 -0.3873
    5MOL    H99 3147   4.307   0.817   0.130 -0.5264 -1.8454  3.9802
    5MOL   H100 3148   4.287   0.785   7.915 -1.7919  1.8665 -0.1807
    5MOL   H101 3149   4.127   0.793   7.989  0.3958  1.1669 -1.9817
    5MOL   H102 3150   4.100   0.553   7.985 -0.4139 -0.3027 -1.6110
    5MOL   H103 3151   4.034   0.656   7.767  0.2425  1.7709 -1.9514
    5MOL   H104 3152   4.131   0.505   7.735 -0.8487  1.2691 -1.2258
    5MOL   H105 3153   4.381   0.543   7.890  1.0426  0.2761  0.6191
    5MOL   H106 3154   4.284   0.398   7.887 -1.5280  0.2892 -0.7566
    5MOL   H107 3155   4.279   0.415   0.110 -0.5667  1.4044  0.3840
    5MOL   H108 3156   4.445   0.421   0.048 -0.9824 -4.0242 -1.4509
    5MOL   H109 3157   4.472   0.656   0.049 -0.1361  0.1991  0.0193
    5MOL   H110 3158   4.478   0.722   0.275 -3.0433  0.7883  0.1827
    5MOL   H111 3159   4.538   0.564   0.255  0.3911  0.8468  1.3926
    5MOL   H112 3160   4.264   0.378   0.438  0.2757 -0.1963  0.6199
    5MOL   H113 3161   4.110   0.249   0.581  2.0528  0.8658  1.3114
    5MOL   H114 3162   3.935   0.615   0.741 -0.5643 -1.7111  0.3995
    5MOL   H115 3163   4.112   0.744   0.593 -1.2146  0.0856 -0.7389
    5MOL   C116 3164   3.533   0.121   0.442  0.9346  0.2402  0.6492
    5MOL   C117 3165   3.664   0.100   0.522 -0.6414  0.4206  0.2807
    5MOL   C118 3166   3.651   0.143   0.667  0.1587  0.2396 -0.2546
    5MOL   C119 3167   3.794   0.134   0.732  0.4586  0.0013  0.0782
    5MOL   C120 3168   3.601   0.283   0.675 -0.2052 -0.3241 -0.4654
    5MOL   C121 3169   3.466   0.302   0.607 -0.4337 -0.3293  0.0317
    5MOL   C122 3170   3.476   0.270   0.452 -0.0012  0.5351 -0.2901
    5MOL   C123 3171   3.340   0.279   0.376 -0.0326 -0.2701 -0.3606
    5MOL   O124 3172   3.280   0.408   0.391  0.6294 -0.3636  0.3143
    5MOL   C125 3173   3.163   0.414   0.467  0.1891  0.2978  0.6207
    5MOL   O126 3174   3.118   0.312   0.516 -0.3404 -0.3852 -0.0465
    5MOL   C127 3175   3.102   0.549   0.478  0.1885 -1.2513 -0.0506
    5MOL   C128 3176   3.004   0.565   0.581  0.7628  0.3167  0.3955
    5MOL   C129 3177   2.949   0.688   0.601  0.1619  0.1577  0.6774
    5MOL   C130 3178   2.983   0.800   0.519  0.2239  0.0363  0.3264
    5MOL   C131 3179   2.919   0.934   0.535  0.2736  0.0356 -0.1474
    5MOL   O132 3180   2.944   1.029   0.456  0.0763 -0.2348 -0.3136
    5MOL   O133 3181   2.828   0.931   0.632 -0.0088 -0.3487 -0.3130
    5MOL   C134 3182   3.087   0.785   0.426  0.3679  0.5966  0.9412
    5MOL   C135 3183   3.143   0.659   0.395  0.5087 -0.3115 -0.3749
    5MOL   H136 3184   3.457   0.047   0.468  0.5482  0.0267 -1.0421
    5MOL   H137 3185   3.532   0.107   0.334 -0.1195  1.3806  0.4938
    5MOL   H138 3186   3.737   0.156   0.464 -2.0158  2.1203  0.1493
    5MOL   H139 3187   3.704   8.032   0.511  0.1525  0.7756 -0.0910
    5MOL   H140 3188   3.582   0.083   0.726 -0.4230  1.2376  0.1043
    5MOL   H141 3189   3.840   0.044   0.692 -0.3702  0.4044 -1.8414
    5MOL   H142 3190   3.790   0.135   0.841 -0.3946  1.9937  0.0577
    5MOL   H143 3191   3.674   0.351   0.631 -0.4985  1.6294  1.9723
    5MOL   H144 3192   3.597   0.330   0.773  0.8710 -1.5600  0.2026
    5MOL   H145 3193   3.388   0.235   0.643  0.6039 -1.8267 -0.4259
    5MOL   H146 3194   3.422   0.401   0.618  0.7222  0.3413 -1.1301
    5MOL   H147 3195   3.545   0.336   0.399 -0.7962 -1.1631 -3.5583
    5MOL   H148 3196   3.271   0.201   0.406 -0.3424 -0.2186 -0.9284
    5MOL   H149 3197   3.355   0.268   0.268  3.0284 -1.4117  0.1253
    5MOL   H150 3198   2.975   0.484   0.647 -0.6979  1.1114  0.7556
    5MOL   H151 3199   2.875   0.697   0.679  1.6221  0.4717  2.0421
    5MOL   H152 3200   3.123   0.863   0.360 -0.3704  0.9968  1.0097
    5MOL   H153 3201   3.217   0.650   0.317  0.1564 -1.4127 -0.5980
    5MOL   C154 3202   2.518   1.110   0.967  0.4730 -0.1256  0.2676
    5MOL   C155 3203   2.564   1.123   0.822  0.1753  0.7055  0.0548
    5MOL   C156 3204   2.678   1.022   0.790 -0.5591  0.3890 -1.3732
    5MOL   C157 3205   2.745   1.044   0.650 -0.3090  0.0540 -0.4226
    5MOL   C158 3206   2.792   1.021   0.903  0.4937 -0.1919 -0.0359
    5MOL   C159 3207   2.732   1.012   1.047  0.2528 -0.1630  0.5594
    5MOL   C160 3208   2.636   1.127   1.068  0.3823 -0.6305 -0.2334
    5MOL   C161 3209   2.584   1.142   1.215 -0.0549  0.3746 -0.0382
    5MOL   O162 3210   2.540   1.022   1.272  0.2174 -0.0623 -0.1381
    5MOL   C163 3211   2.407   1.001   1.292 -0.4471 -0.1148 -0.2446
    5MOL   O164 3212   2.315   1.083   1.281  0.2847 -0.7471 -0.4121
    5MOL   C165 3213   2.375   0.863   1.336 -0.9960 -0.3045  0.0170
    5MOL   C166 3214   2.474   0.758   1.331 -0.0592 -0.1910  0.0064
    5MOL   C167 3215   2.430   0.622   1.364  0.5707  0.3925  0.6167
    5MOL   C168 3216   2.292   0.602   1.403 -0.0221  0.2499 -0.7155
    5MOL   C169 3217   2.246   0.460   1.422  0.0773 -0.0554 -0.4774
    5MOL   O170 3218   2.321   0.360   1.419 -0.3576  0.2433 -0.2785
    5MOL   O171 3219   2.118   0.442   1.458 -0.1464  0.2521  0.3009
    5MOL   C172 3220   2.201   0.712   1.415 -0.3303  0.4104  0.1269
    5MOL   C173 3221   2.243   0.842   1.387 -0.2518 -0.1696 -0.5602
    5MOL   H174 3222   2.482   1.008   0.982  0.0154  0.3114  2.2097
    5MOL   H175 3223   2.436   1.174   0.999 -0.4776 -1.1045 -0.1707
    5MOL   H176 3224   2.591   1.228   0.807  0.6705  0.8884  2.1507
    5MOL   H177 3225   2.486   1.104   0.749  1.7533  1.0412 -1.7736
    5MOL   H178 3226   2.642   0.919   0.796 -2.7632  1.1479 -1.1372
    5MOL   H179 3227   2.801   1.138   0.649  2.8020 -1.7112  0.2895
    5MOL   H180 3228   2.666   1.042   0.576 -1.8050 -0.9209  1.1562
    5MOL   H181 3229   2.844   1.117   0.898 -2.3892  1.3697 -2.6196
    5MOL   H182 3230   2.859   0.937   0.886 -0.4122 -0.6897 -1.2610
    5MOL   H183 3231   2.682   0.915   1.053 -0.4955  0.1779 -0.0940
    5MOL   H184 3232   2.817   1.009   1.115  1.7381 -1.6753 -1.2883
    5MOL   H185 3233   2.688   1.222   1.049  0.9710 -0.7095  0.8980
    5MOL   H186 3234   2.510   1.221   1.202  0.2318  0.3020 -2.3170
    5MOL   H187 3235   2.656   1.177   1.289  0.4966  0.2698 -0.5231
    5MOL   H188 3236   2.572   0.777   1.290 -0.3246 -2.1155 -1.6145
    5MOL   H189 3237   2.492   0.534   1.355  1.2576  0.9413 -0.1752
    5MOL   H190 3238   2.097   0.690   1.432  0.2927 -0.8550  2.4960
    5MOL   H191 3239   2.176   0.927   1.391 -1.2047 -0.9238 -0.2925
    5MOL   C192 3240   1.798   0.113   1.279 -0.4135 -0.1449 -0.6303
    5MOL   C193 3241   1.903   0.148   1.380  0.2882 -0.5620  0.2275
    5MOL   C194 3242   1.962   0.293   1.358 -0.1644  0.0701  0.2357
    5MOL   C195 3243   2.062   0.319   1.470  0.4080 -0.2695 -0.1131
    5MOL   C196 3244   2.029   0.306   1.219  0.2104 -0.0001  0.0315
    5MOL   C197 3245   1.922   0.266   1.114 -0.0985  0.4635 -0.4546
    5MOL   C198 3246   1.853   0.127   1.138  0.3977  0.7578  0.4791
    5MOL   C199 3247   1.746   0.094   1.034 -0.4846 -0.6168 -0.9974
    5MOL   O200 3248   1.791   0.030   0.915  0.0381  0.5541  0.5548
    5MOL   C201 3249   1.705   7.989   0.844 -0.2130  0.9582  0.1824
    5MOL   O202 3250   1.581   8.004   0.860 -0.3100 -0.2660  0.8750
    5MOL   C203 3251   1.764   7.888   0.757 -0.1177  0.6508  0.6437
    5MOL   C204 3252   1.694   7.796   0.675  0.0329  0.5388 -0.0106
    5MOL   C205 3253   1.754   7.699   0.587 -0.3862 -1.1437  0.2586
    5MOL   C206 3254   1.897   7.690   0.585 -0.4217  0.1951 -0.3038
    5MOL   C207 3255   1.950   7.582   0.495  0.1429  0.6205 -0.8302
    5MOL   O208 3256   1.878   7.504   0.439 -0.6602  0.6589  0.4924
    5MOL   O209 3257   2.080   7.580   0.498 -1.0210 -0.2297 -0.1832
    5MOL   C210 3258   1.966   7.787   0.660  0.0251  0.1981 -0.0414
    5MOL   C211 3259   1.903   7.887   0.735  0.4059  0.0533  0.0812
    5MOL   H212 3260   1.711   0.177   1.290 -1.5125 -2.0906  2.6762
    5MOL   H213 3261   1.757   0.014   1.297  0.9392 -0.7255 -0.6920
    5MOL   H214 3262   1.984   0.075   1.381  0.4759 -0.3677 -0.7093
    5MOL   H215 3263   1.870   0.129   1.482  0.9585  0.5286  0.6713
    5MOL   H216 3264   1.874   0.357   1.366 -1.8228 -2.1562  0.2315
    5MOL   H217 3265   2.131   0.236   1.452  2.0267  0.7407  1.2534
    5MOL   H218 3266   2.023   0.302   1.570  0.3952 -2.0528 -0.4168
    5MOL   H219 3267   2.117   0.241   1.210 -0.9825 -1.5120 -0.9109
    5MOL   H220 3268   2.056   0.410   1.196  0.2458  0.5375  2.4201
    5MOL   H221 3269   1.847   0.344   1.130  0.4254  0.9719 -0.4275
    5MOL   H222 3270   1.953   0.280   1.010 -0.0212  2.4901 -0.1762
    5MOL   H223 3271   1.922   0.046   1.117 -2.2303 -1.5912  0.5550
    5MOL   H224 3272   1.682   0.179   1.012  0.6173  0.0206 -1.7912
    5MOL   H225 3273   1.680   0.021   1.080 -2.0716  2.5398  1.9487
    5MOL   H226 3274   1.586   7.792   0.678  0.0245 -0.5943 -1.4631
    5MOL   H227 3275   1.690   7.626   0.541  0.9173 -3.4830  2.0562
    5MOL   H228 3276   2.073   7.795   0.644 -0.2813  0.9154 -1.8914
    5MOL   H229 3277   1.969   7.958   0.783  1.5768 -0.2590 -1.0389
    5MOL   C230 3278   2.307   7.463   0.074  0.6677  0.4398 -0.1739
    5MOL   C231 3279   2.268   7.420   0.214  0.1758 -0.7973  0.8760
    5MOL   C232 3280   2.176   7.519   0.287 -0.5454 -0.2429 -0.5634
    5MOL   C233 3281   2.162   7.486   0.433  0.3326 -0.6781 -0.2654
    5MOL   C234 3282   2.213   7.668   0.270 -0.2279  0.1335 -0.9824
    5MOL   C235 3283   2.233   7.707   0.124  0.1576 -0.1860  0.4934
    5MOL   C236 3284   2.337   7.612   0.063  0.1591  0.0545  0.5952
    5MOL   C237 3285   2.374   7.663   7.953 -0.3466 -0.3137  0.8077
    5MOL   O238 3286   2.444   7.793   7.940  0.4127  0.3025 -0.2834
    5MOL   C239 3287   2.497   7.825   7.821 -0.4413 -0.3553 -0.2582
    5MOL   O240 3288   2.512   7.756   7.721 -0.7674  0.5365 -0.3239
    5MOL   C241 3289   2.566   7.961   7.825  0.6086  0.5423  0.0144
    5MOL   C242 3290   2.523   0.009   7.927  0.7052  0.6554 -0.1075
    5MOL   C243 3291   2.545   0.147   7.931 -0.2067  0.4926  0.3850
    5MOL   C244 3292   2.630   0.202   7.834 -0.2647 -0.6941 -0.5070
    5MOL   C245 3293   2.665   0.351   7.834  0.4390  1.1617 -0.0622
    5MOL   O246 3294   2.763   0.402   7.789 -0.1314  0.4095  0.1704
    5MOL   O247 3295   2.576   0.420   7.905 -0.3732 -0.4557  0.2499
    5MOL   C248 3296   2.691   0.117   7.738 -0.3516 -0.1657 -0.6379
    5MOL   C249 3297   2.652   8.012   7.728 -0.0317 -0.3749 -0.1576
    5MOL   H250 3298   2.223   7.439   0.009 -0.9454  0.1232  1.9522
    5MOL   H251 3299   2.395   7.417   0.028 -0.7006 -1.3291 -1.0947
    5MOL   H252 3300   2.368   7.402   0.253  0.6729 -0.1344 -0.0633
    5MOL   H253 3301   2.223   7.322   0.201 -3.5093  0.8723  0.3759
    5MOL   H254 3302   2.074   7.515   0.247 -0.5507 -0.6805 -0.5185
    5MOL   H255 3303   2.265   7.479   0.469  0.6028  1.5425 -0.5357
    5MOL   H256 3304   2.130   7.385   0.456  1.5400 -0.8386  0.7562
    5MOL   H257 3305   2.299   7.700   0.328 -0.3920 -0.3085 -0.4843
    5MOL   H258 3306   2.136   7.730   0.315  0.0255  0.0561 -0.4377
    5MOL   H259 3307   2.143   7.713   0.063  0.2101 -0.6182  0.3775
    5MOL   H260 3308   2.264   7.811   0.114  0.4840 -0.3253  0.0211
    5MOL   H261 3309   2.425   7.616   0.128  0.8459  0.6307 -0.3727
    5MOL   H262 3310   2.284   7.652   7.892 -0.6954 -1.2477  1.4873
    5MOL   H263 3311   2.434   7.584   7.911  0.0262  0.1486  0.4663
    5MOL   H264 3312   2.455   8.013   8.007 -1.2918  1.7877 -1.3459
    5MOL   H265 3313   2.491   0.210   8.000  2.9396 -0.2888  3.6809
    5MOL   H266 3314   2.758   0.157   7.664 -2.4553 -0.8422 -2.9657
    5MOL   H267 3315   2.693   7.949   7.651 -1.1255 -1.6141  0.2617
    5MOL   C268 3316   2.320   0.536   0.185  0.0595 -0.0896  0.7676
    5MOL   C269 3317   2.435   0.497   0.090 -0.5343 -0.0256 -0.0628
    5MOL   C270 3318   2.459   0.598   8.010  0.3622  0.2220  0.0619
    5MOL   C271 3319   2.586   0.558   7.922 -0.1013  0.0224 -0.0722
    5MOL   C272 3320   2.327   0.628   7.928  0.4854 -0.8152  0.0704
    5MOL   C273 3321   2.223   0.680   8.030  0.2982  0.0775  0.3169
    5MOL   C274 3322   2.191   0.581   0.109  0.3807  0.1080  0.0265
    5MOL   C275 3323   2.097   0.643   0.218 -0.1245 -0.6007  0.2154
    5MOL   O276 3324   2.144   0.770   0.262  0.0022  0.2316 -0.3428
    5MOL   C277 3325   2.112   0.817   0.378  0.4388  0.7770 -0.4397
    5MOL   O278 3326   2.017   0.772   0.442  0.0532 -0.3586  0.4175
    5MOL   C279 3327   2.193   0.935   0.420 -0.0989 -0.3843 -0.6235
    5MOL   C280 3328   2.135   1.041   0.489  0.9072  0.3380  0.1291
    5MOL   C281 3329   2.208   1.160   0.524  0.0441  0.6448  0.1849
    5MOL   C282 3330   2.345   1.168   0.490  0.8820 -0.1167 -0.9152
    5MOL   C283 3331   2.415   1.290   0.535  0.4770  0.6117  0.0612
    5MOL   O284 3332   2.359   1.392   0.577 -0.0019  0.2666  0.1831
    5MOL   O285 3333   2.546   1.271   0.516 -0.2378  0.5261 -0.7913
    5MOL   C286 3334   2.403   1.055   0.415  0.6181 -0.6370 -1.1571
    5MOL   C287 3335   2.328   0.938   0.385  0.1005  0.1996 -0.7649
    5MOL   H288 3336   2.347   0.604   0.266 -1.9564  1.3887  0.2105
    5MOL   H289 3337   2.296   0.446   0.242 -1.2489 -0.2153  0.0283
    5MOL   H290 3338   2.409   0.404   0.039  1.6231 -0.6351 -0.1140
    5MOL   H291 3339   2.526   0.474   0.146 -0.5109 -0.7345 -0.3751
    5MOL   H292 3340   2.487   0.693   0.024 -1.9413  0.2568  1.4349
    5MOL   H293 3341   2.673   0.586   7.982 -0.4554  1.7627 -0.3330
    5MOL   H294 3342   2.584   0.616   7.830 -3.3242 -0.6806 -0.5069
    5MOL   H295 3343   2.294   0.542   7.871  1.4925 -1.3481  0.2805
    5MOL   H296 3344   2.356   0.706   7.857 -3.2534  0.4306 -0.2118
    5MOL   H297 3345   2.248   0.777   0.041  0.2488  0.5270 -0.6538
    5MOL   H298 3346   2.125   0.704   7.989 -0.5784 -1.7987  1.2987
    5MOL   H299 3347   2.142   0.496   0.060  2.3339 -1.0908  0.1168
    5MOL   H300 3348   2.078   0.576   0.302 -2.0174  0.8236  0.9641
    5MOL   H301 3349   1.996   0.660   0.180 -1.0437  0.1926  2.8627
    5MOL   H302 3350   2.034   1.027   0.523  0.0178  2.1213 -1.6061
    5MOL   H303 3351   2.157   1.235   0.583 -3.2116 -0.2491 -1.3998
    5MOL   H304 3352   2.504   1.043   0.379  0.5426  0.0466 -1.5954
    5MOL   H305 3353   2.375   0.862   0.325 -1.0487 -1.1198 -0.0183
    5MOL   C306 3354   2.616   1.301   0.083 -0.0361 -0.0601 -0.0293
    5MOL   C307 3355   2.567   1.338   0.225  0.1905  0.2163  0.6998
    5MOL   C308 3356   2.684   1.349   0.330 -0.1500 -0.2226 -0.0566
    5MOL   C309 3357   2.630   1.380   0.471 -0.1168  0.2923  0.2858
    5MOL   C310 3358   2.784   1.236   0.329 -0.1859  0.0641  0.6803
    5MOL   C311 3359   2.836   1.215   0.186  0.1468  0.0586  0.0788
    5MOL   C312 3360   2.723   1.185   0.083  0.1217 -0.5556  0.0203
    5MOL   C313 3361   2.769   1.144   7.977 -0.2767  0.2848  0.0432
    5MOL   O314 3362   2.658   1.103   7.904  0.4699 -1.0661  0.2991
    5MOL   C315 3363   2.628   1.156   7.787  0.0814  0.4322 -0.7640
    5MOL   O316 3364   2.694   1.242   7.735 -0.7624  0.7510 -0.3148
    5MOL   C317 3365   2.497   1.110   7.736 -0.4940  0.2116 -0.5337
    5MOL   C318 3366   2.435   0.991   7.783  0.6280  0.4220  0.0816
    5MOL   C319 3367   2.310   0.954   7.731 -0.0004  0.4568 -0.2809
    5MOL   C320 3368   2.243   1.044   7.645  0.6582 -0.3370 -0.1129
    5MOL   C321 3369   2.105   1.019   7.586  0.9219  0.3598 -0.6361
    5MOL   O322 3370   2.038   1.111   7.534 -0.2389 -0.7419 -0.2425
    5MOL   O323 3371   2.076   0.890   7.572  0.5602 -0.0970 -0.0737
    5MOL   C324 3372   2.305   1.164   7.604 -0.0020  1.1433 -0.0560
    5MOL   C325 3373   2.433   1.195   7.643  0.2879 -0.1025 -0.4220
    5MOL   H326 3374   2.661   1.394   0.047 -0.4816  0.9874  2.0466
    5MOL   H327 3375   2.530   1.275   0.022 -0.0282 -1.2112  0.4293
    5MOL   H328 3376   2.495   1.263   0.259  0.1507  0.6923  1.6680
    5MOL   H329 3377   2.514   1.433   0.223 -1.1313 -0.5059 -0.0223
    5MOL   H330 3378   2.746   1.432   0.297 -2.5484  2.2068  1.3503
    5MOL   H331 3379   2.574   1.474   0.472  0.0653  0.4039  0.0641
    5MOL   H332 3380   2.718   1.390   0.534 -0.8305 -3.4291  2.0023
    5MOL   H333 3381   2.739   1.144   0.367  0.4917 -0.4094  0.3578
    5MOL   H334 3382   2.863   1.262   0.399 -0.0760  0.9806  0.2133
    5MOL   H335 3383   2.901   1.301   0.169  1.4169 -0.4150  2.2694
    5MOL   H336 3384   2.897   1.125   0.184 -0.3826 -0.3884  2.2920
    5MOL   H337 3385   2.680   1.097   0.129  1.6116  0.7195  4.0637
    5MOL   H338 3386   2.838   1.061   7.994  0.2807 -0.0561 -3.4974
    5MOL   H339 3387   2.821   1.227   7.928  0.2896 -0.6606 -0.9870
    5MOL   H340 3388   2.484   0.929   7.857  0.7648 -0.7978 -1.0055
    5MOL   H341 3389   2.257   0.865   7.760 -1.5886  1.0361 -1.3301
    5MOL   H342 3390   2.250   1.229   7.537 -1.3798 -0.3772 -0.4416
    5MOL   H343 3391   2.489   1.274   7.596  1.9129 -1.2184 -0.4028
    5MOL   C344 3392   1.860   0.596   7.801  0.9154  0.6590 -0.3639
    5MOL   C345 3393   1.906   0.731   7.746  0.0540  0.2234 -0.4285
    5MOL   C346 3394   1.897   0.728   7.596 -0.1770 -0.9122 -0.3217
    5MOL   C347 3395   1.937   0.863   7.535  0.7684 -0.4480  0.5751
    5MOL   C348 3396   1.973   0.605   7.533 -0.1760  0.3154  0.8835
    5MOL   C349 3397   1.920   0.476   7.581 -0.1752  0.5821  0.9285
    5MOL   C350 3398   1.928   0.477   7.732 -0.4701  0.6742  0.2639
    5MOL   C351 3399   1.882   0.345   7.781 -0.1281 -0.5218  0.0870
    5MOL   O352 3400   1.748   0.315   7.743 -0.2666 -0.3614  0.7078
    5MOL   C353 3401   1.701   0.200   7.774  0.3438  0.0775 -0.3787
    5MOL   O354 3402   1.772   0.105   7.803  0.1972 -0.1860 -1.0568
    5MOL   C355 3403   1.554   0.199   7.775 -0.4836  0.8048 -0.2686
    5MOL   C356 3404   1.477   0.312   7.739 -0.3732 -0.9694  0.1519
    5MOL   C357 3405   1.337   0.314   7.753  0.1334  0.4388 -0.3339
    5MOL   C358 3406   1.264   0.203   7.797 -0.4851  0.2375  0.1695
    5MOL   C359 3407   1.120   0.208   7.824 -0.2067  0.5045  0.5397
    5MOL   O360 3408   1.048   0.127   7.892  0.1666 -0.2364  0.6897
    5MOL   O361 3409   1.065   0.316   7.764  0.1572 -0.0696 -0.4288
    5MOL   C362 3410   1.334   0.082   7.819  0.4865  0.3529 -0.2360
    5MOL   C363 3411   1.481   0.079   7.801 -0.0267  0.5650  0.0193
    5MOL   H364 3412   1.752   0.585   7.810  1.2211 -1.2587  1.2978
    5MOL   H365 3413   1.892   0.595   7.906 -1.7681  2.2553  0.5339
    5MOL   H366 3414   2.013   0.750   7.757  0.3282 -1.4509 -0.1744
    5MOL   H367 3415   1.848   0.816   7.782  2.5851  1.6412  0.4820
    5MOL   H368 3416   1.799   0.716   7.548 -0.6752  1.3341  0.0494
    5MOL   H369 3417   1.854   0.931   7.553 -0.2437 -0.9725 -1.8969
    5MOL   H370 3418   1.939   0.856   7.426  1.3439  0.9119  0.4931
    5MOL   H371 3419   2.082   0.615   7.539 -0.2219  1.2566  0.1345
    5MOL   H372 3420   1.963   0.603   7.425 -0.2853 -0.7487  0.9068
    5MOL   H373 3421   1.818   0.457   7.546 -0.3423  0.6854  1.3514
    5MOL   H374 3422   1.974   0.390   7.544  0.3031  1.0231  0.5928
    5MOL   H375 3423   2.033   0.491   7.754 -0.5428  0.1320  0.9684
    5MOL   H376 3424   1.875   0.344   7.890 -2.4335  1.1885  0.0096
    5MOL   H377 3425   1.954   0.265   7.764 -1.0156 -1.1870 -0.5970
    5MOL   H378 3426   1.530   0.400   7.707 -0.1142 -0.3926  2.1213
    5MOL   H379 3427   1.299   0.414   7.741  0.7867  0.6730 -0.4374
    5MOL   H380 3428   1.287   8.020   7.845  1.0934 -0.0845 -0.6854
    5MOL   H381 3429   1.530   8.015   7.813 -1.2547 -0.2666 -1.4974
    5MOL   C382 3430   0.793   0.715   7.765 -0.1255  0.0357  0.6420
    5MOL   C383 3431   0.796   0.566   7.801 -0.8207 -0.4493 -0.2955
    5MOL   C384 3432   0.924   0.506   7.750 -0.3305 -0.0912 -0.1112
    5MOL   C385 3433   0.931   0.356   7.800  0.0773 -0.0697  0.6952
    5MOL   C386 3434   0.924   0.518   7.597 -0.0402 -0.3317 -0.4733
    5MOL   C387 3435   0.924   0.659   7.554  0.2061  0.4895 -0.2281
    5MOL   C388 3436   0.801   0.727   7.613 -0.2934 -0.5158  0.3245
    5MOL   C389 3437   0.793   0.878   7.570 -0.5725 -0.1717  0.3515
    5MOL   O390 3438   0.797   0.878   7.428  0.0440 -0.2849 -0.5403
    5MOL   C391 3439   0.690   0.894   7.351 -0.1769 -0.3430 -0.3842
    5MOL   O392 3440   0.576   0.921   7.386 -0.5852 -0.1965 -0.0676
    5MOL   C393 3441   0.735   0.864   7.206 -0.0741  0.0339 -0.3993
    5MOL   C394 3442   0.642   0.861   7.105 -0.1516 -0.1499 -0.0839
    5MOL   C395 3443   0.677   0.819   6.975 -0.0004  0.4000 -0.2568
    5MOL   C396 3444   0.810   0.788   6.946 -0.2880  0.1509 -0.1197
    5MOL   C397 3445   0.840   0.739   6.813  0.4696 -0.1145 -0.4134
    5MOL   O398 3446   0.753   0.733   6.727  0.0822  0.2053 -0.4653
    5MOL   O399 3447   0.966   0.686   6.798  0.3673  0.3575 -0.2989
    5MOL   C400 3448   0.911   0.804   7.046 -0.6790 -0.5671 -0.0056
    5MOL   C401 3449   0.872   0.833   7.176  0.4081 -0.3613  0.2151
    5MOL   H402 3450   0.874   0.770   7.811  0.5288 -0.9365  0.6649
    5MOL   H403 3451   0.697   0.758   7.792 -0.1809  0.8103 -0.7294
    5MOL   H404 3452   0.710   0.518   7.753 -1.0147  0.6710 -1.0836
    5MOL   H405 3453   0.786   0.560   7.909 -0.3266  0.1947 -0.2133
    5MOL   H406 3454   1.017   0.542   7.793 -0.1557 -0.6758  0.0022
    5MOL   H407 3455   0.855   0.309   7.738 -0.2964  0.2682  0.8940
    5MOL   H408 3456   0.907   0.348   7.906  1.1739 -2.7809  0.7911
    5MOL   H409 3457   0.837   0.466   7.559 -1.3967  1.1901  0.4780
    5MOL   H410 3458   1.002   0.459   7.550 -0.2715  1.0985 -2.7044
    5MOL   H411 3459   1.012   0.714   7.585 -0.0355  0.5598  0.3477
    5MOL   H412 3460   0.926   0.663   7.445 -1.6715  2.8315 -0.2160
    5MOL   H413 3461   0.710   0.681   7.577  0.2689  0.1084 -1.9302
    5MOL   H414 3462   0.873   0.936   7.616  0.2149 -0.4953 -0.6127
    5MOL   H415 3463   0.704   0.923   7.614 -0.4313 -1.0820  1.6053
    5MOL   H416 3464   0.543   0.897   7.131  1.7016  4.1732  1.3866
    5MOL   H417 3465   0.602   0.819   6.897 -0.1496 -0.6381 -0.1254
    5MOL   H418 3466   1.015   0.790   7.022 -0.5717 -0.7297  0.5496
    5MOL   H419 3467   0.948   0.834   7.253 -0.0654 -2.5112  0.7328
    5MOL   C420 3468   1.102   0.817   6.377 -0.0536 -0.3854 -0.6773
    5MOL   C421 3469   1.014   0.770   6.496 -0.0804 -0.7377  0.5490
    5MOL   C422 3470   1.097   0.668   6.587  0.2533  0.8271  0.2913
    5MOL   C423 3471   1.003   0.598   6.689  0.3017 -0.4369  0.1060
    5MOL   C424 3472   1.142   0.544   6.493 -0.0333 -0.4359 -0.5415
    5MOL   C425 3473   1.224   0.590   6.375  0.2126 -0.2775  0.1201
    5MOL   C426 3474   1.153   0.702   6.296 -0.0355 -0.1904  0.0921
    5MOL   C427 3475   1.240   0.757   6.178 -0.2854  0.3260 -0.9015
    5MOL   O428 3476   1.309   0.647   6.107  0.3616  0.5664 -0.1286
    5MOL   C429 3477   1.419   0.676   6.040 -0.1930  0.8006  0.3958
    5MOL   O430 3478   1.424   0.782   5.978 -0.0291 -0.1123  0.6916
    5MOL   C431 3479   1.523   0.572   6.043 -0.0889  0.1674  0.2734
    5MOL   C432 3480   1.492   0.436   6.075  0.7367 -0.6375  0.4259
    5MOL   C433 3481   1.603   0.347   6.078 -0.0276 -0.4057  0.0772
    5MOL   C434 3482   1.737   0.392   6.058  0.3666 -0.3646 -0.6172
    5MOL   C435 3483   1.839   0.292   6.062 -0.0960  0.0983 -0.1310
    5MOL   O436 3484   1.820   0.179   6.026  0.2832  0.3246 -0.8580
    5MOL   O437 3485   1.953   0.336   6.114 -0.3305 -0.0700  0.0236
    5MOL   C438 3486   1.762   0.529   6.036  0.5497  0.3956  1.1130
    5MOL   C439 3487   1.656   0.616   6.032  0.4873 -0.3398  0.2585
    5MOL   H440 3488   1.178   0.883   6.418 -1.5994  0.5889  0.7003
    5MOL   H441 3489   1.031   0.872   6.314 -0.5715 -1.9432 -1.4778
    5MOL   H442 3490   0.919   0.729   6.462  0.0955 -0.1059 -0.7193
    5MOL   H443 3491   0.978   0.848   6.564  4.8829  0.8003  1.6867
    5MOL   H444 3492   1.170   0.729   6.639  1.4518 -2.5732  2.7888
    5MOL   H445 3493   1.054   0.512   6.732  1.0476 -0.3424 -0.5626
    5MOL   H446 3494   0.915   0.561   6.637 -0.2785  0.9659  0.0595
    5MOL   H447 3495   1.058   0.484   6.458 -0.0804 -0.8816  0.2969
    5MOL   H448 3496   1.204   0.474   6.550  0.0598  1.6441  2.0238
    5MOL   H449 3497   1.319   0.623   6.417  0.4645 -0.1855 -0.5112
    5MOL   H450 3498   1.243   0.508   6.306  0.0216  0.8246 -1.2753
    5MOL   H451 3499   1.067   0.655   6.249  0.4188 -2.0738  1.1009
    5MOL   H452 3500   1.317   0.814   6.231 -1.0717 -0.6764  1.4299
    5MOL   H453 3501   1.188   0.821   6.108  0.3976  2.2187  0.2754
    5MOL   H454 3502   1.390   0.402   6.083 -0.6293  2.4750 -2.5175
    5MOL   H455 3503   1.589   0.241   6.096 -2.1715 -0.1275  0.1194
    5MOL   H456 3504   1.863   0.565   6.019  0.0924  0.9592 -0.3973
    5MOL   H457 3505   1.672   0.722   6.017  0.9995 -0.5363 -0.5954
    5MOL   C458 3506   2.387   0.378   5.941  0.4714  0.0418  0.0862
    5MOL   C459 3507   2.258   0.394   6.038 -0.4570 -0.3241 -0.2162
    5MOL   C460 3508   2.173   0.270   6.015  0.2197 -0.3477 -0.1887
    5MOL   C461 3509   2.059   0.243   6.123 -0.3785  0.0944  0.1309
    5MOL   C462 3510   2.116   0.279   5.876  0.3193 -0.6369 -0.2555
    5MOL   C463 3511   2.227   0.282   5.769  0.3328  0.7544  0.0446
    5MOL   C464 3512   2.342   0.384   5.797  0.4654  0.2142 -0.7583
    5MOL   C465 3513   2.460   0.374   5.701  0.3190 -0.2302  0.9330
    5MOL   O466 3514   2.431   0.447   5.581 -0.1794  0.1864 -0.7288
    5MOL   C467 3515   2.526   0.442   5.481  0.2847  0.0743  0.1194
    5MOL   O468 3516   2.608   0.357   5.460  1.1292 -0.3568 -0.2640
    5MOL   C469 3517   2.513   0.564   5.389 -0.0161  0.4639  0.3718
    5MOL   C470 3518   2.421   0.663   5.426 -0.5701  0.3663 -0.0475
    5MOL   C471 3519   2.421   0.786   5.361 -0.1632 -0.3727 -0.5429
    5MOL   C472 3520   2.500   0.813   5.246  0.2895 -0.1908  0.2901
    5MOL   C473 3521   2.515   0.945   5.185 -0.6303 -0.2731 -0.7917
    5MOL   O474 3522   2.610   0.978   5.113  0.1504 -0.3841  0.3046
    5MOL   O475 3523   2.424   1.033   5.224  0.1302 -0.1670  0.2459
    5MOL   C476 3524   2.590   0.705   5.208  1.0668 -0.3328 -0.3926
    5MOL   C477 3525   2.600   0.583   5.281 -0.2188 -0.0320 -0.0184
    5MOL   H478 3526   2.430   0.281   5.966  2.6363  0.8722 -0.2375
    5MOL   H479 3527   2.463   0.453   5.965 -0.3327  1.0168 -0.4175
    5MOL   H480 3528   2.201   0.482   6.008 -0.1389  0.1769  0.6224
    5MOL   H481 3529   2.284   0.390   6.144 -1.4481  0.5451  0.0745
    5MOL   H482 3530   2.235   0.181   6.017 -1.2671 -1.3977  0.5614
    5MOL   H483 3531   2.100   0.257   6.223  0.9562 -0.4324 -0.3354
    5MOL   H484 3532   2.035   0.137   6.109  0.1874  0.2089 -1.7608
    5MOL   H485 3533   2.063   0.374   5.865 -2.0449 -1.7773  0.9099
    5MOL   H486 3534   2.040   0.202   5.863  0.5046 -0.9381  0.4351
    5MOL   H487 3535   2.278   0.188   5.747 -0.6210  0.3828 -0.5802
    5MOL   H488 3536   2.175   0.301   5.676  1.0869  0.9545 -0.3439
    5MOL   H489 3537   2.299   0.484   5.785 -0.9423 -0.3983 -0.9969
    5MOL   H490 3538   2.487   0.270   5.681 -0.6961 -0.1396 -1.0773
    5MOL   H491 3539   2.548   0.412   5.753 -2.3427  1.6001  4.2395
    5MOL   H492 3540   2.342   0.655   5.499  0.1960 -0.0632  0.7377
    5MOL   H493 3541   2.346   0.858   5.391  0.0989 -0.9632  1.6383
    5MOL   H494 3542   2.662   0.715   5.129  1.7727 -2.0691  0.0164
    5MOL   H495 3543   2.669   0.502   5.268  0.8401  0.7988  0.3482
    5MOL   C496 3544   2.431   1.231   5.605  0.4189  0.4817  0.4951
    5MOL   C497 3545   2.388   1.188   5.460  0.1479  0.3701 -0.2781
    5MOL   C498 3546   2.497   1.215   5.357 -0.9232 -0.0370 -0.3459
    5MOL   C499 3547   2.450   1.171   5.216 -0.3369  0.3295 -0.0449
    5MOL   C500 3548   2.533   1.364   5.353  0.1836  0.6283 -0.4690
    5MOL   C501 3549   2.573   1.418   5.493 -0.3725 -0.0541 -0.5605
    5MOL   C502 3550   2.477   1.381   5.608  0.2560  0.4460 -0.1393
    5MOL   C503 3551   2.523   1.431   5.739 -0.3011  0.0596 -0.7704
    5MOL   O504 3552   2.437   1.415   5.855 -0.0848 -0.2318  0.6078
    5MOL   C505 3553   2.412   1.301   5.923  0.0172 -0.4190 -0.1299
    5MOL   O506 3554   2.481   1.196   5.919 -0.3127  0.5841  0.2537
    5MOL   C507 3555   2.289   1.322   6.006  1.2625 -0.0680  0.2985
    5MOL   C508 3556   2.239   1.451   6.035 -0.7000  0.0064 -1.0549
    5MOL   C509 3557   2.136   1.469   6.125  0.0931 -0.0380  0.1254
    5MOL   C510 3558   2.064   1.360   6.188 -0.1435  0.1139 -0.1323
    5MOL   C511 3559   1.944   1.387   6.276 -0.0717 -0.2187 -0.3761
    5MOL   O512 3560   1.873   1.301   6.320  0.2530  0.1052  0.2138
    5MOL   O513 3561   1.928   1.510   6.295  0.3650 -0.2506 -0.0032
    5MOL   C514 3562   2.118   1.232   6.165  0.7594 -0.3941 -0.0071
    5MOL   C515 3563   2.231   1.212   6.078 -0.6998 -0.3468 -0.0230
    5MOL   H516 3564   2.514   1.172   5.643  0.3121 -0.1486 -0.2480
    5MOL   H517 3565   2.342   1.192   5.654  0.1065 -0.4056 -0.7732
    5MOL   H518 3566   2.296   1.241   5.436 -0.1936 -0.0048  0.1922
    5MOL   H519 3567   2.361   1.083   5.458 -1.9599  0.9007 -0.1541
    5MOL   H520 3568   2.583   1.157   5.391 -0.1445  0.0106 -2.1858
    5MOL   H521 3569   2.520   1.190   5.136 -3.2327  0.7721 -2.5686
    5MOL   H522 3570   2.363   1.231   5.187  1.5810  2.6938 -1.0803
    5MOL   H523 3571   2.437   1.405   5.322 -1.2370 -1.9032  0.4159
    5MOL   H524 3572   2.609   1.386   5.278  1.6731  0.3214  0.9195
    5MOL   H525 3573   2.671   1.375   5.512  0.8931  1.8111 -2.6155
    5MOL   H526 3574   2.588   1.525   5.487  2.1622 -0.2220  1.8845
    5MOL   H527 3575   2.382   1.434   5.597  1.0803  2.0360  0.2989
    5MOL   H528 3576   2.547   1.536   5.727 -1.3851  0.3890 -0.0914
    5MOL   H529 3577   2.617   1.379   5.758  0.2293  1.5956  0.8464
    5MOL   H530 3578   2.274   1.539   5.982 -0.5884  0.9252  0.5082
    5MOL   H531 3579   2.100   1.570   6.141  0.8089  0.5960 -2.1259
    5MOL   H532 3580   2.066   1.150   6.211 -1.9219  0.2705 -1.7161
    5MOL   H533 3581   2.266   1.110   6.065  1.7745  0.0956  2.6605
    5MOL   C534 3582   1.476   1.734   6.349 -0.2856  0.3629  0.0620
    5MOL   C535 3583   1.605   1.678   6.414  0.3247 -0.1858 -0.1996
    5MOL   C536 3584   1.711   1.626   6.316 -0.0935  0.1166 -0.6511
    5MOL   C537 3585   1.828   1.557   6.389 -0.1143 -0.3942 -0.6327
    5MOL   C538 3586   1.647   1.532   6.210  0.1516 -0.3282 -0.2446
    5MOL   C539 3587   1.524   1.591   6.151  0.8766  0.0611  0.4866
    5MOL   C540 3588   1.411   1.629   6.258  0.5885  0.3293  0.2515
    5MOL   C541 3589   1.279   1.668   6.192 -1.0533 -0.5235 -0.7518
    5MOL   O542 3590   1.173   1.670   6.286 -0.3880  0.3207  0.1922
    5MOL   C543 3591   1.085   1.772   6.275  0.5703 -0.0733 -0.6774
    5MOL   O544 3592   1.084   1.860   6.187  0.3095 -0.0678  0.1346
    5MOL   C545 3593   0.985   1.766   6.384 -0.3061  0.2394 -0.1931
    5MOL   C546 3594   0.906   1.877   6.415  0.1838 -0.0124  0.0886
    5MOL   C547 3595   0.820   1.874   6.526 -0.1129  0.7671 -0.4082
    5MOL   C548 3596   0.801   1.757   6.603  0.1429 -0.6334  0.2936
    5MOL   C549 3597   0.705   1.749   6.710  0.0891 -0.6110 -0.1093
    5MOL   O550 3598   0.716   1.667   6.799 -0.2345 -0.2011  0.2868
    5MOL   O551 3599   0.600   1.832   6.691 -0.2978  0.2263  0.6181
    5MOL   C552 3600   0.881   1.643   6.571 -0.3255  0.9647 -0.6924
    5MOL   C553 3601   0.969   1.651   6.463 -0.2474 -0.2917  0.3985
    5MOL   H554 3602   1.515   1.815   6.287  0.5007 -0.3251 -0.3665
    5MOL   H555 3603   1.408   1.775   6.424 -0.3069 -0.1058  0.2992
    5MOL   H556 3604   1.576   1.594   6.478  1.1801  0.5878  1.2180
    5MOL   H557 3605   1.646   1.756   6.478 -1.5610  0.8548 -0.2278
    5MOL   H558 3606   1.751   1.712   6.262 -0.2993  1.1679  0.8552
    5MOL   H559 3607   1.777   1.480   6.448 -0.7831  0.0098 -0.6741
    5MOL   H560 3608   1.869   1.619   6.469 -0.5072 -0.1950 -0.5818
    5MOL   H561 3609   1.621   1.436   6.254  1.5018 -0.8888 -0.6550
    5MOL   H562 3610   1.727   1.520   6.138 -0.8549 -3.2930 -0.9136
    5MOL   H563 3611   1.541   1.674   6.083 -2.7520  0.3003 -0.2314
    5MOL   H564 3612   1.484   1.514   6.085 -0.2910 -1.8681  3.2945
    5MOL   H565 3613   1.385   1.541   6.318  0.5857 -0.2317 -0.5620
    5MOL   H566 3614   1.249   1.600   6.113 -2.7215 -1.3309  0.5465
    5MOL   H567 3615   1.292   1.768   6.152  0.1836  0.1094  1.1200
    5MOL   H568 3616   0.925   1.962   6.351  0.2749 -0.4386 -0.4516
    5MOL   H569 3617   0.768   1.964   6.555 -0.9899  1.1618 -3.0002
    5MOL   H570 3618   0.868   1.552   6.628  1.6526  1.1181  0.0265
    5MOL   H571 3619   1.037   1.569   6.443  0.5923 -0.3496  3.2508
    5MOL   C572 3620   0.207   2.048   6.652 -0.4420 -0.2997  0.2162
    5MOL   C573 3621   0.304   1.923   6.681 -0.0322  0.4988  0.2979
    5MOL   C574 3622   0.415   1.960   6.784 -0.0485 -0.5252  0.5043
    5MOL   C575 3623   0.520   1.853   6.807  0.1189 -1.1067 -0.2380
    5MOL   C576 3624   0.479   2.095   6.769 -0.0058 -0.7160 -0.3769
    5MOL   C577 3625   0.380   2.210   6.752  0.4869  0.6797 -0.0090
    5MOL   C578 3626   0.284   2.181   6.635 -0.0417  0.0497 -0.6283
    5MOL   C579 3627   0.182   2.303   6.605  0.1302  0.1810  0.5163
    5MOL   O580 3628   0.106   2.329   6.720  0.4367 -0.3122 -0.0441
    5MOL   C581 3629   0.025   2.438   6.722 -0.5664  0.1386  0.0832
    5MOL   O582 3630   0.022   2.529   6.632  0.3664  0.3311  0.0287
    5MOL   C583 3631   7.980   2.437   6.853  0.1087  0.2109 -0.6433
    5MOL   C584 3632   7.947   2.557   6.921 -0.5031 -0.0539  0.3897
    5MOL   C585 3633   7.871   2.563   7.034 -0.2336 -0.1953 -0.2280
    5MOL   C586 3634   7.820   2.438   7.088  0.4101 -0.2017  0.8865
    5MOL   C587 3635   7.737   2.445   7.219  0.2491 -1.0576 -0.8724
    5MOL   O588 3636   7.683   2.345   7.263  0.1192 -1.2531  0.1428
    5MOL   O589 3637   7.720   2.579   7.265  0.2804 -0.0001 -0.0287
    5MOL   C590 3638   7.848   2.314   7.023 -0.0669  0.5941  0.7418
    5MOL   C591 3639   7.931   2.315   6.907 -0.9201  0.4427 -0.5455
    5MOL   H592 3640   0.117   2.042   6.714  0.3211 -3.0285  1.1470
    5MOL   H593 3641   0.152   2.032   6.559 -0.0687 -0.2152 -0.0172
    5MOL   H594 3642   0.349   1.906   6.583  1.8197 -0.8764  1.3612
    5MOL   H595 3643   0.245   1.835   6.706 -0.4268  0.8823  0.7246
    5MOL   H596 3644   0.371   1.961   6.884  2.6711 -0.8069  1.7297
    5MOL   H597 3645   0.485   1.761   6.853  1.6912 -2.3620 -1.5178
    5MOL   H598 3646   0.582   1.884   6.891 -2.1716 -0.6870  1.3408
    5MOL   H599 3647   0.553   2.094   6.689  0.5857 -0.6951  0.1660
    5MOL   H600 3648   0.537   2.107   6.861 -0.6892 -0.7217  0.0632
    5MOL   H601 3649   0.324   2.214   6.845  0.7385  0.4171  0.1544
    5MOL   H602 3650   0.421   2.310   6.736 -0.1180  1.2434  1.8484
    5MOL   H603 3651   0.343   2.183   6.544  2.9460  1.1536  1.2704
    5MOL   H604 3652   0.112   2.273   6.527  1.7660  3.9524 -2.5517
    5MOL   H605 3653   0.239   2.392   6.580  1.9285 -0.1878  3.0519
    5MOL   H606 3654   7.985   2.644   6.870 -2.1401  0.2757 -0.2877
    5MOL   H607 3655   7.867   2.656   7.089  0.5156  1.2096 -2.5000
    5MOL   H608 3656   7.821   2.218   7.065  1.2616 -0.8549 -1.5532
    5MOL   H609 3657   7.961   2.224   6.858 -1.7429 -1.0578  1.6217
    5MOL   C610 3658   7.519   2.811   6.991  0.0249 -0.5243 -0.4473
    5MOL   C611 3659   7.581   2.792   7.132  0.1534  0.1773 -0.3743
    5MOL   C612 3660   7.510   2.676   7.202  0.5140  0.0881  0.1439
    5MOL   C613 3661   7.593   2.624   7.318  0.0664 -0.4518  0.2214
    5MOL   C614 3662   7.368   2.724   7.227  1.5674  0.2709  0.0473
    5MOL   C615 3663   7.297   2.727   7.094  0.7088  0.2500  1.2315
    5MOL   C616 3664   7.367   2.816   6.980  0.3809  0.1937  0.0685
    5MOL   C617 3665   7.325   2.768   6.840  0.4062  0.0487  0.1150
    5MOL   O618 3666   7.357   2.633   6.815 -0.0514  0.1897  0.1497
    5MOL   C619 3667   7.356   2.594   6.695 -0.0171 -0.3438  0.0459
    5MOL   O620 3668   7.280   2.643   6.612 -0.4216 -0.2066 -0.1458
    5MOL   C621 3669   7.442   2.479   6.665 -0.3474 -0.3427  0.3445
    5MOL   C622 3670   7.559   2.448   6.738 -0.2340 -0.4595  0.4401
    5MOL   C623 3671   7.650   2.357   6.689  0.5679  0.5287 -0.0876
    5MOL   C624 3672   7.626   2.286   6.571  0.1758  0.8660 -0.2980
    5MOL   C625 3673   7.721   2.181   6.539 -0.2771  0.0339  0.0791
    5MOL   O626 3674   7.820   2.157   6.610  0.0804 -0.2702 -0.1562
    5MOL   O627 3675   7.702   2.119   6.424 -0.4867  0.1350  0.1010
    5MOL   C628 3676   7.511   2.309   6.493  0.7141 -0.3715 -0.8471
    5MOL   C629 3677   7.417   2.406   6.540 -0.5446  0.0684  0.5740
    5MOL   H630 3678   7.560   2.725   6.939 -2.3714 -2.1105  0.2056
    5MOL   H631 3679   7.564   2.895   6.938  1.3310  0.1428  1.6399
    5MOL   H632 3680   7.573   2.887   7.186 -1.1636  0.4647 -1.0528
    5MOL   H633 3681   7.685   2.765   7.115  0.6886  1.6459  0.4448
    5MOL   H634 3682   7.516   2.591   7.133  0.1698  0.0077  0.2132
    5MOL   H635 3683   7.546   2.544   7.374 -2.7362  2.8903  2.8721
    5MOL   H636 3684   7.601   2.698   7.398  1.4185 -2.0884  1.6404
    5MOL   H637 3685   7.372   2.817   7.283  2.1070  1.8623 -2.5403
    5MOL   H638 3686   7.317   2.656   7.294  1.0164  1.6704  1.0660
    5MOL   H639 3687   7.286   2.620   7.078  1.6247  0.4388 -0.7311
    5MOL   H640 3688   7.197   2.762   7.119  1.0338  1.1669  1.2711
    5MOL   H641 3689   7.330   2.918   6.990  1.0003  0.3203  1.0423
    5MOL   H642 3690   7.367   2.832   6.762  0.0505  3.1690  2.3844
    5MOL   H643 3691   7.219   2.790   6.834  0.8810  2.1031 -1.1735
    5MOL   H644 3692   7.570   2.504   6.830  1.0064  0.0615 -0.0205
    5MOL   H645 3693   7.744   2.344   6.739 -0.0710  1.6447  1.4311
    5MOL   H646 3694   7.482   2.260   6.401  1.8536 -1.4985 -0.6302
    5MOL   H647 3695   7.322   2.404   6.488  1.7416  2.4098 -4.0489
    5MOL   C648 3696   7.888   1.653   6.488 -0.3787 -0.1301  0.3114
    5MOL   C649 3697   7.893   1.785   6.398  0.1708  1.0931 -0.3939
    5MOL   C650 3698   7.765   1.874   6.429 -0.5524  0.1893  0.7264
    5MOL   C651 3699   7.791   2.018   6.372  0.2597 -0.2713  0.8069
    5MOL   C652 3700   7.638   1.802   6.378  0.1403 -0.2207  0.2536
    5MOL   C653 3701   7.639   1.660   6.454  0.0973 -0.6904  0.1414
    5MOL   C654 3702   7.763   1.574   6.436 -0.6840  0.5479 -0.2637
    5MOL   C655 3703   7.739   1.432   6.495  0.3245  0.0999  0.1101
    5MOL   O656 3704   7.859   1.351   6.464 -0.3802  0.0852 -0.4837
    5MOL   C657 3705   7.950   1.331   6.563 -0.0260 -0.0136 -0.3550
    5MOL   O658 3706   7.930   1.349   6.682  0.1136 -0.2756 -0.2466
    5MOL   C659 3707   0.054   1.307   6.511  0.1960  0.3478  0.0692
    5MOL   C660 3708   0.084   1.337   6.376  0.1600  0.0335 -0.2572
    5MOL   C661 3709   0.216   1.317   6.325 -0.8656  0.1232 -0.1673
    5MOL   C662 3710   0.320   1.259   6.406  0.6571 -0.5037 -0.2642
    5MOL   C663 3711   0.448   1.219   6.346 -0.8778  0.0408  0.6221
    5MOL   O664 3712   0.555   1.200   6.409  0.3731  0.4732  0.5666
    5MOL   O665 3713   0.441   1.203   6.207 -0.0866 -0.6093  0.5992
    5MOL   C666 3714   0.294   1.241   6.539 -0.6836 -0.2839  0.3625
    5MOL   C667 3715   0.166   1.261   6.588 -0.2372 -0.9351  0.1598
    5MOL   H668 3716   7.865   1.693   6.586  0.7133  1.4752 -0.0640
    5MOL   H669 3717   7.984   1.609   6.463 -0.6629 -0.9012  0.5599
    5MOL   H670 3718   7.901   1.752   6.294  1.6900  2.3126 -0.6874
    5MOL   H671 3719   7.982   1.844   6.422  0.4594  0.7984 -0.7357
    5MOL   H672 3720   7.745   1.889   6.535 -0.8130 -1.1409  0.8774
    5MOL   H673 3721   7.790   2.011   6.263 -0.7532 -0.6166  0.8313
    5MOL   H674 3722   7.889   2.055   6.402  0.1939  0.5435  0.0453
    5MOL   H675 3723   7.643   1.795   6.270  2.6782 -1.7771  0.4222
    5MOL   H676 3724   7.545   1.848   6.413 -0.4449 -1.9383  1.0298
    5MOL   H677 3725   7.609   1.690   6.554  2.7380 -2.1762  1.4260
    5MOL   H678 3726   7.553   1.602   6.423 -0.1232 -0.3766  0.1648
    5MOL   H679 3727   7.763   1.560   6.328 -0.9341  0.7486 -0.2891
    5MOL   H680 3728   7.663   1.394   6.427  0.3749 -1.6695  1.0375
    5MOL   H681 3729   7.715   1.427   6.601  0.0968  2.6328  0.2216
    5MOL   H682 3730   0.004   1.372   6.311 -2.0416 -0.9868  1.8475
    5MOL   H683 3731   0.236   1.326   6.219  0.6710 -2.1411 -0.1144
    5MOL   H684 3732   0.367   1.202   6.608  0.0904 -1.4999 -1.1142
    5MOL   H685 3733   0.154   1.241   6.693 -3.0895  1.7060  0.3963
    5MOL   C686 3734   0.516   1.264   5.778 -0.3232  0.0549  0.0616
    5MOL   C687 3735   0.514   1.280   5.938 -0.7242  0.3256  0.2324
    5MOL   C688 3736   0.547   1.145   6.000  0.6878  0.2438 -0.1013
    5MOL   C689 3737   0.557   1.146   6.150  0.2224 -0.1765  0.7720
    5MOL   C690 3738   0.455   1.035   5.945  0.0413 -0.0197  0.5184
    5MOL   C691 3739   0.431   1.032   5.793 -0.0566 -0.6172 -0.1215
    5MOL   C692 3740   0.405   1.166   5.730 -0.2026  0.0745 -0.0761
    5MOL   C693 3741   0.399   1.166   5.575  0.5663 -0.2803 -0.3355
    5MOL   O694 3742   0.310   1.066   5.525 -0.2349 -0.1206  0.3005
    5MOL   C695 3743   0.367   0.944   5.491 -0.0536  0.1913 -0.3152
    5MOL   O696 3744   0.487   0.914   5.501  0.0953 -0.3277  0.1205
    5MOL   C697 3745   0.271   0.843   5.448  0.1043 -0.2436  0.6041
    5MOL   C698 3746   0.303   0.710   5.441  0.1725 -0.1964  0.0690
    5MOL   C699 3747   0.215   0.613   5.387  0.1559  0.0983  0.3897
    5MOL   C700 3748   0.081   0.652   5.355 -0.5339  0.0322  0.0964
    5MOL   C701 3749   8.020   0.553   5.303  0.0288 -0.1580 -0.0299
    5MOL   O702 3750   0.020   0.436   5.282 -0.1771 -0.6420  0.1106
    5MOL   O703 3751   7.898   0.596   5.284  1.0087 -0.0866 -0.0347
    5MOL   C704 3752   0.048   0.789   5.372 -0.1598  0.2773 -0.7526
    5MOL   C705 3753   0.141   0.883   5.406 -0.3334  0.1658  0.3566
    5MOL   H706 3754   0.617   1.253   5.739  0.0819  0.4956  0.9784
    5MOL   H707 3755   0.489   1.365   5.747  1.9698  0.0730 -1.9876
    5MOL   H708 3756   0.421   1.326   5.971  1.2027  3.5369  1.4480
    5MOL   H709 3757   0.600   1.342   5.964  0.5757 -0.7352 -1.4291
    5MOL   H710 3758   0.646   1.110   5.970  0.5472 -0.3772  0.1565
    5MOL   H711 3759   0.637   1.215   6.176 -0.9086  1.2613  0.5377
    5MOL   H712 3760   0.575   1.044   6.185  2.9679  0.4674  1.3687
    5MOL   H713 3761   0.357   1.039   5.993  0.1710  2.7787  0.6419
    5MOL   H714 3762   0.498   0.937   5.968 -0.2335 -0.4143 -0.6240
    5MOL   H715 3763   0.518   0.983   5.748  0.4236  0.2793 -0.1974
    5MOL   H716 3764   0.338   0.978   5.775 -0.5690  0.4701 -0.7728
    5MOL   H717 3765   0.311   1.196   5.775  2.0107  1.8685  3.5104
    5MOL   H718 3766   0.500   1.154   5.535  0.1520  0.1050 -1.5000
    5MOL   H719 3767   0.365   1.265   5.545  2.1224 -0.1457 -1.7393
    5MOL   H720 3768   0.402   0.683   5.475 -0.1047  0.5083  1.4984
    5MOL   H721 3769   0.247   0.510   5.386 -1.0831 -0.3021  0.5614
    5MOL   H722 3770   7.978   0.819   5.355  0.0060  0.0248 -2.3064
    5MOL   H723 3771   0.106   0.985   5.407  0.2736  0.3839 -0.0379
    5MOL   C724 3772   7.578   0.199   5.376 -0.1726 -0.5845  0.0185
    5MOL   C725 3773   7.624   0.309   5.281 -0.0916 -0.1719 -0.3173
    5MOL   C726 3774   7.750   0.389   5.335  0.7654  0.2462 -0.3838
    5MOL   C727 3775   7.791   0.510   5.245  0.4627  0.8328 -0.0668
    5MOL   C728 3776   7.726   0.435   5.483  0.7097  0.1339 -1.0465
    5MOL   C729 3777   7.692   0.314   5.573 -0.3454 -0.2878 -0.0344
    5MOL   C730 3778   7.573   0.235   5.522  0.1963 -0.2451 -0.4866
    5MOL   C731 3779   7.547   0.112   5.610 -0.0719 -0.0373  0.2598
    5MOL   O732 3780   7.425   0.039   5.586  0.4503 -0.0093  0.5215
    5MOL   C733 3781   7.421   7.939   5.607  0.2924  0.1999  0.1382
    5MOL   O734 3782   7.506   7.868   5.650 -0.1766 -0.3144 -0.1623
    5MOL   C735 3783   7.297   7.876   5.558  0.0373 -0.0879 -0.1420
    5MOL   C736 3784   7.262   7.739   5.592 -0.2327 -0.6994  0.4613
    5MOL   C737 3785   7.135   7.688   5.559  0.1331  0.4340  0.1942
    5MOL   C738 3786   7.051   7.757   5.468 -0.0909  0.3427  0.1642
    5MOL   C739 3787   6.922   7.700   5.417 -0.0851 -0.0596  0.3212
    5MOL   O740 3788   6.858   7.751   5.324 -0.2138 -0.5778 -0.2872
    5MOL   O741 3789   6.878   7.597   5.496 -0.5977  0.1030  0.1141
    5MOL   C742 3790   7.087   7.889   5.424 -0.1225 -0.4105  0.5963
    5MOL   C743 3791   7.207   7.947   5.469 -0.2672 -0.5250  0.0685
    5MOL   H744 3792   7.638   0.108   5.367 -1.8218 -1.8500  1.3700
    5MOL   H745 3793   7.476   0.175   5.344  0.1829 -2.0391 -0.0536
    5MOL   H746 3794   7.544   0.381   5.263  0.1612 -0.1811 -1.5403
    5MOL   H747 3795   7.641   0.266   5.182  2.2762  1.0045 -0.4563
    5MOL   H748 3796   7.824   0.310   5.340  0.7678  0.3237  0.8536
    5MOL   H749 3797   7.704   0.575   5.237  1.2341  1.8773 -0.0420
    5MOL   H750 3798   7.814   0.478   5.144  0.2996  2.5732 -0.6707
    5MOL   H751 3799   7.649   0.512   5.478 -3.0842 -3.5645 -2.1091
    5MOL   H752 3800   7.814   0.488   5.519 -0.6206  1.5859  0.1185
    5MOL   H753 3801   7.785   0.257   5.578  0.0168  0.1628 -1.4771
    5MOL   H754 3802   7.657   0.350   5.670  1.5231  0.8149  0.2774
    5MOL   H755 3803   7.500   0.314   5.540  1.8963  1.1517  0.4488
    5MOL   H756 3804   7.557   0.146   5.714 -0.4552  0.7712  0.0373
    5MOL   H757 3805   7.626   0.042   5.585 -0.9729 -1.2896  0.8591
    5MOL   H758 3806   7.332   7.682   5.651 -2.6702 -3.0562  1.1637
    5MOL   H759 3807   7.104   7.589   5.586 -1.8407  1.2069  0.8072
    5MOL   H760 3808   7.018   7.946   5.363  0.6724  1.3007  1.2724
    5MOL   H761 3809   7.222   0.015   5.431 -1.2624 -0.3298  0.1759
    5MOL   H762 3810   6.792   7.570   5.468  0.0913 -0.3477 -1.6161
    6MOL     C1 3811   1.056   5.028   5.250  0.1967  0.7632  0.0038
    6MOL     C2 3812   0.955   4.954   5.167  0.9367  0.1931  0.2853
    6MOL     C3 3813   0.962   4.801   5.174 -0.1843 -1.0827  0.4365
    6MOL     C4 3814   0.847   4.731   5.100  0.3631 -0.0060  0.0855
    6MOL     C5 3815   1.105   4.762   5.132 -0.0067  0.3798  0.6054
    6MOL     C6 3816   1.214   4.845   5.215 -0.2324 -0.0004 -0.7647
    6MOL     C7 3817   1.201   4.998   5.199  0.2222 -0.0540  0.4142
    6MOL     C8 3818   1.310   5.067   5.278 -1.1340  0.7118  0.3950
    6MOL     O9 3819   1.301   5.203   5.250  0.0605 -0.4215  0.3981
    6MOL    C10 3820   1.402   5.284   5.292  0.4824 -0.1692  0.3080
    6MOL    O11 3821   1.497   5.237   5.354  0.1718  0.2804 -0.2951
    6MOL    C12 3822   1.386   5.427   5.256 -0.6258  0.4610  0.2296
    6MOL    C13 3823   1.304   5.469   5.147  0.9660 -0.4394  0.4141
    6MOL    C14 3824   1.285   5.604   5.114  0.2796 -0.3341 -0.7767
    6MOL    C15 3825   1.356   5.701   5.181  0.4734  0.3499 -0.3585
    6MOL    C16 3826   1.329   5.846   5.152  0.1196 -0.6666  0.1400
    6MOL    O17 3827   1.230   5.877   5.092 -0.1274 -0.3379 -0.7184
    6MOL    O18 3828   1.424   5.924   5.193  0.3279  0.5279  0.2485
    6MOL    C19 3829   1.452   5.661   5.285 -0.0305  0.4421  0.3776
    6MOL    C20 3830   1.460   5.527   5.323  0.6108 -0.1499  0.0309
    6MOL    H21 3831   1.035   5.002   5.354 -0.4278  1.6494  0.0997
    6MOL    H22 3832   1.041   5.136   5.249  0.8298  0.8894  2.2649
    6MOL    H23 3833   0.958   4.976   5.060 -0.4879 -0.7051  0.0498
    6MOL    H24 3834   0.858   4.989   5.203  1.6608  1.4203  1.0899
    6MOL    H25 3835   0.948   4.769   5.277  0.6115 -1.2365  0.4993
    6MOL    H26 3836   0.869   4.741   4.994 -0.7316 -0.5387 -0.1982
    6MOL    H27 3837   0.750   4.775   5.120  1.3276  2.5731 -0.6886
    6MOL    H28 3838   1.106   4.771   5.023  2.2005 -0.9757  0.4767
    6MOL    H29 3839   1.122   4.658   5.160  0.2934  0.7445  1.7982
    6MOL    H30 3840   1.210   4.816   5.320  0.1032  0.1185 -0.7159
    6MOL    H31 3841   1.315   4.811   5.192 -0.0052  0.7663 -0.9235
    6MOL    H32 3842   1.205   5.033   5.096 -1.6294 -1.1226 -0.0527
    6MOL    H33 3843   1.409   5.040   5.243 -1.4681  1.0731 -0.8839
    6MOL    H34 3844   1.310   5.044   5.384 -1.9488  1.5095  0.5755
    6MOL    H35 3845   1.250   5.402   5.083  0.3007  2.9452 -2.7466
    6MOL    H36 3846   1.219   5.628   5.032  1.6936 -0.8113 -2.0717
    6MOL    H37 3847   1.516   5.730   5.339 -0.7041  1.1216  0.3128
    6MOL    H38 3848   1.531   5.505   5.401  0.0311  1.0156  0.9121
    6MOL    H39 3849   0.841   4.628   5.137 -1.0260  0.7425  1.9957
    6MOL    C40 3850   1.804   6.124   5.086 -0.2387  0.7146  0.0849
    6MOL    C41 3851   1.663   6.063   5.071 -0.1719  0.1088 -0.3780
    6MOL    C42 3852   1.563   6.126   5.178  0.0570  0.0632  0.6271
    6MOL    C43 3853   1.418   6.064   5.178 -0.0333 -0.2877 -0.4967
    6MOL    C44 3854   1.618   6.109   5.321  0.0075 -0.1000  0.0958
    6MOL    C45 3855   1.765   6.149   5.337 -0.0734  0.2184  0.2889
    6MOL    C46 3856   1.855   6.089   5.227 -0.7944 -0.3875  0.3627
    6MOL    C47 3857   1.998   6.115   5.251  0.2543 -0.5977 -0.6737
    6MOL    O48 3858   2.024   6.253   5.257 -0.1409  0.0941 -0.1511
    6MOL    C49 3859   2.137   6.297   5.197 -0.2561 -0.7471 -0.2971
    6MOL    O50 3860   2.206   6.225   5.124 -0.3654 -0.5794 -0.8391
    6MOL    C51 3861   2.158   6.443   5.217  0.6049 -0.1960  0.1399
    6MOL    C52 3862   2.283   6.499   5.177  0.5130  0.6828 -0.4074
    6MOL    C53 3863   2.304   6.633   5.201  0.1263 -0.0954 -0.3352
    6MOL    C54 3864   2.204   6.719   5.262  0.2417  0.3564 -0.6442
    6MOL    C55 3865   2.231   6.853   5.279 -0.2848  0.3365  0.2469
    6MOL    O56 3866   2.159   6.929   5.346  0.2329  0.2876  0.6388
    6MOL    O57 3867   2.339   6.905   5.213  0.2387  0.1956 -0.4171
    6MOL    C58 3868   2.079   6.664   5.298  0.3508  0.0694  0.0537
    6MOL    C59 3869   2.055   6.526   5.270 -0.3915 -0.6190 -0.2684
    6MOL    H60 3870   1.804   6.233   5.082  0.0726  0.6401 -2.6707
    6MOL    H61 3871   1.873   6.082   5.013  0.0072  0.2962  0.5501
    6MOL    H62 3872   1.669   5.956   5.092  1.7541  0.4621  1.0575
    6MOL    H63 3873   1.614   6.069   4.974  1.2258 -1.2611 -1.2039
    6MOL    H64 3874   1.559   6.233   5.155 -0.6961  0.7051  3.4955
    6MOL    H65 3875   1.370   6.082   5.081  0.9296 -3.5741 -1.6491
    6MOL    H66 3876   1.359   6.101   5.262  3.3687 -0.7500  2.1860
    6MOL    H67 3877   1.607   6.006   5.355  2.1344 -0.7216 -1.0018
    6MOL    H68 3878   1.559   6.167   5.393 -0.7055  1.2630 -1.5426
    6MOL    H69 3879   1.772   6.257   5.347  0.9379  0.2553 -0.7208
    6MOL    H70 3880   1.796   6.114   5.435  1.4857 -1.7849 -0.8737
    6MOL    H71 3881   1.858   5.980   5.237 -1.0359 -0.5749 -1.4900
    6MOL    H72 3882   2.072   6.057   5.194  2.2558  3.9927 -3.0324
    6MOL    H73 3883   2.012   6.076   5.352  1.4039  0.2928 -0.4796
    6MOL    H74 3884   2.361   6.432   5.146 -0.9362 -0.6738 -1.2135
    6MOL    H75 3885   2.405   6.666   5.179  1.1741 -0.4475  3.5978
    6MOL    H76 3886   2.004   6.727   5.342  1.3465 -0.7726  3.0492
    6MOL    H77 3887   1.953   6.502   5.295 -0.4812  0.7498  0.7548
    6MOL    C78 3888   2.434   7.381   5.085 -0.5962  0.2746  0.0250
    6MOL    C79 3889   2.467   7.257   5.172 -0.5121 -0.7227 -1.0286
    6MOL    C80 3890   2.360   7.147   5.155 -0.2325 -0.0245 -0.6564
    6MOL    C81 3891   2.388   7.035   5.260  0.3089  0.1470  0.5799
    6MOL    C82 3892   2.222   7.199   5.156 -0.4936 -0.1094  0.3458
    6MOL    C83 3893   2.200   7.328   5.081 -0.0196 -0.6257 -0.2801
    6MOL    C84 3894   2.297   7.434   5.123  0.0894 -0.4421  0.0533
    6MOL    C85 3895   2.271   7.576   5.069 -0.3309 -0.1968  0.0718
    6MOL    O86 3896   2.290   7.587   4.927 -0.6023  0.1242  0.3231
    6MOL    C87 3897   2.257   7.704   4.872  0.0155 -0.2462 -0.1977
    6MOL    O88 3898   2.210   7.800   4.932  0.0148 -0.1990 -0.2495
    6MOL    C89 3899   2.280   7.717   4.727  0.1788 -0.2047  0.2928
    6MOL    C90 3900   2.199   7.813   4.655 -0.1100 -0.2433  0.4874
    6MOL    C91 3901   2.201   7.813   4.513 -0.0253  0.2018 -0.3721
    6MOL    C92 3902   2.274   7.712   4.446  0.2025 -0.3883  0.1908
    6MOL    C93 3903   2.268   7.718   4.298 -0.1657 -0.2603  0.1115
    6MOL    O94 3904   2.220   7.812   4.237 -0.1809  0.0602  0.1545
    6MOL    O95 3905   2.341   7.620   4.242  0.1773 -0.0979  0.7432
    6MOL    C96 3906   2.345   7.614   4.514  0.4538 -0.5093  0.4740
    6MOL    C97 3907   2.350   7.615   4.651  0.0612 -0.0783 -0.4581
    6MOL    H98 3908   2.441   7.369   4.977  2.7984  0.8734  0.0999
    6MOL    H99 3909   2.503   7.462   5.111 -0.3858  0.6363 -1.5554
    6MOL   H100 3910   2.460   7.283   5.277 -1.8806 -2.0399 -0.7757
    6MOL   H101 3911   2.566   7.216   5.155  0.8531  0.7013  2.9400
    6MOL   H102 3912   2.390   7.097   5.063 -1.8945  0.6688 -1.5955
    6MOL   H103 3913   2.355   7.064   5.360  2.2338 -0.7465  1.5029
    6MOL   H104 3914   2.496   7.023   5.270  0.4632 -2.3238 -3.0618
    6MOL   H105 3915   2.201   7.217   5.261 -1.5317 -0.3210  0.1742
    6MOL   H106 3916   2.145   7.125   5.135  0.9408 -1.3514 -0.6902
    6MOL   H107 3917   2.192   7.330   4.973  1.0272  0.8961 -0.3526
    6MOL   H108 3918   2.102   7.363   5.114 -0.1428 -0.4239 -0.8600
    6MOL   H109 3919   2.313   7.442   5.231  1.4970  0.3399 -0.2061
    6MOL   H110 3920   2.325   7.653   5.123  0.0366  1.5636 -2.6769
    6MOL   H111 3921   2.165   7.598   5.087 -0.6328 -0.6566 -1.0846
    6MOL   H112 3922   2.138   7.888   4.703 -0.6403 -1.5529  1.8760
    6MOL   H113 3923   2.141   7.880   4.453  0.7685  1.6694  0.4489
    6MOL   H114 3924   2.391   7.535   4.457 -0.5920  1.1406 -2.7950
    6MOL   H115 3925   2.421   7.546   4.696  0.9555  1.5406  0.6773
    6MOL   C116 3926   2.374   7.224   4.007 -0.3098  0.2654 -0.1173
    6MOL   C117 3927   2.319   7.345   4.083  0.1614 -0.8094  0.4702
    6MOL   C118 3928   2.401   7.472   4.053  0.4044  0.2996  0.4497
    6MOL   C119 3929   2.351   7.603   4.100 -0.5965  0.0449  0.0076
    6MOL   C120 3930   2.549   7.440   4.102 -0.0525  0.1046 -0.2235
    6MOL   C121 3931   2.605   7.317   4.032 -0.0606 -0.0680 -0.5216
    6MOL   C122 3932   2.513   7.189   4.050 -0.8738  0.3944 -0.0267
    6MOL   C123 3933   2.551   7.064   3.964 -0.7263 -0.0705 -0.3925
    6MOL   O124 3934   2.646   6.975   4.025 -0.4736  0.5089 -0.0407
    6MOL   C125 3935   2.686   6.868   3.947  0.4533  0.6640 -0.3382
    6MOL   O126 3936   2.657   6.852   3.826 -0.2443 -0.3398 -0.1583
    6MOL   C127 3937   2.778   6.772   4.019 -0.1027 -0.3699  0.0054
    6MOL   C128 3938   2.801   6.779   4.159  1.3690  0.0808  0.0226
    6MOL   C129 3939   2.865   6.679   4.231 -0.0689  0.5418 -0.4323
    6MOL   C130 3940   2.921   6.570   4.162 -0.1490 -0.2560 -0.4329
    6MOL   C131 3941   2.989   6.477   4.252  0.2466 -0.0631  0.0706
    6MOL   O132 3942   3.004   6.495   4.376 -0.0831  0.3071 -0.5892
    6MOL   O133 3943   3.030   6.364   4.182  0.6735 -0.0437 -0.8317
    6MOL   C134 3944   2.916   6.562   4.022  0.0275  0.0878 -0.0296
    6MOL   C135 3945   2.839   6.661   3.958  0.8098  0.2203  0.0196
    6MOL   H136 3946   2.371   7.254   3.903 -0.4080  3.2468  0.6986
    6MOL   H137 3947   2.288   7.158   4.020 -1.3843  1.2602 -1.9737
    6MOL   H138 3948   2.316   7.324   4.190 -1.2435 -0.7712  0.4419
    6MOL   H139 3949   2.215   7.368   4.059  0.1804  1.6412  2.4741
    6MOL   H140 3950   2.400   7.480   3.944 -0.0075 -0.2506  0.4081
    6MOL   H141 3951   2.250   7.620   4.061 -1.5935 -1.9974  1.6424
    6MOL   H142 3952   2.415   7.680   4.056 -1.7677 -0.0684 -1.9769
    6MOL   H143 3953   2.556   7.422   4.209  2.3249  3.1731  0.2068
    6MOL   H144 3954   2.609   7.528   4.082  1.6860 -0.9899  0.1273
    6MOL   H145 3955   2.627   7.350   3.931 -1.0225  2.0300 -0.0654
    6MOL   H146 3956   2.703   7.290   4.071  0.6630  1.2199 -1.4166
    6MOL   H147 3957   2.497   7.158   4.153 -1.2215  3.0829  0.7640
    6MOL   H148 3958   2.598   7.105   3.875  2.2235  1.3948  1.7682
    6MOL   H149 3959   2.466   7.011   3.921 -1.3687  0.6984 -0.0663
    6MOL   H150 3960   2.747   6.857   4.211 -0.5426 -0.3544 -1.2727
    6MOL   H151 3961   2.876   6.695   4.338 -0.5386 -2.7247  0.1520
    6MOL   H152 3962   2.956   6.477   3.969 -2.0553 -1.3525  0.6089
    6MOL   H153 3963   2.825   6.645   3.852 -0.0355  1.4550 -0.0768
    6MOL   C154 3964   3.411   6.070   4.250  0.1109 -0.0289  0.2743
    6MOL   C155 3965   3.268   6.103   4.291  0.4556  0.3882  0.3198
    6MOL   C156 3966   3.221   6.221   4.215 -0.0848 -0.6787 -0.3660
    6MOL   C157 3967   3.079   6.255   4.257  0.2661 -0.7201  0.1537
    6MOL   C158 3968   3.315   6.341   4.247  0.2272  0.0393 -0.3873
    6MOL   C159 3969   3.459   6.312   4.199  0.4566  0.7306 -0.7446
    6MOL   C160 3970   3.510   6.189   4.262  0.6380  0.0123  0.6532
    6MOL   C161 3971   3.657   6.151   4.230 -0.0588 -0.9346  1.0837
    6MOL   O162 3972   3.675   6.126   4.090  0.1368 -0.4613 -0.6233
    6MOL   C163 3973   3.799   6.086   4.051 -0.5445  0.2373 -0.4207
    6MOL   O164 3974   3.882   6.044   4.132 -0.0741 -0.0235 -0.3238
    6MOL   C165 3975   3.839   6.103   3.907 -0.5321  0.7697 -0.5432
    6MOL   C166 3976   3.965   6.059   3.857 -0.6875  0.9241 -0.1680
    6MOL   C167 3977   4.001   6.071   3.726 -0.9106  1.1505 -0.0831
    6MOL   C168 3978   3.914   6.132   3.631 -0.5689  0.0026 -0.0555
    6MOL   C169 3979   3.955   6.160   3.494 -1.0842 -0.8086 -0.1292
    6MOL   O170 3980   4.062   6.131   3.444 -0.1924  0.9325  0.0508
    6MOL   O171 3981   3.858   6.226   3.423 -0.3666 -1.1318  0.3196
    6MOL   C172 3982   3.783   6.155   3.675  0.5660  0.3716  0.4359
    6MOL   C173 3983   3.749   6.146   3.811 -0.0601 -0.8980  0.0956
    6MOL   H174 3984   3.407   6.044   4.144 -1.4228  0.5781  0.1672
    6MOL   H175 3985   3.444   5.986   4.310 -0.1356  0.1491  0.6576
    6MOL   H176 3986   3.234   6.112   4.394 -0.4989 -0.3133  0.0790
    6MOL   H177 3987   3.209   6.020   4.250 -0.8939  2.6689 -2.5870
    6MOL   H178 3988   3.206   6.193   4.111 -1.6285 -0.9883 -0.0707
    6MOL   H179 3989   3.086   6.283   4.362  2.6343  0.5865 -0.2961
    6MOL   H180 3990   3.009   6.172   4.258 -1.3647  0.6344  0.6934
    6MOL   H181 3991   3.316   6.357   4.354  1.0889 -1.8229 -0.1154
    6MOL   H182 3992   3.282   6.434   4.200  0.4564 -0.1505 -0.9401
    6MOL   H183 3993   3.462   6.303   4.090 -2.4982  0.0457 -0.8134
    6MOL   H184 3994   3.508   6.401   4.238 -1.2428  2.7432 -3.0067
    6MOL   H185 3995   3.505   6.212   4.368  0.5555 -1.7738  1.0544
    6MOL   H186 3996   3.680   6.061   4.288 -1.6938 -1.9930  0.1143
    6MOL   H187 3997   3.728   6.225   4.268 -2.8407  2.2588  0.2874
    6MOL   H188 3998   4.033   6.016   3.929 -0.1904  2.4997  0.3152
    6MOL   H189 3999   4.100   6.037   3.702 -1.3939  0.3985 -1.0157
    6MOL   H190 4000   3.704   6.179   3.605  1.5489  1.8466 -0.1891
    6MOL   H191 4001   3.650   6.180   3.838 -0.3984  0.7740 -2.9649
    6MOL   C192 4002   3.514   6.365   3.200 -0.3687  0.2813  0.1094
    6MOL   C193 4003   3.623   6.274   3.261 -0.3112 -0.1996  0.9841
    6MOL   C194 4004   3.760   6.328   3.219  0.1589 -0.4863 -0.1268
    6MOL   C195 4005   3.875   6.241   3.281  0.7402 -0.5433 -0.7650
    6MOL   C196 4006   3.781   6.344   3.061  0.2134  0.4584 -0.2515
    6MOL   C197 4007   3.663   6.424   3.003  0.3849 -0.0015  0.3521
    6MOL   C198 4008   3.526   6.372   3.051  0.2495 -0.9113 -0.4803
    6MOL   C199 4009   3.396   6.442   3.003 -0.0752  0.0210 -0.1516
    6MOL   O200 4010   3.382   6.571   3.065  0.4745  0.1017 -0.8231
    6MOL   C201 4011   3.407   6.684   2.991 -0.5140 -0.1531  0.2832
    6MOL   O202 4012   3.424   6.691   2.863  0.7989  0.7484 -0.4412
    6MOL   C203 4013   3.405   6.811   3.077  0.2515  0.4170 -0.7816
    6MOL   C204 4014   3.412   6.942   3.016 -0.0790 -0.1617 -0.8138
    6MOL   C205 4015   3.399   7.052   3.107 -0.0676  0.3681  0.6298
    6MOL   C206 4016   3.395   7.043   3.247  0.3319 -0.1257  0.5425
    6MOL   C207 4017   3.390   7.169   3.321 -0.0096 -0.4838  0.1739
    6MOL   O208 4018   3.401   7.277   3.261  0.3818  0.1288 -0.2457
    6MOL   O209 4019   3.377   7.154   3.460  0.2523 -0.1371  0.1694
    6MOL   C210 4020   3.379   6.912   3.305 -0.1249 -0.2664 -0.6850
    6MOL   C211 4021   3.385   6.803   3.221  0.8895 -0.3397  0.3547
    6MOL   H212 4022   3.516   6.465   3.243 -0.0228 -0.1591  1.1319
    6MOL   H213 4023   3.417   6.323   3.225 -0.4300  0.6345  0.4831
    6MOL   H214 4024   3.611   6.174   3.221  0.0307 -0.0251  0.4400
    6MOL   H215 4025   3.615   6.266   3.369  2.8169  0.9359  1.3661
    6MOL   H216 4026   3.763   6.427   3.265 -0.4460 -0.4061 -0.2529
    6MOL   H217 4027   3.967   6.298   3.269  0.9829 -0.8221 -0.2240
    6MOL   H218 4028   3.874   6.141   3.238  0.0612 -0.0028 -2.0101
    6MOL   H219 4029   3.793   6.247   3.012 -1.2467 -1.2339  2.6504
    6MOL   H220 4030   3.872   6.400   3.041  1.8663 -1.3734  2.0048
    6MOL   H221 4031   3.668   6.531   3.025 -3.3192  1.0829 -3.5318
    6MOL   H222 4032   3.667   6.427   2.894 -1.4363  2.3179  0.3212
    6MOL   H223 4033   3.520   6.268   3.018 -0.8352 -0.4635 -1.7401
    6MOL   H224 4034   3.312   6.382   3.037  0.9738 -1.3938  0.0245
    6MOL   H225 4035   3.381   6.436   2.895 -0.7571 -0.1825 -0.0477
    6MOL   H226 4036   3.403   6.960   2.910 -2.5280 -1.2667 -0.8215
    6MOL   H227 4037   3.405   7.149   3.060  1.0247  0.4110  0.8474
    6MOL   H228 4038   3.366   6.907   3.412  0.5500 -0.9205 -0.6304
    6MOL   H229 4039   3.373   6.707   3.269  1.5172 -0.1962  0.7985
    6MOL   C230 4040   3.088   7.073   3.767 -0.0817 -0.2632 -0.3648
    6MOL   C231 4041   3.154   7.114   3.637  0.2808 -0.6305  0.4532
    6MOL   C232 4042   3.271   7.209   3.673 -0.2704  0.6638 -0.7054
    6MOL   C233 4043   3.352   7.256   3.551 -0.1005  0.5406 -0.4854
    6MOL   C234 4044   3.224   7.334   3.752  0.6703  0.1528 -0.3872
    6MOL   C235 4045   3.165   7.291   3.882 -0.6424  0.1011  0.0336
    6MOL   C236 4046   3.050   7.191   3.854 -0.7011  0.1973  0.3579
    6MOL   C237 4047   3.000   7.161   3.996 -0.2210 -0.3185 -0.1498
    6MOL   O238 4048   3.093   7.074   4.058  0.1891 -0.0203 -0.0082
    6MOL   C239 4049   3.084   7.042   4.185  0.0331 -0.4648 -0.0537
    6MOL   O240 4050   2.990   7.071   4.266 -0.2614  0.3014  0.1687
    6MOL   C241 4051   3.197   6.948   4.221  0.3069 -0.3693 -0.4722
    6MOL   C242 4052   3.197   6.897   4.352  0.4168 -0.0753  0.6402
    6MOL   C243 4053   3.302   6.821   4.402 -0.4621 -0.8026 -0.3710
    6MOL   C244 4054   3.420   6.809   4.327  0.2370  0.0093 -0.1819
    6MOL   C245 4055   3.541   6.751   4.387 -0.2304 -0.0363  1.0229
    6MOL   O246 4056   3.651   6.743   4.333 -0.2564  0.2090 -0.0518
    6MOL   O247 4057   3.518   6.709   4.512 -0.2356 -0.1118 -0.0087
    6MOL   C248 4058   3.414   6.851   4.191 -0.0452 -0.0344  0.7412
    6MOL   C249 4059   3.307   6.928   4.143  0.0753 -0.0055  0.2687
    6MOL   H250 4060   3.142   7.001   3.829 -2.2868 -0.1948  1.7330
    6MOL   H251 4061   2.994   7.024   3.744 -2.1596  2.6950  1.4669
    6MOL   H252 4062   3.091   7.164   3.564  1.2183  0.1665  0.1902
    6MOL   H253 4063   3.191   7.020   3.595 -1.1049 -0.3177 -1.5371
    6MOL   H254 4064   3.348   7.155   3.728  0.5598  0.7170 -1.7860
    6MOL   H255 4065   3.447   7.296   3.588 -1.2449  0.8688  2.1948
    6MOL   H256 4066   3.295   7.339   3.509 -0.8187 -0.8771 -2.3720
    6MOL   H257 4067   3.156   7.406   3.708 -1.8206 -1.7820  0.1731
    6MOL   H258 4068   3.309   7.396   3.780  0.9725 -0.2323 -0.4299
    6MOL   H259 4069   3.248   7.240   3.932 -0.6524  0.7156  0.6780
    6MOL   H260 4070   3.145   7.381   3.940  1.2173  1.4715 -1.3540
    6MOL   H261 4071   2.963   7.237   3.809  0.5796  1.3795 -0.9669
    6MOL   H262 4072   2.905   7.106   3.990 -1.0930  1.0961  0.5226
    6MOL   H263 4073   2.990   7.257   4.046  0.8982 -0.0006 -0.5223
    6MOL   H264 4074   3.120   6.924   4.423  0.9750  1.2446  0.7613
    6MOL   H265 4075   3.288   6.781   4.501 -1.3372 -0.9033 -0.5327
    6MOL   H266 4076   3.509   6.835   4.142  0.3256 -1.7029  1.9630
    6MOL   H267 4077   3.320   6.971   4.045 -3.2532 -2.2108 -1.2211
    6MOL   C268 4078   3.413   6.324   4.685  0.5455  0.1512  0.5889
    6MOL   C269 4079   3.507   6.430   4.609  0.5830 -0.5011  0.2477
    6MOL   C270 4080   3.564   6.551   4.687 -0.0123  0.0692 -0.0234
    6MOL   C271 4081   3.620   6.653   4.594  0.5444  0.0988 -0.4005
    6MOL   C272 4082   3.454   6.605   4.776  0.2392 -0.5376 -0.3590
    6MOL   C273 4083   3.384   6.495   4.853  0.0655  0.0780 -0.0689
    6MOL   C274 4084   3.304   6.394   4.765  0.0725  0.1322 -0.0251
    6MOL   C275 4085   3.207   6.303   4.839 -0.2572  0.4938 -0.8700
    6MOL   O276 4086   3.147   6.207   4.761 -0.0300 -0.5337  0.5569
    6MOL   C277 4087   3.054   6.248   4.678  0.4346 -0.5860 -0.0322
    6MOL   O278 4088   2.995   6.359   4.679  0.0184 -0.5334  0.3819
    6MOL   C279 4089   3.016   6.138   4.591 -0.0781 -0.2916  0.3656
    6MOL   C280 4090   3.095   6.020   4.578 -0.5618 -0.2952  0.7730
    6MOL   C281 4091   3.063   5.924   4.480  0.0225 -0.2202 -0.8759
    6MOL   C282 4092   2.932   5.931   4.423 -0.3627  0.1465  0.2619
    6MOL   C283 4093   2.894   5.824   4.326  0.1160 -0.4314 -0.0538
    6MOL   O284 4094   2.944   5.710   4.323  0.1078 -0.1334 -0.5706
    6MOL   O285 4095   2.791   5.864   4.256 -0.0752 -0.1555  0.7271
    6MOL   C286 4096   2.854   6.049   4.430 -0.2825 -0.3537  0.2662
    6MOL   C287 4097   2.894   6.152   4.516 -0.4336 -0.6442  0.6432
    6MOL   H288 4098   3.466   6.260   4.755 -0.7900 -0.0140  1.4545
    6MOL   H289 4099   3.367   6.273   4.600  0.1514 -0.3101  1.0768
    6MOL   H290 4100   3.450   6.477   4.528 -1.1731 -0.7237  1.3217
    6MOL   H291 4101   3.584   6.372   4.558  0.2309 -0.9293  0.2022
    6MOL   H292 4102   3.645   6.526   4.756  0.7203  0.3528 -0.7658
    6MOL   H293 4103   3.712   6.622   4.544  1.4971  0.0934  1.3157
    6MOL   H294 4104   3.632   6.749   4.646 -0.2281  0.4655 -0.8938
    6MOL   H295 4105   3.375   6.655   4.719  0.2431 -0.5819 -0.4035
    6MOL   H296 4106   3.497   6.678   4.844  1.6802  0.0216 -1.8629
    6MOL   H297 4107   3.453   6.434   4.910 -0.3411  0.4210  0.7872
    6MOL   H298 4108   3.307   6.538   4.917  0.3160  0.3745  0.0359
    6MOL   H299 4109   3.253   6.456   4.691  0.2992 -0.4302 -0.6551
    6MOL   H300 4110   3.130   6.362   4.889  0.4452  0.5260  0.1918
    6MOL   H301 4111   3.259   6.260   4.925 -0.2959 -1.2422 -1.6848
    6MOL   H302 4112   3.182   6.007   4.641  0.9108  0.8478 -0.9719
    6MOL   H303 4113   3.117   5.832   4.466  0.9810 -0.1668  2.0802
    6MOL   H304 4114   2.764   6.059   4.371  0.4693  0.4169 -0.7799
    6MOL   H305 4115   2.827   6.235   4.530  0.8682  0.3555  1.0761
    6MOL   C306 4116   2.451   5.602   4.397  0.1912  0.7292  0.4084
    6MOL   C307 4117   2.591   5.636   4.332  0.0655  0.1520  0.6396
    6MOL   C308 4118   2.578   5.742   4.229 -0.1526  0.3805  0.1832
    6MOL   C309 4119   2.719   5.774   4.169  0.1517  0.2069 -0.2308
    6MOL   C310 4120   2.477   5.700   4.118 -0.1127  0.0126  0.2331
    6MOL   C311 4121   2.339   5.683   4.185  0.1952  0.1698 -0.1681
    6MOL   C312 4122   2.341   5.572   4.292  0.2716  0.1091  0.3140
    6MOL   C313 4123   2.209   5.563   4.370 -0.1286 -0.1420 -0.1670
    6MOL   O314 4124   2.110   5.517   4.285 -0.1388 -0.4042  0.4804
    6MOL   C315 4125   1.990   5.509   4.335  0.7851  0.9036  0.6929
    6MOL   O316 4126   1.953   5.547   4.446 -0.0002  0.1011  0.0414
    6MOL   C317 4127   1.897   5.444   4.246  0.1774  0.6758  0.2081
    6MOL   C318 4128   1.937   5.331   4.173 -0.3382 -0.0739 -0.2000
    6MOL   C319 4129   1.845   5.241   4.112  0.0881 -0.7352  0.3840
    6MOL   C320 4130   1.705   5.269   4.132 -0.8533 -0.4650 -0.7362
    6MOL   C321 4131   1.612   5.174   4.064 -0.0551 -0.1621 -0.5054
    6MOL   O322 4132   1.645   5.076   4.009  0.2521 -0.7750 -0.5328
    6MOL   O323 4133   1.483   5.220   4.072  0.3066  0.0266 -0.1010
    6MOL   C324 4134   1.668   5.381   4.206  0.3374  0.0463 -0.8141
    6MOL   C325 4135   1.763   5.469   4.267  0.0325  0.3820  0.3452
    6MOL   H326 4136   2.416   5.681   4.463  1.1321 -0.6953  2.6670
    6MOL   H327 4137   2.458   5.522   4.470 -1.7120  1.5342  1.4991
    6MOL   H328 4138   2.629   5.550   4.276 -0.2452 -0.8887  2.0232
    6MOL   H329 4139   2.645   5.666   4.422  0.4117  1.3678  0.0458
    6MOL   H330 4140   2.548   5.841   4.262 -1.2210  0.1400 -0.0511
    6MOL   H331 4141   2.708   5.825   4.073 -2.7996  0.2906  0.1086
    6MOL   H332 4142   2.773   5.680   4.165  1.8246  1.1346 -0.0596
    6MOL   H333 4143   2.517   5.615   4.063  0.9017  0.7665 -0.1932
    6MOL   H334 4144   2.465   5.792   4.060 -0.2955 -0.9515 -1.2915
    6MOL   H335 4145   2.312   5.780   4.227 -0.0343  0.2449 -0.4892
    6MOL   H336 4146   2.266   5.658   4.108 -0.3622 -3.0621  1.3170
    6MOL   H337 4147   2.345   5.476   4.242 -2.4420  0.1217 -0.0236
    6MOL   H338 4148   2.189   5.666   4.400  0.3117 -0.3133  0.7340
    6MOL   H339 4149   2.216   5.494   4.454 -1.6032 -0.2918 -0.1629
    6MOL   H340 4150   2.042   5.310   4.160  1.0452  3.7270  3.6126
    6MOL   H341 4151   1.882   5.155   4.058  1.6288  0.5356 -0.6546
    6MOL   H342 4152   1.562   5.385   4.227  0.8978  0.4920  2.1321
    6MOL   H343 4153   1.742   5.553   4.330  0.9128 -0.8622  2.3604
    6MOL   C344 4154   1.099   5.229   4.261  0.5271 -0.2613 -0.6184
    6MOL   C345 4155   1.239   5.194   4.220  0.1775 -0.3780 -0.2489
    6MOL   C346 4156   1.248   5.192   4.066  0.8273 -0.0315 -0.4078
    6MOL   C347 4157   1.380   5.141   4.021 -0.4557 -0.0841 -0.0696
    6MOL   C348 4158   1.136   5.100   4.005  0.0742  0.1936 -0.9854
    6MOL   C349 4159   0.995   5.149   4.051 -0.0734  1.0254 -0.8832
    6MOL   C350 4160   0.989   5.138   4.206 -0.5810 -0.4519 -0.0667
    6MOL   C351 4161   0.857   5.187   4.271  0.3484  0.3369  0.5593
    6MOL   O352 4162   0.748   5.118   4.206 -0.1376 -0.6609  0.1132
    6MOL   C353 4163   0.715   4.995   4.249  0.2962  0.6244  0.3863
    6MOL   O354 4164   0.751   4.949   4.357  0.3778 -0.6726 -0.5712
    6MOL   C355 4165   0.623   4.919   4.156  0.2854 -0.5521 -0.3243
    6MOL   C356 4166   0.558   4.802   4.199  0.4162 -0.0461  0.3523
    6MOL   C357 4167   0.462   4.740   4.116 -0.3075 -0.3561 -0.2513
    6MOL   C358 4168   0.454   4.790   3.983  0.5240 -0.1215 -0.8753
    6MOL   C359 4169   0.352   4.742   3.889  0.0202 -0.0819  0.0119
    6MOL   O360 4170   0.317   4.800   3.787 -0.6848  0.6693 -0.2361
    6MOL   O361 4171   0.306   4.624   3.926  1.1513 -0.1434 -0.2103
    6MOL   C362 4172   0.535   4.899   3.937  0.1984 -0.0667  0.1291
    6MOL   C363 4173   0.613   4.965   4.023  0.4722  0.5402  0.3190
    6MOL   H364 4174   1.076   5.325   4.216 -0.1324  0.8617  2.0237
    6MOL   H365 4175   1.084   5.232   4.369  0.9661 -0.8180 -0.5386
    6MOL   H366 4176   1.256   5.093   4.256  0.8917 -0.5581 -1.0656
    6MOL   H367 4177   1.309   5.273   4.248  0.6245 -0.9765  0.3264
    6MOL   H368 4178   1.230   5.291   4.023 -1.9754 -0.0225  0.7191
    6MOL   H369 4179   1.397   5.151   3.914  0.1194  0.4255  0.0663
    6MOL   H370 4180   1.379   5.034   4.043  1.9478  0.0141  0.6762
    6MOL   H371 4181   1.158   5.003   4.050  1.2564  1.2503  0.7935
    6MOL   H372 4182   1.144   5.070   3.901 -1.0436 -0.4130 -0.9031
    6MOL   H373 4183   0.970   5.253   4.028 -0.1187  0.8172 -1.7815
    6MOL   H374 4184   0.925   5.077   4.010 -0.3749  0.5867  0.3633
    6MOL   H375 4185   1.012   5.039   4.244 -0.1917 -0.6705 -0.8576
    6MOL   H376 4186   0.853   5.295   4.256  1.2428  0.3583  0.4275
    6MOL   H377 4187   0.846   5.177   4.379 -1.6652  0.8908  0.4331
    6MOL   H378 4188   0.566   4.767   4.301  0.9110  0.5763  0.5310
    6MOL   H379 4189   0.395   4.667   4.160 -1.5371  0.1998 -1.1767
    6MOL   H380 4190   0.532   4.936   3.836 -2.3805 -1.3918 -0.3339
    6MOL   H381 4191   0.672   5.048   3.986 -2.1547  1.9042 -0.9242
    6MOL   C382 4192   7.895   4.614   4.001 -0.1639  0.3806  0.9647
    6MOL   C383 4193   0.012   4.569   3.994 -0.1141  0.0901 -1.1069
    6MOL   C384 4194   0.074   4.589   3.854  0.4888 -0.7427 -0.5022
    6MOL   C385 4195   0.220   4.549   3.837  0.3645 -0.1874 -0.0227
    6MOL   C386 4196   8.020   4.518   3.752  0.6943  0.2682 -0.2295
    6MOL   C387 4197   7.866   4.541   3.759  0.2128  0.1974  0.5998
    6MOL   C388 4198   7.801   4.542   3.896 -0.3336 -0.4541  0.0971
    6MOL   C389 4199   7.660   4.612   3.903 -0.6995 -0.0620  0.1330
    6MOL   O390 4200   7.560   4.532   3.855  0.6811  0.0385  0.6431
    6MOL   C391 4201   7.505   4.561   3.740  0.0636  0.1389 -0.5948
    6MOL   O392 4202   7.532   4.656   3.669  0.1959  0.7603  0.0117
    6MOL   C393 4203   7.428   4.450   3.680  0.2318  0.6177 -0.3419
    6MOL   C394 4204   7.438   4.323   3.736 -1.0795  0.2963  0.1533
    6MOL   C395 4205   7.369   4.219   3.686 -0.1161 -0.0422 -0.1113
    6MOL   C396 4206   7.287   4.228   3.567  0.1406 -0.7867  0.9512
    6MOL   C397 4207   7.217   4.110   3.519  0.1752  0.5628  0.0624
    6MOL   O398 4208   7.217   4.006   3.585 -0.0322 -0.0882 -0.0648
    6MOL   O399 4209   7.160   4.121   3.401 -0.3469  0.2836 -0.3959
    6MOL   C400 4210   7.265   4.364   3.519  0.3970 -0.3940 -0.9395
    6MOL   C401 4211   7.344   4.470   3.575 -0.1079 -0.3298 -0.3597
    6MOL   H402 4212   7.890   4.718   3.968  0.4293  0.5933  1.5332
    6MOL   H403 4213   7.852   4.598   4.100  1.2342 -0.6788  1.4114
    6MOL   H404 4214   0.006   4.461   4.009  0.9934  0.1120 -0.3899
    6MOL   H405 4215   0.081   4.598   4.073 -1.6347  3.2680 -0.8705
    6MOL   H406 4216   0.072   4.693   3.822 -0.7169  0.0617  2.1159
    6MOL   H407 4217   0.256   4.562   3.735  0.0043 -2.1817 -0.4308
    6MOL   H408 4218   0.230   4.444   3.865 -0.2088  0.1888  1.6200
    6MOL   H409 4219   0.016   4.413   3.765  1.8778  0.7116  0.9625
    6MOL   H410 4220   0.017   4.536   3.649  0.7653  2.0441  0.0798
    6MOL   H411 4221   7.841   4.638   3.715  1.2537  1.0495  1.8478
    6MOL   H412 4222   7.831   4.470   3.685  1.6237 -1.0559  1.1245
    6MOL   H413 4223   7.782   4.439   3.928  0.7203 -0.1518  1.7901
    6MOL   H414 4224   7.667   4.710   3.856 -0.2252 -0.6014 -0.9427
    6MOL   H415 4225   7.633   4.639   4.005  1.1222 -0.3466  0.7001
    6MOL   H416 4226   7.492   4.304   3.828  1.8391  2.5519 -1.0297
    6MOL   H417 4227   7.389   4.122   3.730  2.5940  1.5197  2.2663
    6MOL   H418 4228   7.207   4.387   3.430 -2.1295  2.3543  1.2794
    6MOL   H419 4229   7.347   4.566   3.527 -0.4536 -0.9064 -1.5528
    6MOL   C420 4230   6.776   3.821   3.480 -0.4028 -0.5199 -0.3601
    6MOL   C421 4231   6.883   3.868   3.384  0.2094  1.0193 -0.6441
    6MOL   C422 4232   6.961   3.982   3.439 -0.1900 -0.5735 -0.2428
    6MOL   C423 4233   7.085   4.009   3.351 -0.5346  0.1034 -0.4740
    6MOL   C424 4234   6.864   4.103   3.455  0.0388 -0.1091 -0.4696
    6MOL   C425 4235   6.747   4.067   3.546 -0.3454 -0.1722  0.8563
    6MOL   C426 4236   6.678   3.936   3.511  0.9750 -0.6442 -0.2384
    6MOL   C427 4237   6.584   3.892   3.622  0.1635  0.5427 -0.4122
    6MOL   O428 4238   6.491   3.797   3.569  0.0991 -0.7694  0.4495
    6MOL   C429 4239   6.371   3.787   3.629 -0.2357 -0.6570 -0.3232
    6MOL   O430 4240   6.338   3.841   3.731  0.1990 -0.3560  0.1689
    6MOL   C431 4241   6.278   3.701   3.549 -0.2253  0.8075 -0.3124
    6MOL   C432 4242   6.141   3.704   3.576 -0.2746  0.1257 -0.1399
    6MOL   C433 4243   6.058   3.612   3.510  0.0058 -0.6545  0.4037
    6MOL   C434 4244   6.107   3.536   3.402 -0.2319 -0.5187  0.4687
    6MOL   C435 4245   6.021   3.446   3.329  0.0947  0.1201  0.2657
    6MOL   O436 4246   6.061   3.361   3.247  0.0128 -0.5366 -0.1915
    6MOL   O437 4247   5.885   3.444   3.372  0.6645  0.1290  0.5884
    6MOL   C438 4248   6.245   3.535   3.366  0.3229  0.3208 -0.0569
    6MOL   C439 4249   6.329   3.616   3.443 -1.2464 -0.4121 -0.8991
    6MOL   H440 4250   6.824   3.788   3.572 -1.3328  0.1539  0.3756
    6MOL   H441 4251   6.714   3.740   3.443 -1.7457 -0.0255  0.7283
    6MOL   H442 4252   6.843   3.885   3.284 -0.1713 -1.2966 -0.8982
    6MOL   H443 4253   6.940   3.779   3.358 -0.0443  0.3806  0.9075
    6MOL   H444 4254   6.990   3.934   3.532  0.6853  1.5002  0.5732
    6MOL   H445 4255   7.051   4.032   3.250  1.5357  1.1375 -0.9588
    6MOL   H446 4256   7.160   3.930   3.351  0.1127  0.6993  0.9760
    6MOL   H447 4257   6.818   4.124   3.359 -1.3272  2.4052  0.6610
    6MOL   H448 4258   6.928   4.187   3.484  0.3615 -0.6181  0.3062
    6MOL   H449 4259   6.771   4.073   3.652  0.4910 -0.7431  0.6966
    6MOL   H450 4260   6.679   4.152   3.542  0.0030  0.0655 -0.0558
    6MOL   H451 4261   6.619   3.949   3.421  0.3443 -2.0050 -0.0282
    6MOL   H452 4262   6.541   3.984   3.663 -1.5702 -0.9469  1.2319
    6MOL   H453 4263   6.642   3.840   3.699  1.6846 -1.1071 -2.6164
    6MOL   H454 4264   6.111   3.769   3.657 -2.4415 -1.4189  0.3358
    6MOL   H455 4265   5.953   3.600   3.529  0.2206 -0.0620  1.9909
    6MOL   H456 4266   6.277   3.471   3.286 -1.3285  0.0065 -0.4851
    6MOL   H457 4267   6.436   3.617   3.424 -1.1013  0.5245 -0.0880
    6MOL   C458 4268   5.496   3.630   3.292  0.5178 -0.3000 -0.4556
    6MOL   C459 4269   5.625   3.561   3.252  0.1882 -0.3379 -0.2415
    6MOL   C460 4270   5.651   3.427   3.320  0.7527 -0.3841  0.2728
    6MOL   C461 4271   5.792   3.378   3.292  0.1360  0.4443  0.0921
    6MOL   C462 4272   5.616   3.423   3.470 -0.1969 -0.4971 -0.9130
    6MOL   C463 4273   5.478   3.477   3.508  0.3772 -0.2136 -0.1109
    6MOL   C464 4274   5.461   3.619   3.445  0.9042  0.0516 -0.2917
    6MOL   C465 4275   5.323   3.671   3.478  0.2499 -0.2158  0.9981
    6MOL   O466 4276   5.216   3.620   3.390  0.2323  0.3138  0.0048
    6MOL   C467 4277   5.103   3.577   3.433 -0.1716 -0.0205 -0.2507
    6MOL   O468 4278   5.073   3.580   3.554 -0.6934 -0.2055 -0.0888
    6MOL   C469 4279   5.027   3.524   3.312  0.2415 -0.1596  0.5905
    6MOL   C470 4280   5.068   3.553   3.182 -0.2786  0.5041 -0.2893
    6MOL   C471 4281   4.980   3.514   3.070 -0.2057  0.3083 -0.7192
    6MOL   C472 4282   4.861   3.448   3.090 -0.2894  0.1777  0.1438
    6MOL   C473 4283   4.771   3.414   2.975  0.8464 -0.6821  0.8278
    6MOL   O474 4284   4.654   3.398   2.994 -0.0045  0.8783 -0.4393
    6MOL   O475 4285   4.835   3.403   2.854  0.1294 -0.1761  0.0581
    6MOL   C476 4286   4.816   3.429   3.222 -0.3924 -0.4915 -0.5940
    6MOL   C477 4287   4.900   3.467   3.330  0.0179  1.2361  0.0722
    6MOL   H478 4288   5.414   3.591   3.231  2.2537 -1.1172 -2.3459
    6MOL   H479 4289   5.498   3.735   3.263  1.7039 -0.3390 -0.5536
    6MOL   H480 4290   5.705   3.633   3.274  0.8330 -0.5529 -1.8100
    6MOL   H481 4291   5.620   3.552   3.144 -1.6480 -1.1549 -0.1003
    6MOL   H482 4292   5.576   3.362   3.274  0.5749 -1.3851  1.9450
    6MOL   H483 4293   5.804   3.376   3.184 -1.2171 -0.7143 -0.0516
    6MOL   H484 4294   5.801   3.274   3.323 -2.3093  0.5985  1.4667
    6MOL   H485 4295   5.697   3.476   3.519  0.2528  0.0884 -2.2778
    6MOL   H486 4296   5.610   3.321   3.509 -0.5821 -0.0288  0.3053
    6MOL   H487 4297   5.395   3.419   3.466  2.0923 -0.7476 -2.9207
    6MOL   H488 4298   5.457   3.471   3.615  1.2657 -0.8368  0.0385
    6MOL   H489 4299   5.536   3.675   3.500  1.5926 -1.9236  0.8602
    6MOL   H490 4300   5.326   3.778   3.459  0.6294 -0.3300  0.3781
    6MOL   H491 4301   5.298   3.658   3.583 -4.4789  1.9933  0.2964
    6MOL   H492 4302   5.156   3.611   3.159 -0.9409  1.5908 -0.1131
    6MOL   H493 4303   5.019   3.537   2.971 -2.2927  1.2451 -1.3599
    6MOL   H494 4304   4.719   3.383   3.236  0.3956 -1.6624  1.2406
    6MOL   H495 4305   4.869   3.437   3.429 -1.2305 -2.0028 -1.2141
    6MOL   C496 4306   4.778   2.999   2.689  0.1940  0.0844 -1.0561
    6MOL   C497 4307   4.822   3.134   2.736 -0.3121 -0.1051 -0.2709
    6MOL   C498 4308   4.714   3.240   2.705  0.2052 -0.0830  0.1336
    6MOL   C499 4309   4.758   3.387   2.739  0.0243  0.8128 -0.1220
    6MOL   C500 4310   4.673   3.229   2.553  0.5610 -0.0652  0.2571
    6MOL   C501 4311   4.640   3.086   2.502  0.2386 -0.6607 -0.5193
    6MOL   C502 4312   4.750   2.989   2.542  0.2734 -1.0140 -0.3230
    6MOL   C503 4313   4.714   2.843   2.483 -0.5093  0.4225 -0.0827
    6MOL   O504 4314   4.617   2.787   2.571 -0.1038 -0.2922  0.4547
    6MOL   C505 4315   4.517   2.710   2.517  0.0671  0.4354 -0.6774
    6MOL   O506 4316   4.517   2.661   2.403 -0.7098  0.4619 -0.3302
    6MOL   C507 4317   4.410   2.696   2.621  0.0989  0.6365 -0.3743
    6MOL   C508 4318   4.277   2.676   2.586 -0.5559  0.5742 -0.3263
    6MOL   C509 4319   4.177   2.673   2.687 -0.2962  0.4054  0.4504
    6MOL   C510 4320   4.210   2.669   2.828  0.1174  0.1230  0.4020
    6MOL   C511 4321   4.109   2.663   2.935  0.5469 -0.7110 -0.8417
    6MOL   O512 4322   3.986   2.688   2.921 -0.1140  0.0627  0.1900
    6MOL   O513 4323   4.171   2.625   3.045 -0.2595  0.2214 -0.0446
    6MOL   C514 4324   4.349   2.680   2.857 -0.1574  0.3373 -0.4255
    6MOL   C515 4325   4.443   2.702   2.753 -0.6717  0.8780  0.3583
    6MOL   H516 4326   4.691   2.973   2.749  1.0153 -0.6053 -0.1634
    6MOL   H517 4327   4.850   2.925   2.723 -0.2678 -0.6356 -1.6273
    6MOL   H518 4328   4.914   3.157   2.683  0.2136 -0.7854  0.3456
    6MOL   H519 4329   4.853   3.138   2.841 -0.9551  0.4804 -0.0942
    6MOL   H520 4330   4.628   3.210   2.765 -0.7889 -2.0777 -2.2116
    6MOL   H521 4331   4.681   3.463   2.723 -0.0808  0.6748 -0.2839
    6MOL   H522 4332   4.823   3.416   2.656 -1.9976  1.4547 -1.5323
    6MOL   H523 4333   4.754   3.257   2.486  0.6624 -1.5935 -0.2898
    6MOL   H524 4334   4.587   3.291   2.529  0.0591 -0.2259  1.5585
    6MOL   H525 4335   4.551   3.054   2.556  1.0677  0.8985  1.8510
    6MOL   H526 4336   4.637   3.072   2.393  3.2487  4.0117 -1.3115
    6MOL   H527 4337   4.842   3.010   2.487  0.2477  0.0123  0.0148
    6MOL   H528 4338   4.799   2.777   2.499 -0.4142 -0.1331 -2.5968
    6MOL   H529 4339   4.686   2.840   2.378 -1.4507 -0.2861  0.1845
    6MOL   H530 4340   4.251   2.682   2.481  2.1937  1.3918 -0.9881
    6MOL   H531 4341   4.072   2.681   2.664 -0.3164  0.3494  0.5202
    6MOL   H532 4342   4.387   2.690   2.958 -1.6454 -0.1977  0.2107
    6MOL   H533 4343   4.546   2.706   2.786  0.2344  1.1858 -2.3571
    6MOL   C534 4344   4.353   2.761   3.425  0.1532 -0.2009  0.1763
    6MOL   C535 4345   4.303   2.666   3.312 -0.2496 -0.5372 -0.0453
    6MOL   C536 4346   4.157   2.696   3.277 -0.0426 -0.0800 -0.9245
    6MOL   C537 4347   4.095   2.605   3.166 -0.0494 -0.2371  0.1306
    6MOL   C538 4348   4.065   2.700   3.406  0.0097  0.6741 -0.4970
    6MOL   C539 4349   4.119   2.799   3.514  0.1432  0.1890  0.0686
    6MOL   C540 4350   4.266   2.758   3.552 -0.0680 -0.3422  0.2113
    6MOL   C541 4351   4.321   2.837   3.674 -0.0301  0.0336  0.2338
    6MOL   O542 4352   4.447   2.780   3.711 -0.4282  0.0070 -0.1982
    6MOL   C543 4353   4.457   2.686   3.806 -0.2016 -0.0231 -0.1073
    6MOL   O544 4354   4.374   2.672   3.893  0.4940  0.1465  0.1570
    6MOL   C545 4355   4.583   2.606   3.796 -0.4375 -0.1291  0.2804
    6MOL   C546 4356   4.623   2.531   3.910  0.5517 -0.2403 -0.0414
    6MOL   C547 4357   4.736   2.451   3.912  0.7828  0.1541  0.2693
    6MOL   C548 4358   4.825   2.458   3.804 -0.0982  1.0614  0.5827
    6MOL   C549 4359   4.948   2.372   3.809 -0.5473 -0.3207 -0.1869
    6MOL   O550 4360   4.963   2.285   3.893 -0.2744 -0.0719 -0.3666
    6MOL   O551 4361   5.031   2.394   3.701 -0.0982  0.3298 -0.1831
    6MOL   C552 4362   4.797   2.544   3.696 -0.0448 -0.2825  0.7974
    6MOL   C553 4363   4.673   2.618   3.689 -0.6931  0.1031 -0.4698
    6MOL   H554 4364   4.360   2.861   3.383  0.8471 -1.1218 -1.9672
    6MOL   H555 4365   4.460   2.746   3.442  0.1212 -1.0801 -0.3931
    6MOL   H556 4366   4.322   2.565   3.349  0.7877 -0.0381  0.7818
    6MOL   H557 4367   4.365   2.688   3.226  2.1208  3.5109  2.5710
    6MOL   H558 4368   4.158   2.801   3.248  1.9451  0.2027  0.0907
    6MOL   H559 4369   3.986   2.602   3.156 -0.2977 -0.4853  2.5283
    6MOL   H560 4370   4.108   2.499   3.188 -0.1562  0.2596  2.8407
    6MOL   H561 4371   4.067   2.598   3.443 -0.1891 -0.8367 -4.3839
    6MOL   H562 4372   3.962   2.726   3.384 -0.9201 -1.9195  0.6662
    6MOL   H563 4373   4.124   2.904   3.484  1.7864  0.5774  1.5593
    6MOL   H564 4374   4.050   2.802   3.598 -1.5679 -1.0826 -1.2795
    6MOL   H565 4375   4.259   2.654   3.584 -0.4173 -0.7017 -0.9905
    6MOL   H566 4376   4.255   2.828   3.761  2.2999  0.5849  2.1428
    6MOL   H567 4377   4.351   2.940   3.651  0.8067  0.0791  1.4399
    6MOL   H568 4378   4.563   2.528   4.000 -0.2766 -1.7712 -0.6263
    6MOL   H569 4379   4.765   2.395   4.000 -3.1789 -1.8959  0.3663
    6MOL   H570 4380   4.878   2.566   3.628 -0.7861 -1.9915 -0.6837
    6MOL   H571 4381   4.662   2.691   3.610  0.3728  1.7406  0.8660
    6MOL   C572 4382   5.158   2.378   3.283  0.5704 -0.1995 -0.3774
    6MOL   C573 4383   5.151   2.407   3.432 -0.0145  0.2111  0.0507
    6MOL   C574 4384   5.121   2.287   3.513  0.3601 -0.5760  0.8413
    6MOL   C575 4385   5.134   2.307   3.661 -0.5603 -0.2509  0.2847
    6MOL   C576 4386   4.985   2.232   3.466 -0.2769 -0.0610 -0.3513
    6MOL   C577 4387   4.971   2.206   3.321 -0.1613 -0.3388 -0.0109
    6MOL   C578 4388   5.022   2.320   3.230  0.9905  0.6484  0.3023
    6MOL   C579 4389   5.040   2.273   3.091 -0.0019 -0.4011  0.1654
    6MOL   O580 4390   5.073   2.386   3.007 -0.0747 -0.3517 -0.5439
    6MOL   C581 4391   5.012   2.400   2.893 -0.2007  0.3516  0.1650
    6MOL   O582 4392   4.933   2.319   2.844 -0.5087  0.3183 -0.6383
    6MOL   C583 4393   5.060   2.514   2.812  0.6978  0.2327 -0.4197
    6MOL   C584 4394   4.997   2.544   2.687  0.2134  0.7512  0.1899
    6MOL   C585 4395   5.059   2.639   2.599  0.5402  0.6280 -0.2032
    6MOL   C586 4396   5.174   2.705   2.640  0.0765  0.6469 -0.7708
    6MOL   C587 4397   5.247   2.800   2.545 -0.1861 -0.2700 -0.4437
    6MOL   O588 4398   5.320   2.882   2.590 -0.5434  0.0635  0.1145
    6MOL   O589 4399   5.226   2.772   2.420  0.1106 -0.2191 -0.3063
    6MOL   C590 4400   5.230   2.688   2.772  0.9221  0.6132 -0.1020
    6MOL   C591 4401   5.179   2.581   2.850 -0.2188 -0.2540  0.0526
    6MOL   H592 4402   5.239   2.309   3.261  1.2707  0.2899  0.6365
    6MOL   H593 4403   5.197   2.466   3.232  0.2611 -0.4303 -1.0249
    6MOL   H594 4404   5.074   2.484   3.444 -1.4456 -1.2224  0.2055
    6MOL   H595 4405   5.241   2.453   3.473  0.8082 -2.2002  0.9927
    6MOL   H596 4406   5.197   2.209   3.509  0.6924 -0.2281  0.3425
    6MOL   H597 4407   5.234   2.343   3.684  0.6852 -2.3347 -1.6802
    6MOL   H598 4408   5.117   2.210   3.708  1.5353 -1.3523 -1.1804
    6MOL   H599 4409   4.920   2.316   3.490  0.6664  0.3070  0.9751
    6MOL   H600 4410   4.952   2.143   3.520  0.3236  0.6156  1.1804
    6MOL   H601 4411   5.021   2.112   3.294 -2.4789 -1.4432 -0.6034
    6MOL   H602 4412   4.865   2.190   3.301 -0.7588  1.5694  1.5443
    6MOL   H603 4413   4.938   2.389   3.220  2.5365  2.6809  0.9209
    6MOL   H604 4414   4.948   2.219   3.067 -2.1543  2.4344  1.6492
    6MOL   H605 4415   5.107   2.187   3.096 -0.9293 -1.1724 -0.3567
    6MOL   H606 4416   4.907   2.496   2.653  2.0117 -2.0851 -0.7934
    6MOL   H607 4417   5.033   2.644   2.494 -0.4675 -1.0886 -0.0597
    6MOL   H608 4418   5.321   2.737   2.803  0.3510  1.1737  0.7063
    6MOL   H609 4419   5.225   2.550   2.943 -1.0992 -1.9298 -0.0543
    6MOL   C610 4420   4.944   2.999   2.193  0.0283 -0.8346 -0.6576
    6MOL   C611 4421   5.035   2.876   2.231 -0.6725 -0.0476  0.4998
    6MOL   C612 4422   5.186   2.930   2.248  0.6299  0.3515 -0.0775
    6MOL   C613 4423   5.288   2.840   2.318  0.1182 -0.2471 -0.3310
    6MOL   C614 4424   5.233   2.986   2.108  0.7042  0.1721  0.5328
    6MOL   C615 4425   5.144   3.106   2.071  1.0489  0.7522 -0.0906
    6MOL   C616 4426   4.996   3.054   2.053  0.1584  0.4006 -0.4422
    6MOL   C617 4427   4.908   3.172   2.004 -0.9256  0.3050 -0.4140
    6MOL   O618 4428   4.917   3.276   2.100 -0.0647 -0.2450 -0.1171
    6MOL   C619 4429   4.866   3.397   2.072  0.1507 -0.3867  0.6320
    6MOL   O620 4430   4.810   3.436   1.973  0.2143 -0.2354  0.0001
    6MOL   C621 4431   4.896   3.491   2.184  0.0018 -0.2247  0.0212
    6MOL   C622 4432   4.959   3.444   2.307 -0.5214 -0.0091  0.1055
    6MOL   C623 4433   5.005   3.541   2.402  0.0869  0.0061 -0.8251
    6MOL   C624 4434   4.973   3.675   2.392 -0.7474  0.3383 -0.1395
    6MOL   C625 4435   5.026   3.776   2.490  0.8205  0.1493  0.3428
    6MOL   O626 4436   5.001   3.900   2.485 -0.3913 -0.0163  0.7472
    6MOL   O627 4437   5.115   3.725   2.581  0.3037 -0.5007  0.8360
    6MOL   C628 4438   4.908   3.717   2.272  0.2032 -0.1274 -0.1148
    6MOL   C629 4439   4.870   3.625   2.170  0.4297 -0.5526  0.4307
    6MOL   H630 4440   4.954   3.083   2.263  1.0414  0.1637 -1.9693
    6MOL   H631 4441   4.844   2.959   2.177 -0.8796  1.0157  0.1479
    6MOL   H632 4442   5.031   2.795   2.158  0.2947  2.5734 -2.5822
    6MOL   H633 4443   4.996   2.828   2.321  2.0565 -2.0344  0.6887
    6MOL   H634 4444   5.179   3.012   2.319 -1.3711  2.9758 -3.1420
    6MOL   H635 4445   5.370   2.904   2.351 -1.1613  0.8119  0.8328
    6MOL   H636 4446   5.333   2.778   2.240  0.4524  1.8168 -1.8401
    6MOL   H637 4447   5.233   2.907   2.032  0.2059  1.2479 -0.5924
    6MOL   H638 4448   5.335   3.025   2.114  1.0826 -0.9548  1.7784
    6MOL   H639 4449   5.140   3.184   2.146  0.7416 -0.0001  0.6750
    6MOL   H640 4450   5.180   3.167   1.988  0.4578  0.9684 -0.1898
    6MOL   H641 4451   4.972   2.980   1.976 -1.1816 -0.3933  0.7054
    6MOL   H642 4452   4.804   3.144   1.993 -0.9127  0.0582  0.0610
    6MOL   H643 4453   4.956   3.210   1.914  0.4128 -1.6227 -0.5496
    6MOL   H644 4454   4.993   3.342   2.317  0.7597  0.4593  0.6867
    6MOL   H645 4455   5.068   3.507   2.483  2.3920  1.2661 -2.0505
    6MOL   H646 4456   4.896   3.824   2.264  2.7392  0.2487  0.6844
    6MOL   H647 4457   4.825   3.663   2.079  0.7829 -2.1207 -0.4270
    6MOL   C648 4458   5.526   3.633   2.515  0.2115  0.0151 -0.1685
    6MOL   C649 4459   5.377   3.679   2.509  0.0372 -0.0518  0.3560
    6MOL   C650 4460   5.351   3.740   2.654  0.2685  0.0966  0.0180
    6MOL   C651 4461   5.212   3.807   2.651  0.4844 -0.0863 -0.4772
    6MOL   C652 4462   5.370   3.622   2.756  0.7088  0.2913 -0.5071
    6MOL   C653 4463   5.512   3.565   2.745  0.9413  0.1149 -0.7662
    6MOL   C654 4464   5.540   3.509   2.601  0.1873  0.1408 -0.0215
    6MOL   C655 4465   5.685   3.457   2.598 -0.0677  1.1825 -0.1822
    6MOL   O656 4466   5.704   3.355   2.689  0.5704 -0.1747 -0.0952
    6MOL   C657 4467   5.824   3.343   2.749 -0.0956 -0.2778 -0.3015
    6MOL   O658 4468   5.922   3.406   2.708  0.3237 -0.0072  0.7898
    6MOL   C659 4469   5.819   3.244   2.862 -0.3877 -0.1054  0.3492
    6MOL   C660 4470   5.721   3.142   2.862  0.2749  0.2570  0.4292
    6MOL   C661 4471   5.722   3.045   2.959 -0.3127  0.0468  0.6022
    6MOL   C662 4472   5.813   3.052   3.067 -0.1124  0.1064 -1.0145
    6MOL   C663 4473   5.816   2.945   3.171 -0.1129 -0.3644  0.1621
    6MOL   O664 4474   5.784   2.825   3.150 -0.0593 -0.0569 -0.2401
    6MOL   O665 4475   5.860   2.990   3.291  0.2962  0.1117 -0.4181
    6MOL   C666 4476   5.905   3.154   3.073  0.0813 -0.0189 -0.2981
    6MOL   C667 4477   5.912   3.250   2.967  0.1708 -0.4921 -0.2718
    6MOL   H668 4478   5.589   3.719   2.534  0.7528 -0.1729 -1.0879
    6MOL   H669 4479   5.560   3.603   2.416  2.1902 -0.6145  0.6931
    6MOL   H670 4480   5.303   3.603   2.483 -0.7316  0.1142  1.9735
    6MOL   H671 4481   5.377   3.757   2.433  3.8007 -0.2172  0.1098
    6MOL   H672 4482   5.428   3.815   2.669 -0.0568  0.5851 -0.6849
    6MOL   H673 4483   5.216   3.900   2.595 -1.4271 -0.4028 -1.1856
    6MOL   H674 4484   5.168   3.841   2.745 -1.0589 -2.1176 -0.4212
    6MOL   H675 4485   5.297   3.547   2.726  1.8509 -1.7368  1.6861
    6MOL   H676 4486   5.343   3.668   2.852  3.6630  0.0171  0.4889
    6MOL   H677 4487   5.580   3.642   2.781  1.1223 -0.5267  0.3068
    6MOL   H678 4488   5.522   3.476   2.809 -0.1645  0.7267  0.2795
    6MOL   H679 4489   5.466   3.434   2.574 -0.5275  0.4629  1.0322
    6MOL   H680 4490   5.753   3.542   2.605 -0.6805  1.7537 -0.9587
    6MOL   H681 4491   5.711   3.402   2.508  1.2559  0.9342  0.3507
    6MOL   H682 4492   5.644   3.138   2.787  1.3062  0.0838 -0.6409
    6MOL   H683 4493   5.636   2.978   2.961 -0.5391  0.2384 -1.2360
    6MOL   H684 4494   5.970   3.163   3.158 -1.1717 -1.4005  0.8155
    6MOL   H685 4495   5.976   3.337   2.965  0.3661 -0.6243  0.1321
    6MOL   C686 4496   5.786   3.173   3.680 -0.0262 -1.3519 -0.5137
    6MOL   C687 4497   5.763   3.089   3.551 -0.0326 -0.2586  0.1075
    6MOL   C688 4498   5.888   2.997   3.530  0.0515  0.3824 -0.0932
    6MOL   C689 4499   5.881   2.911   3.404 -0.0326 -0.1545  0.3135
    6MOL   C690 4500   6.019   3.076   3.536  0.0604  0.7415  0.5850
    6MOL   C691 4501   6.043   3.153   3.660 -0.0055  0.3935  0.6650
    6MOL   C692 4502   5.927   3.248   3.687 -0.2287  0.1809  0.5737
    6MOL   C693 4503   5.960   3.345   3.807  0.0822  0.6520 -0.5933
    6MOL   O694 4504   6.083   3.390   3.784  0.3398 -0.1491 -0.1035
    6MOL   C695 4505   6.142   3.471   3.872 -0.4787  0.2246  0.0587
    6MOL   O696 4506   6.082   3.516   3.973  0.1923  0.5294  0.0751
    6MOL   C697 4507   6.288   3.498   3.857  0.4487  0.3977  0.2975
    6MOL   C698 4508   6.362   3.454   3.747 -0.1183  0.2084  0.1600
    6MOL   C699 4509   6.502   3.473   3.745 -0.2239  1.1552  0.1376
    6MOL   C700 4510   6.571   3.537   3.846  0.3061 -0.1074 -0.0290
    6MOL   C701 4511   6.724   3.554   3.847 -0.2715 -0.7069  0.5287
    6MOL   O702 4512   6.799   3.525   3.753  0.5475  0.2697 -0.2108
    6MOL   O703 4513   6.765   3.628   3.953 -0.1499  0.7653 -0.2951
    6MOL   C704 4514   6.494   3.594   3.954 -0.3470 -0.3577 -0.0567
    6MOL   C705 4515   6.360   3.567   3.961  0.2856 -0.6728  0.0742
    6MOL   H706 4516   5.785   3.109   3.768 -0.3723 -0.3412  0.2330
    6MOL   H707 4517   5.719   3.258   3.697 -0.2006 -1.7499  0.8913
    6MOL   H708 4518   5.736   3.147   3.463  1.1437  0.5959  0.2835
    6MOL   H709 4519   5.673   3.030   3.566  0.7918 -1.2105  1.3961
    6MOL   H710 4520   5.915   2.927   3.610 -2.4469 -0.7673 -0.2146
    6MOL   H711 4521   5.795   2.844   3.412 -0.4697  0.4957  1.1573
    6MOL   H712 4522   5.967   2.845   3.399 -0.0845 -0.0685 -2.0401
    6MOL   H713 4523   6.024   3.133   3.443 -0.7623 -0.2945 -0.1028
    6MOL   H714 4524   6.100   3.006   3.516 -2.3251 -1.9548 -0.0162
    6MOL   H715 4525   6.058   3.079   3.739  0.9251 -0.1696 -0.0310
    6MOL   H716 4526   6.142   3.192   3.639 -0.8843  2.2765 -0.0711
    6MOL   H717 4527   5.927   3.316   3.602  1.9741  0.0935  0.4669
    6MOL   H718 4528   5.954   3.300   3.906 -1.2933  1.1583 -0.4355
    6MOL   H719 4529   5.901   3.436   3.805 -0.0625  0.5718 -0.0481
    6MOL   H720 4530   6.304   3.409   3.668  0.3471 -0.0806 -0.0192
    6MOL   H721 4531   6.562   3.428   3.668 -0.7984  1.1093 -0.2855
    6MOL   H722 4532   6.526   3.655   4.036 -0.6887  0.0111 -0.1947
    6MOL   H723 4533   6.304   3.608   4.044  1.0341  0.4489  0.0219
    6MOL   C724 4534   6.929   4.006   4.093 -0.3883 -0.1526  0.0334
    6MOL   C725 4535   6.870   3.865   4.080 -0.3150 -0.3439  0.3454
    6MOL   C726 4536   6.948   3.782   3.984 -0.7274 -0.3256 -0.0610
    6MOL   C727 4537   6.908   3.639   3.988  1.2943 -0.2327  0.5642
    6MOL   C728 4538   6.961   3.848   3.849  0.1458 -0.1308  0.2439
    6MOL   C729 4539   7.018   3.985   3.860 -0.7130 -0.1014  0.0218
    6MOL   C730 4540   6.941   4.074   3.954 -1.2955  0.4401 -0.8983
    6MOL   C731 4541   6.994   4.219   3.977 -0.0137 -0.0893 -0.2648
    6MOL   O732 4542   7.118   4.211   4.034  0.7818  0.2654 -0.4903
    6MOL   C733 4543   7.198   4.312   4.038 -0.1849 -0.2537 -0.2250
    6MOL   O734 4544   7.159   4.429   4.007 -0.0976  0.4993  0.2733
    6MOL   C735 4545   7.337   4.275   4.070 -0.8080  0.5980  0.0421
    6MOL   C736 4546   7.429   4.379   4.107  0.2931 -0.3125 -0.0355
    6MOL   C737 4547   7.567   4.349   4.132  0.0774 -0.6450 -0.1093
    6MOL   C738 4548   7.612   4.213   4.143  0.2965  0.1017  0.0347
    6MOL   C739 4549   7.758   4.188   4.168 -0.4047  0.1587 -0.3231
    6MOL   O740 4550   7.846   4.270   4.153 -0.2571 -0.3970 -0.2701
    6MOL   O741 4551   7.777   4.054   4.201  0.1996  0.1201  0.4072
    6MOL   C742 4552   7.524   4.115   4.103 -0.6018  0.2210 -0.2060
    6MOL   C743 4553   7.389   4.145   4.070 -0.5685 -0.3043 -0.0770
    6MOL   H744 4554   7.026   3.994   4.142 -0.6671 -1.9249  0.1766
    6MOL   H745 4555   6.859   4.062   4.155  1.1983  0.3224  1.4485
    6MOL   H746 4556   6.768   3.868   4.043  0.4323 -0.3414 -1.7880
    6MOL   H747 4557   6.880   3.814   4.176  0.6004  1.7062  1.3835
    6MOL   H748 4558   7.050   3.774   4.022 -0.6180  0.1681 -0.2436
    6MOL   H749 4559   6.927   3.605   4.090  0.2643  2.0176  1.5305
    6MOL   H750 4560   6.962   3.576   3.918 -1.3791  0.7705 -2.5255
    6MOL   H751 4561   6.858   3.855   3.812  1.0428 -1.8251 -2.7566
    6MOL   H752 4562   7.012   3.783   3.778 -0.6069  1.1574 -1.5079
    6MOL   H753 4563   7.121   3.964   3.890 -0.6226 -1.1175 -0.9654
    6MOL   H754 4564   7.037   4.033   3.764  1.6806 -2.9537 -1.0187
    6MOL   H755 4565   6.845   4.072   3.903 -0.9308  2.3510 -1.7224
    6MOL   H756 4566   6.926   4.291   4.023  0.4090  0.7639 -0.9825
    6MOL   H757 4567   7.006   4.261   3.878  0.3298 -2.1102 -1.1138
    6MOL   H758 4568   7.403   4.483   4.100 -1.4573 -0.6688  0.8112
    6MOL   H759 4569   7.641   4.427   4.148  1.0470 -1.0091 -2.7135
    6MOL   H760 4570   7.551   4.011   4.089 -0.5900  0.0816  0.7473
    6MOL   H761 4571   7.321   4.062   4.060 -1.5570  0.1131  2.7536
    6MOL   H762 4572   7.855   4.033   4.151  0.6802  1.8245  0.3800
    7MOL     C1 4573   6.303   1.009   3.495  0.2046 -0.1874  0.0575
    7MOL     C2 4574   6.242   1.089   3.611  0.2812 -0.2361 -0.4396
    7MOL     C3 4575   6.126   1.172   3.558  0.1975  0.1416 -0.1806
    7MOL     C4 4576   6.071   1.254   3.674 -0.2531  0.1115 -0.1272
    7MOL     C5 4577   6.176   1.268   3.447 -0.4841 -0.9918 -0.0865
    7MOL     C6 4578   6.236   1.182   3.336  0.5992  0.0282  0.0988
    7MOL     C7 4579   6.352   1.092   3.378  0.1230  0.0145 -0.0327
    7MOL     C8 4580   6.398   0.997   3.262  0.1835  0.0504 -0.7268
    7MOL     O9 4581   6.494   1.067   3.190  0.3984 -0.0918 -0.5292
    7MOL    C10 4582   6.503   1.073   3.057  0.5703 -0.0053 -0.7785
    7MOL    O11 4583   6.406   1.054   2.987  0.0263  0.0684  0.2742
    7MOL    C12 4584   6.639   1.110   3.011  0.7322 -0.5888  0.1477
    7MOL    C13 4585   6.733   1.169   3.097 -0.2865 -0.0124 -0.5093
    7MOL    C14 4586   6.852   1.221   3.039 -0.1495  0.6060  0.4297
    7MOL    C15 4587   6.876   1.207   2.897 -1.0182  0.3195 -0.2893
    7MOL    C16 4588   7.003   1.272   2.841  0.2124  0.1536  0.5932
    7MOL    O17 4589   7.063   1.358   2.903 -0.0038 -0.1779  0.3757
    7MOL    O18 4590   7.040   1.223   2.718 -0.9547  0.4206 -0.0114
    7MOL    C19 4591   6.788   1.132   2.826  0.3124  0.2181  0.0012
    7MOL    C20 4592   6.664   1.088   2.875 -0.0867  0.7551 -0.2195
    7MOL    H21 4593   6.222   0.947   3.458 -0.7438  1.2920 -0.3727
    7MOL    H22 4594   6.373   0.945   3.548  1.0346  0.1615 -0.6005
    7MOL    H23 4595   6.303   1.161   3.666 -2.0377  0.3162  1.5011
    7MOL    H24 4596   6.212   1.021   3.690 -1.6218  2.0228  0.8546
    7MOL    H25 4597   6.044   1.105   3.533 -0.0802  0.0476  0.9797
    7MOL    H26 4598   5.968   1.287   3.666 -0.2939  0.1813  0.7189
    7MOL    H27 4599   6.140   1.331   3.707 -0.0280 -0.2623  0.2895
    7MOL    H28 4600   6.247   1.343   3.480  1.1412 -2.2780 -0.5959
    7MOL    H29 4601   6.090   1.315   3.401 -0.2091  0.3659  0.7586
    7MOL    H30 4602   6.166   1.114   3.288  1.1767  0.0829 -0.8179
    7MOL    H31 4603   6.262   1.245   3.251 -1.7566  0.0903 -0.6227
    7MOL    H32 4604   6.437   1.151   3.411 -0.5410  0.5738  0.7096
    7MOL    H33 4605   6.316   0.972   3.196 -0.6742 -0.6848  0.5917
    7MOL    H34 4606   6.434   0.906   3.311  1.3103 -0.6610 -2.8162
    7MOL    H35 4607   6.719   1.179   3.204  0.1250 -0.7448 -0.3877
    7MOL    H36 4608   6.925   1.268   3.103  2.1285 -1.1028 -0.8028
    7MOL    H37 4609   6.800   1.118   2.720 -0.8729  0.9326 -0.2469
    7MOL    H38 4610   6.589   1.033   2.819  1.0592 -1.0294 -0.0540
    7MOL    H39 4611   6.063   1.180   3.754 -2.8815 -1.2695 -1.5869
    7MOL    C40 4612   7.213   0.961   2.408 -0.2812  0.2859  0.1703
    7MOL    C41 4613   7.162   1.032   2.540  0.7681 -0.1269 -0.2302
    7MOL    C42 4614   7.218   1.175   2.559 -0.1667 -0.1818 -0.0348
    7MOL    C43 4615   7.173   1.250   2.681 -0.0149 -0.1938 -0.1902
    7MOL    C44 4616   7.370   1.166   2.555  0.1429  0.6151  0.3193
    7MOL    C45 4617   7.416   1.113   2.423 -0.5722 -0.0702  0.2927
    7MOL    C46 4618   7.365   0.967   2.400  0.1601 -0.1634 -0.5289
    7MOL    C47 4619   7.425   0.895   2.276  0.0790  0.1106  0.7107
    7MOL    O48 4620   7.362   0.764   2.265  0.1391 -0.2632  0.0992
    7MOL    C49 4621   7.415   0.667   2.191  0.4142  0.2072  0.3596
    7MOL    O50 4622   7.520   0.689   2.130 -0.5355  0.2448 -0.1557
    7MOL    C51 4623   7.348   0.536   2.209 -0.4719 -0.1216 -0.0656
    7MOL    C52 4624   7.232   0.521   2.287  0.6535  0.2582  0.5178
    7MOL    C53 4625   7.161   0.402   2.282 -0.5604 -0.1982  0.5624
    7MOL    C54 4626   7.220   0.288   2.223 -0.1981 -0.2705 -0.4821
    7MOL    C55 4627   7.141   0.162   2.226 -0.9711  0.9760 -0.1829
    7MOL    O56 4628   7.027   0.151   2.282 -0.1807  0.6302  0.5265
    7MOL    O57 4629   7.202   0.058   2.170 -0.1491 -0.4607 -0.2042
    7MOL    C58 4630   7.346   0.295   2.157  0.3746 -0.7839 -0.2544
    7MOL    C59 4631   7.404   0.424   2.151 -0.2584  0.5277 -0.4418
    7MOL    H60 4632   7.177   1.012   2.319  2.0151  0.7320 -0.5477
    7MOL    H61 4633   7.181   0.856   2.407  2.3676 -0.6253  2.6318
    7MOL    H62 4634   7.190   0.973   2.627  1.7306 -0.7819 -0.9672
    7MOL    H63 4635   7.054   1.043   2.535  0.8616  1.4246  0.6847
    7MOL    H64 4636   7.189   1.238   2.475 -4.5753 -0.2150  1.3463
    7MOL    H65 4637   7.185   1.358   2.677  1.7258 -0.2813  1.7709
    7MOL    H66 4638   7.244   1.216   2.757  0.6852  0.4425 -0.5535
    7MOL    H67 4639   7.412   1.095   2.628  0.1283  0.0649 -0.2078
    7MOL    H68 4640   7.417   1.264   2.566 -1.3339  1.3489  0.1123
    7MOL    H69 4641   7.381   1.175   2.342 -0.3567 -2.8318 -2.0021
    7MOL    H70 4642   7.525   1.113   2.421 -0.6031  0.9152 -2.3919
    7MOL    H71 4643   7.399   0.914   2.488  0.4010 -0.8056 -1.0054
    7MOL    H72 4644   7.524   0.867   2.312 -0.7927  0.5457  3.5947
    7MOL    H73 4645   7.440   0.961   2.190 -0.9412  1.2104  1.3739
    7MOL    H74 4646   7.185   0.608   2.331  2.2397  0.0249  2.7289
    7MOL    H75 4647   7.064   0.390   2.328 -0.2280  0.6294  1.4938
    7MOL    H76 4648   7.383   0.210   2.101  0.8209 -0.7326 -0.0399
    7MOL    H77 4649   7.494   0.431   2.091  0.8027  0.5758  1.1346
    7MOL    C78 4650   6.898   7.937   1.863  0.3019 -0.2001  0.3568
    7MOL    C79 4651   6.968   7.991   1.994 -0.4546  0.4431 -0.2902
    7MOL    C80 4652   7.102   7.923   2.025 -0.1694  0.2978  0.6297
    7MOL    C81 4653   7.142   7.962   2.169  0.4217  0.4761  0.1639
    7MOL    C82 4654   7.103   7.772   2.008  0.3035  0.2235  0.8779
    7MOL    C83 4655   7.052   7.735   1.870  0.4107  0.1617 -0.4015
    7MOL    C84 4656   6.905   7.783   1.848 -0.3361  0.3937 -0.4529
    7MOL    C85 4657   6.844   7.747   1.715  1.1708  0.3293  1.0426
    7MOL    O86 4658   6.910   7.794   1.606 -0.1701 -0.3440  0.0558
    7MOL    C87 4659   6.994   7.719   1.539 -0.0430 -0.5799  0.0773
    7MOL    O88 4660   7.027   7.610   1.569  0.7494  0.3823 -0.1286
    7MOL    C89 4661   7.041   7.793   1.414 -0.2913 -0.1375  0.2246
    7MOL    C90 4662   7.174   7.765   1.376 -0.3229 -1.0300  0.0622
    7MOL    C91 4663   7.233   7.838   1.273  0.1660  0.2296  0.0988
    7MOL    C92 4664   7.164   7.938   1.203  0.2698 -0.5658  0.0471
    7MOL    C93 4665   7.237   8.015   1.098 -0.2060 -0.4399 -0.4243
    7MOL    O94 4666   7.328   7.970   1.038  0.0726  0.3324  0.3561
    7MOL    O95 4667   7.188   0.108   1.079  0.3808  0.5317  0.5803
    7MOL    C96 4668   7.028   7.955   1.233 -0.1091  0.1558 -0.3126
    7MOL    C97 4669   6.965   7.888   1.337 -0.1117 -0.0011  0.2176
    7MOL    H98 4670   6.946   7.993   1.782 -0.6919 -0.2919 -0.3055
    7MOL    H99 4671   6.793   7.964   1.875  0.6320  1.5064 -0.4702
    7MOL   H100 4672   6.892   7.979   2.071 -1.2251  1.2640 -0.9034
    7MOL   H101 4673   6.973   0.068   1.996 -2.5264  0.5615 -0.2261
    7MOL   H102 4674   7.180   7.969   1.964  1.4909 -3.3509 -0.1110
    7MOL   H103 4675   7.213   7.892   2.213 -0.4591  0.2320  1.1919
    7MOL   H104 4676   7.057   7.959   2.237 -1.5393  0.4589 -2.2231
    7MOL   H105 4677   7.036   7.733   2.085 -0.7972 -1.3196 -0.8252
    7MOL   H106 4678   7.204   7.732   2.020 -0.2125 -1.3529  0.1226
    7MOL   H107 4679   7.118   7.771   1.792  0.5380  0.1771 -0.2849
    7MOL   H108 4680   7.058   7.628   1.851  0.1902  0.2343 -0.8869
    7MOL   H109 4681   6.844   7.746   1.931 -0.8262 -2.7461 -2.1193
    7MOL   H110 4682   6.746   7.794   1.711  0.5821 -0.8746  1.2432
    7MOL   H111 4683   6.835   7.638   1.711 -3.6531  0.6494  0.6163
    7MOL   H112 4684   7.232   7.692   1.431 -1.4127 -0.2371  2.3624
    7MOL   H113 4685   7.337   7.814   1.257  0.1730 -1.4119  2.2523
    7MOL   H114 4686   6.958   8.028   1.195 -1.0511 -0.4668  0.2060
    7MOL   H115 4687   6.861   7.911   1.358 -1.2156 -2.4922 -2.2530
    7MOL   C116 4688   7.197   0.577   0.905  0.0478 -1.0163 -0.2589
    7MOL   C117 4689   7.258   0.438   0.887 -0.3421  0.0311  0.4234
    7MOL   C118 4690   7.204   0.338   0.991  0.3900 -0.0797 -0.1449
    7MOL   C119 4691   7.253   0.196   0.983 -0.4087 -0.4112 -0.0815
    7MOL   C120 4692   7.215   0.397   1.131 -0.5752  0.2587 -0.4457
    7MOL   C121 4693   7.132   0.521   1.143  0.0839 -0.1518  0.4801
    7MOL   C122 4694   7.203   0.623   1.049 -0.2199  0.1912 -0.1546
    7MOL   C123 4695   7.138   0.767   1.059 -0.0313 -0.0347  0.5124
    7MOL   O124 4696   7.230   0.860   1.002  0.3278  0.2307 -0.3350
    7MOL   C125 4697   7.233   0.981   1.043 -0.2497 -1.0860  0.2519
    7MOL   O126 4698   7.143   1.048   1.092 -0.0026  0.4525  0.2910
    7MOL   C127 4699   7.371   1.049   1.013 -0.1400  0.1158  0.2011
    7MOL   C128 4700   7.481   0.972   0.968 -0.4102  0.0457 -0.2217
    7MOL   C129 4701   7.599   1.032   0.934 -1.2077 -0.1612  0.2302
    7MOL   C130 4702   7.621   1.172   0.940  0.9009  0.6445 -0.1057
    7MOL   C131 4703   7.750   1.238   0.903  0.9804  1.3236  0.2312
    7MOL   O132 4704   7.770   1.357   0.910  0.6563 -0.0583  0.2037
    7MOL   O133 4705   7.843   1.148   0.862  0.8166  0.3121  0.2286
    7MOL   C134 4706   7.509   1.254   0.986  0.2950  0.2081 -0.1265
    7MOL   C135 4707   7.389   1.193   1.026  0.0082  0.1094 -0.1141
    7MOL   H136 4708   7.091   0.580   0.878 -0.3767  1.1207  1.4977
    7MOL   H137 4709   7.250   0.650   0.844 -0.2177  1.6413  2.5784
    7MOL   H138 4710   7.367   0.434   0.891 -0.2404  1.0568 -1.1943
    7MOL   H139 4711   7.234   0.402   0.787 -0.6021 -0.9523  0.8295
    7MOL   H140 4712   7.097   0.341   0.968  0.5685 -1.4663 -1.2385
    7MOL   H141 4713   7.361   0.181   0.984 -0.3345  0.1603  1.0768
    7MOL   H142 4714   7.225   0.163   0.883 -1.8758 -2.2038  0.8937
    7MOL   H143 4715   7.317   0.416   1.164  0.2626  0.7331 -3.2272
    7MOL   H144 4716   7.156   0.332   1.197 -0.7837 -0.5774 -1.4458
    7MOL   H145 4717   7.026   0.498   1.135  0.0710 -0.6345  1.9100
    7MOL   H146 4718   7.145   0.561   1.244 -0.8178 -0.0062  0.5421
    7MOL   H147 4719   7.309   0.636   1.067 -0.6820  0.9136  2.1733
    7MOL   H148 4720   7.100   0.788   1.159 -0.1793 -0.4973  0.5544
    7MOL   H149 4721   7.043   0.763   1.006 -1.2452 -0.3994  2.6423
    7MOL   H150 4722   7.472   0.864   0.961 -0.6022  0.0798 -0.5236
    7MOL   H151 4723   7.676   0.971   0.889 -0.5420  2.3112 -2.0714
    7MOL   H152 4724   7.528   1.360   0.990  0.2719  0.1775  1.2363
    7MOL   H153 4725   7.312   1.255   1.070  0.3119  1.9584 -2.0827
    7MOL   C154 4726   0.083   0.900   0.626 -0.6804 -0.7593 -1.1430
    7MOL   C155 4727   8.016   1.009   0.674 -0.7661  0.5994  0.0811
    7MOL   C156 4728   0.039   1.090   0.795  0.0060  0.4374  0.4823
    7MOL   C157 4729   7.974   1.200   0.836 -0.3123  0.2900 -0.6437
    7MOL   C158 4730   0.072   0.998   0.908  0.3722 -0.2140  0.0766
    7MOL   C159 4731   0.171   0.885   0.870  0.4961  0.5807 -0.5586
    7MOL   C160 4732   0.115   0.808   0.748  0.0450  0.4462 -0.3700
    7MOL   C161 4733   0.202   0.686   0.707  0.3111 -0.4403 -0.2792
    7MOL   O162 4734   0.211   0.582   0.808  0.4929 -0.4098 -0.3066
    7MOL   C163 4735   0.128   0.475   0.802 -0.2265  0.7163 -0.1209
    7MOL   O164 4736   0.030   0.463   0.736  0.1658 -0.6507  0.3814
    7MOL   C165 4737   0.173   0.360   0.884 -0.2029 -0.0303 -0.1622
    7MOL   C166 4738   0.276   0.378   0.983  0.9789 -0.2449 -0.5599
    7MOL   C167 4739   0.326   0.270   1.056 -0.2850 -0.7362 -0.2627
    7MOL   C168 4740   0.284   0.137   1.027  0.4903 -0.5888  0.0805
    7MOL   C169 4741   0.351   0.010   1.065  0.1479  0.2592  0.2476
    7MOL   O170 4742   0.309   7.932   1.025  0.4866  0.1093 -0.5010
    7MOL   O171 4743   0.459   0.028   1.145  0.2334  0.4136  0.4751
    7MOL   C172 4744   0.178   0.123   0.934  0.4487 -0.2222  0.0264
    7MOL   C173 4745   0.125   0.228   0.854 -0.5123 -0.2442 -0.7203
    7MOL   H174 4746   0.172   0.943   0.580 -0.5409 -1.3958 -1.4826
    7MOL   H175 4747   0.036   0.833   0.554 -1.2042 -0.8427 -0.7253
    7MOL   H176 4748   7.915   0.977   0.698 -0.5314 -0.5558 -0.4717
    7MOL   H177 4749   8.007   1.075   0.588 -0.0863 -1.7253 -1.8207
    7MOL   H178 4750   0.120   1.153   0.759  0.3869  0.5892  1.5921
    7MOL   H179 4751   7.967   1.268   0.750 -1.2948 -0.8966 -1.5274
    7MOL   H180 4752   8.000   1.259   0.924  0.0466 -1.7902  0.6738
    7MOL   H181 4753   8.014   0.941   0.934 -1.2460  1.8341 -0.9034
    7MOL   H182 4754   0.093   1.050   1.002 -0.9341 -0.0556  0.2886
    7MOL   H183 4755   0.268   0.925   0.843 -0.2867  2.5115 -0.5724
    7MOL   H184 4756   0.182   0.817   0.956  2.7002  1.9204  0.2640
    7MOL   H185 4757   0.026   0.756   0.783 -0.4269  2.5004  1.6420
    7MOL   H186 4758   0.302   0.723   0.686  0.8188 -1.7725 -0.2556
    7MOL   H187 4759   0.151   0.646   0.619  2.8112 -2.1447 -1.0052
    7MOL   H188 4760   0.318   0.475   1.004  0.0267  0.4262 -1.6736
    7MOL   H189 4761   0.411   0.280   1.122  0.2603 -0.2277 -1.0268
    7MOL   H190 4762   0.141   0.031   0.891  0.9474  0.5794 -2.1747
    7MOL   H191 4763   0.041   0.206   0.789  0.3181 -3.5411 -0.7566
    7MOL   C192 4764   0.421   7.999   1.582  0.7320  0.3896  0.4341
    7MOL   C193 4765   0.484   0.004   1.447 -0.4332  0.1854  0.1148
    7MOL   C194 4766   0.465   7.921   1.347 -1.0937  0.1783  0.0276
    7MOL   C195 4767   0.525   7.950   1.203  0.4753 -0.1416  0.1739
    7MOL   C196 4768   0.549   7.808   1.402  0.0945  0.4581 -0.8224
    7MOL   C197 4769   0.489   7.757   1.532 -0.6447  0.3960 -0.4331
    7MOL   C198 4770   0.476   7.864   1.639 -0.0397 -0.1400 -0.8263
    7MOL   C199 4771   0.377   7.820   1.755  0.3328  0.6261 -0.2719
    7MOL   O200 4772   0.422   7.702   1.814 -0.6731  0.2723 -0.3758
    7MOL   C201 4773   0.368   7.581   1.799  0.3452 -0.7178  0.4607
    7MOL   O202 4774   0.292   7.556   1.703  0.1067 -0.1265  0.1696
    7MOL   C203 4775   0.435   7.481   1.875 -0.1692 -0.2790  0.1655
    7MOL   C204 4776   0.466   7.494   2.012 -0.4555  0.4210  0.4868
    7MOL   C205 4777   0.534   7.387   2.078  0.4653 -0.4056 -0.2591
    7MOL   C206 4778   0.546   7.262   2.018  0.7502  0.4671  0.1740
    7MOL   C207 4779   0.605   7.151   2.091  0.4241 -0.2087 -0.0845
    7MOL   O208 4780   0.667   7.058   2.044 -0.0580 -0.0775  0.4866
    7MOL   O209 4781   0.582   7.154   2.223  0.7673  0.0146  0.0764
    7MOL   C210 4782   0.512   7.245   1.882  0.1490  0.2373 -0.4646
    7MOL   C211 4783   0.458   7.359   1.813 -0.4367 -0.2504  0.4823
    7MOL   H212 4784   0.313   7.997   1.574  0.7065 -1.0618  0.9583
    7MOL   H213 4785   0.445   0.051   1.646 -1.2112  2.1423 -1.0694
    7MOL   H214 4786   0.588   0.034   1.459 -0.0588 -1.5635  1.3175
    7MOL   H215 4787   0.430   0.092   1.412  0.1074 -0.2504 -1.8624
    7MOL   H216 4788   0.362   7.886   1.347 -1.6468  1.7595 -0.5195
    7MOL   H217 4789   0.508   7.866   1.135  1.1260 -1.4077  1.5479
    7MOL   H218 4790   0.632   7.970   1.198  0.3646  0.4181  0.0086
    7MOL   H219 4791   0.649   7.850   1.411  0.3062 -0.0126 -0.9486
    7MOL   H220 4792   0.569   7.728   1.331 -1.3488 -0.3511 -0.3422
    7MOL   H221 4793   0.394   7.710   1.507 -0.1551 -0.5313 -0.5581
    7MOL   H222 4794   0.555   7.677   1.565 -0.7281  1.4434  2.4586
    7MOL   H223 4795   0.566   7.898   1.691 -0.3965 -1.0753  0.4433
    7MOL   H224 4796   0.275   7.825   1.716 -0.0262 -2.1038  0.2106
    7MOL   H225 4797   0.385   7.897   1.831 -1.4363  0.7862 -0.2172
    7MOL   H226 4798   0.453   7.583   2.073  4.3589  0.7533  1.2024
    7MOL   H227 4799   0.570   7.405   2.178  0.2098  0.8584 -0.3777
    7MOL   H228 4800   0.546   7.155   1.832 -1.3640 -0.0511 -0.9827
    7MOL   H229 4801   0.443   7.353   1.706  1.2424  1.0456  0.1537
    7MOL   C230 4802   0.234   7.064   2.457  0.1483  0.2328 -0.2018
    7MOL   C231 4803   0.377   7.114   2.434 -0.7165  0.9126  0.6569
    7MOL   C232 4804   0.462   7.003   2.359 -0.0990  0.3668  0.0728
    7MOL   C233 4805   0.601   7.044   2.309 -0.0120  0.0562  0.4307
    7MOL   C234 4806   0.464   6.873   2.440  0.3351  0.5577 -0.7196
    7MOL   C235 4807   0.320   6.827   2.466 -0.0378  0.0748 -0.4745
    7MOL   C236 4808   0.235   6.937   2.537  0.2738  0.2362 -0.2851
    7MOL   C237 4809   0.093   6.889   2.555  0.1233  0.7266  0.2983
    7MOL   O238 4810   0.088   6.802   2.666  0.0350  0.4090 -0.3279
    7MOL   C239 4811   8.020   6.706   2.673  0.6851  0.3483  0.0924
    7MOL   O240 4812   7.934   6.697   2.589  0.0132  0.7848  0.3853
    7MOL   C241 4813   8.015   6.619   2.799  0.0574  0.0475 -0.2888
    7MOL   C242 4814   0.062   6.649   2.914  0.0413 -0.0363  0.0803
    7MOL   C243 4815   0.047   6.563   3.024 -0.2461 -0.1806 -0.3547
    7MOL   C244 4816   7.990   6.455   3.028 -0.1916  0.4561  0.2878
    7MOL   C245 4817   7.978   6.366   3.148  0.3040  0.1924  0.2762
    7MOL   O246 4818   7.875   6.300   3.177 -0.3615  0.2759 -0.2925
    7MOL   O247 4819   0.054   6.377   3.227 -0.2845 -0.0115 -0.7497
    7MOL   C248 4820   7.904   6.436   2.913  0.3234  0.0277 -0.4437
    7MOL   C249 4821   7.918   6.516   2.803 -0.1166 -0.1136 -0.3965
    7MOL   H250 4822   0.184   7.053   2.361 -1.4250 -0.1229  0.6486
    7MOL   H251 4823   0.169   7.141   2.499  1.9215  0.5549  2.0112
    7MOL   H252 4824   0.438   7.133   2.522 -1.3785 -0.7830  1.5140
    7MOL   H253 4825   0.360   7.205   2.377  0.0499 -0.9498 -2.6708
    7MOL   H254 4826   0.411   6.972   2.268  1.0386 -0.6708 -0.2375
    7MOL   H255 4827   0.640   6.952   2.265 -0.5353 -0.5301  1.1634
    7MOL   H256 4828   0.671   7.083   2.383  0.6013 -0.1771 -0.0248
    7MOL   H257 4829   0.527   6.887   2.528 -2.7489 -1.0121  1.8389
    7MOL   H258 4830   0.518   6.797   2.383  1.1292  2.1108 -2.0629
    7MOL   H259 4831   0.266   6.789   2.379 -0.4913 -2.2049  0.7738
    7MOL   H260 4832   0.331   6.744   2.536 -0.6072  2.3531  2.4199
    7MOL   H261 4833   0.283   6.951   2.633 -1.1074 -2.8814  0.9060
    7MOL   H262 4834   0.059   6.836   2.466 -1.0376 -0.8848  1.6840
    7MOL   H263 4835   0.021   6.970   2.561 -0.1181  0.7752 -2.2931
    7MOL   H264 4836   0.136   6.728   2.921 -0.0752  0.1185 -0.3901
    7MOL   H265 4837   0.104   6.576   3.115 -0.5695  1.6308 -0.3941
    7MOL   H266 4838   7.836   6.352   2.918  1.1561 -0.6791 -0.9904
    7MOL   H267 4839   7.860   6.493   2.715  0.0333 -1.9014 -0.0565
    7MOL   C268 4840   0.250   5.977   3.493 -0.7696  0.0035  0.3052
    7MOL   C269 4841   0.169   6.105   3.478  0.4757  0.2809  0.2835
    7MOL   C270 4842   0.149   6.168   3.337  0.3725 -0.1950  0.4045
    7MOL   C271 4843   0.063   6.305   3.347  0.0215  0.1338 -0.1893
    7MOL   C272 4844   0.290   6.187   3.280  0.4239 -0.0448  0.3850
    7MOL   C273 4845   0.362   6.050   3.280  0.5102 -0.2386 -0.2385
    7MOL   C274 4846   0.386   5.996   3.423 -0.7757 -0.3233  0.0736
    7MOL   C275 4847   0.465   5.872   3.424  0.3125 -0.2771 -0.3659
    7MOL   O276 4848   0.474   5.799   3.544  0.0837  0.3183 -0.0807
    7MOL   C277 4849   0.585   5.810   3.629  0.5282 -0.3762  0.3705
    7MOL   O278 4850   0.690   5.870   3.594  0.2238 -0.4794  0.1540
    7MOL   C279 4851   0.568   5.740   3.755 -0.0677  0.4982 -1.3214
    7MOL   C280 4852   0.682   5.700   3.828  0.6081  0.2326 -0.6505
    7MOL   C281 4853   0.671   5.620   3.946  0.2836  0.0061  0.4607
    7MOL   C282 4854   0.546   5.591   4.004 -0.5025 -0.3910 -0.3551
    7MOL   C283 4855   0.539   5.508   4.125  0.0459 -0.5082 -0.0949
    7MOL   O284 4856   0.638   5.483   4.190 -0.6112 -0.4523 -0.7056
    7MOL   O285 4857   0.412   5.486   4.163  0.0040  0.1791 -0.0885
    7MOL   C286 4858   0.433   5.635   3.930 -0.1860  0.0321 -0.3482
    7MOL   C287 4859   0.443   5.699   3.802 -1.1412 -0.3095 -0.9348
    7MOL   H288 4860   0.193   5.893   3.453 -2.0986  0.6603  0.7748
    7MOL   H289 4861   0.272   5.956   3.598 -1.7124 -1.2779  0.2542
    7MOL   H290 4862   0.215   6.181   3.542  0.0245  0.1825  0.7369
    7MOL   H291 4863   0.066   6.083   3.506  0.3913 -0.4048 -0.5613
    7MOL   H292 4864   0.101   6.091   3.278 -0.5043 -1.0844  2.2472
    7MOL   H293 4865   0.111   6.372   3.418 -0.9803 -0.1909  0.8053
    7MOL   H294 4866   7.997   6.280   3.388 -0.8140  0.9420 -1.6341
    7MOL   H295 4867   0.338   6.259   3.347 -1.6603  2.0744 -0.3522
    7MOL   H296 4868   0.283   6.225   3.178  2.1442 -1.3810 -0.2664
    7MOL   H297 4869   0.312   5.974   3.220 -1.4713  0.2733  0.7394
    7MOL   H298 4870   0.453   6.074   3.224 -0.7719  2.0494 -1.4306
    7MOL   H299 4871   0.449   6.069   3.474 -1.7864 -0.7982  2.0520
    7MOL   H300 4872   0.563   5.893   3.381 -1.0438  0.9030 -3.0387
    7MOL   H301 4873   0.421   5.797   3.358  2.9586 -1.4574 -0.8480
    7MOL   H302 4874   0.772   5.747   3.793  0.0321  2.4978  0.8050
    7MOL   H303 4875   0.763   5.582   3.988  1.6160  0.7568 -1.7172
    7MOL   H304 4876   0.331   5.611   3.958  0.5310 -1.1205  1.3619
    7MOL   H305 4877   0.353   5.717   3.745 -1.3081  0.3860 -0.4509
    7MOL   C306 4878   0.185   5.081   4.350  0.1880 -0.0245  0.8117
    7MOL   C307 4879   0.286   5.199   4.377 -0.1939  0.1258  0.2113
    7MOL   C308 4880   0.299   5.284   4.247 -0.1188  0.7745  0.3203
    7MOL   C309 4881   0.388   5.400   4.273  0.0515 -0.1404 -0.5415
    7MOL   C310 4882   0.354   5.192   4.129 -0.0417 -0.3661  0.0178
    7MOL   C311 4883   0.255   5.078   4.103 -0.5266  0.3025 -0.2126
    7MOL   C312 4884   0.230   4.996   4.226  0.1422 -0.3188  0.6715
    7MOL   C313 4885   0.118   4.890   4.198  0.0868  0.0120 -0.3642
    7MOL   O314 4886   0.001   4.935   4.127 -0.1560 -0.1246 -0.5221
    7MOL   C315 4887   7.919   4.945   4.190  0.5413  0.2240 -0.0693
    7MOL   O316 4888   7.896   4.951   4.313 -0.0807  0.1962 -0.3737
    7MOL   C317 4889   7.813   4.971   4.097 -0.0432  0.2735  0.1941
    7MOL   C318 4890   7.678   4.940   4.139  0.2048 -1.0196  0.4846
    7MOL   C319 4891   7.574   4.941   4.043  1.0991  0.5364  0.1672
    7MOL   C320 4892   7.596   4.971   3.908 -0.2537  0.4119 -0.0818
    7MOL   C321 4893   7.481   4.973   3.816  0.8399 -0.3270  0.5224
    7MOL   O322 4894   7.495   4.994   3.696 -0.4084 -0.5953  0.1884
    7MOL   O323 4895   7.357   4.959   3.878 -0.3393  0.2491 -0.3584
    7MOL   C324 4896   7.732   5.006   3.871  0.0243 -0.2036 -0.0677
    7MOL   C325 4897   7.839   4.998   3.963  0.7041 -0.8746  0.4287
    7MOL   H326 4898   0.091   5.128   4.321  1.1338  1.5447  0.1872
    7MOL   H327 4899   0.173   5.025   4.443  3.5489 -0.5843  0.9642
    7MOL   H328 4900   0.383   5.157   4.405  0.3852  0.6647 -0.9574
    7MOL   H329 4901   0.242   5.261   4.455  3.4640  1.5482  1.2546
    7MOL   H330 4902   0.200   5.309   4.209  1.2511  2.5110 -2.2577
    7MOL   H331 4903   0.477   5.347   4.305  0.0306 -0.2120 -0.6039
    7MOL   H332 4904   0.339   5.463   4.348 -0.7791 -1.7586  0.2960
    7MOL   H333 4905   0.445   5.141   4.160  0.0384 -1.9532 -2.6970
    7MOL   H334 4906   0.368   5.257   4.042  0.8635 -0.7448 -0.1237
    7MOL   H335 4907   0.162   5.124   4.067 -1.2591  0.6950  2.1198
    7MOL   H336 4908   0.286   5.023   4.014  0.6428  1.4876 -0.5568
    7MOL   H337 4909   0.325   4.944   4.244 -1.2135 -3.4399 -0.7503
    7MOL   H338 4910   0.095   4.854   4.298 -0.2847 -0.3232 -0.5691
    7MOL   H339 4911   0.166   4.816   4.133  0.1780  0.3812 -0.7196
    7MOL   H340 4912   7.651   4.925   4.243 -1.8612 -1.1693 -0.0570
    7MOL   H341 4913   7.480   4.910   4.085  1.1461  1.0190  0.6303
    7MOL   H342 4914   7.754   5.034   3.769 -0.0022  1.5390  0.3948
    7MOL   H343 4915   7.938   5.027   3.931  0.1637  0.3289 -0.1695
    7MOL   C344 4916   7.003   4.787   3.568  0.0151  0.6077 -0.0143
    7MOL   C345 4917   7.067   4.900   3.646 -0.8133  0.0715 -0.1190
    7MOL   C346 4918   7.176   4.856   3.735  0.8759 -0.3843 -0.4460
    7MOL   C347 4919   7.231   4.975   3.810  0.5767  0.3526  0.0117
    7MOL   C348 4920   7.125   4.731   3.822  0.3706 -0.2350  0.3668
    7MOL   C349 4921   7.054   4.621   3.737 -0.5152 -0.2167 -0.2118
    7MOL   C350 4922   6.939   4.685   3.666  0.0893 -1.0193  0.2819
    7MOL   C351 4923   6.860   4.583   3.588 -0.4318 -0.0216 -0.1757
    7MOL   O352 4924   6.770   4.505   3.668  0.8330  0.2027  0.0309
    7MOL   C353 4925   6.652   4.464   3.624  0.1141  0.0390  0.8381
    7MOL   O354 4926   6.607   4.494   3.513  0.2378  0.0967 -0.0524
    7MOL   C355 4927   6.592   4.369   3.716  0.3689 -0.2967  0.3297
    7MOL   C356 4928   6.459   4.316   3.689 -0.4941 -0.3079  0.7409
    7MOL   C357 4929   6.404   4.214   3.770 -0.5206 -0.2059 -0.2228
    7MOL   C358 4930   6.473   4.161   3.881 -0.7729  0.5819  0.0239
    7MOL   C359 4931   6.397   4.077   3.980  0.2807  0.1458  0.2701
    7MOL   O360 4932   6.275   4.053   3.977  0.2162  0.3897 -0.0659
    7MOL   O361 4933   6.480   4.034   4.070  0.4701  0.2065 -0.1309
    7MOL   C362 4934   6.600   4.210   3.910 -0.1239  0.7148 -0.2105
    7MOL   C363 4935   6.656   4.314   3.829  0.1350  0.8563 -0.4515
    7MOL   H364 4936   7.067   4.729   3.501 -0.5694 -2.2623  1.8613
    7MOL   H365 4937   6.925   4.820   3.499  1.8754  0.9074 -2.0613
    7MOL   H366 4938   6.987   4.933   3.712  0.6668  1.5977  0.9843
    7MOL   H367 4939   7.093   4.981   3.577 -1.7355  0.0782 -0.4677
    7MOL   H368 4940   7.256   4.825   3.669  0.2983 -1.8596 -0.4644
    7MOL   H369 4941   7.156   5.010   3.881 -0.2944  2.4587 -1.8903
    7MOL   H370 4942   7.255   5.052   3.736 -2.8266 -0.5327 -2.1376
    7MOL   H371 4943   7.057   4.767   3.899  2.5542  4.4605  0.2829
    7MOL   H372 4944   7.211   4.686   3.872  0.6819 -0.3853 -0.2850
    7MOL   H373 4945   7.128   4.579   3.668 -0.1637  1.7646 -1.1155
    7MOL   H374 4946   7.027   4.546   3.811  0.4042  0.2696  0.6286
    7MOL   H375 4947   6.881   4.743   3.737 -0.8053  0.2409 -1.4563
    7MOL   H376 4948   6.930   4.522   3.532 -0.0399 -0.5119  0.8356
    7MOL   H377 4949   6.811   4.642   3.511  3.1717 -0.5234 -2.9450
    7MOL   H378 4950   6.411   4.364   3.605  1.8798  2.0899  0.6820
    7MOL   H379 4951   6.308   4.174   3.741 -1.6373  1.9885  0.2994
    7MOL   H380 4952   6.664   4.165   3.983  0.5643  1.5287 -0.3034
    7MOL   H381 4953   6.762   4.334   3.833  0.1235  1.0104 -0.9120
    7MOL   C382 4954   6.621   3.786   4.477  0.1981 -0.4591  0.4008
    7MOL   C383 4955   6.501   3.827   4.394  0.5548  0.8782  0.2330
    7MOL   C384 4956   6.542   3.923   4.281 -0.0657  0.0423  0.1083
    7MOL   C385 4957   6.431   3.965   4.183  0.1984  0.5640  1.1679
    7MOL   C386 4958   6.604   4.043   4.350  0.1823 -0.9450 -0.0029
    7MOL   C387 4959   6.733   3.992   4.418 -0.2020  0.9131  0.1625
    7MOL   C388 4960   6.706   3.897   4.527  0.5484 -0.1987 -0.2497
    7MOL   C389 4961   6.841   3.835   4.572  0.1132 -0.4662  0.1937
    7MOL   O390 4962   6.905   3.934   4.662  0.3313 -0.1110  0.0008
    7MOL   C391 4963   6.870   3.930   4.791  0.1656  0.1248  0.2771
    7MOL   O392 4964   6.779   3.864   4.837 -0.4105 -0.1393 -0.4964
    7MOL   C393 4965   6.951   4.021   4.865  0.2571 -0.1281  0.5390
    7MOL   C394 4966   7.015   4.133   4.805 -0.3649 -0.1309 -0.2185
    7MOL   C395 4967   7.101   4.215   4.879 -0.1738 -0.5479 -0.0970
    7MOL   C396 4968   7.111   4.191   5.017 -0.3619  0.0216  0.4023
    7MOL   C397 4969   7.185   4.286   5.100 -0.5298  0.1887  0.4182
    7MOL   O398 4970   7.198   4.278   5.222 -0.0474 -0.4491 -0.0401
    7MOL   O399 4971   7.240   4.386   5.031 -0.2455 -0.1859 -0.2202
    7MOL   C400 4972   7.049   4.085   5.081  0.3906 -1.1238  0.2652
    7MOL   C401 4973   6.971   3.996   5.004  0.4304  0.5358 -0.1701
    7MOL   H402 4974   6.680   3.720   4.414  0.4200 -0.8428  1.0024
    7MOL   H403 4975   6.583   3.728   4.562 -0.4483  0.5047  0.7805
    7MOL   H404 4976   6.439   3.872   4.472  0.7272 -0.3698  1.1085
    7MOL   H405 4977   6.442   3.744   4.356  0.7604  0.9945 -0.3440
    7MOL   H406 4978   6.611   3.861   4.224 -0.9562 -2.2872  1.5187
    7MOL   H407 4979   6.357   4.025   4.237 -0.3303 -0.1416  1.2379
    7MOL   H408 4980   6.372   3.882   4.143 -1.3432  1.2192  2.0204
    7MOL   H409 4981   6.528   4.085   4.416  0.2430 -2.7482  1.2565
    7MOL   H410 4982   6.632   4.127   4.286 -0.6262  1.6477  2.8929
    7MOL   H411 4983   6.802   3.943   4.350  0.3119  0.2548  1.1568
    7MOL   H412 4984   6.786   4.074   4.467 -0.5459  0.1759  1.7670
    7MOL   H413 4985   6.658   3.946   4.612 -1.0663 -0.7220 -0.8443
    7MOL   H414 4986   6.887   3.800   4.479  0.8101  1.2043 -0.1184
    7MOL   H415 4987   6.827   3.741   4.626 -1.5372 -0.4732 -0.2380
    7MOL   H416 4988   7.005   4.148   4.698  0.1767 -0.4814 -0.3234
    7MOL   H417 4989   7.159   4.294   4.834  0.2420 -0.3692  0.7595
    7MOL   H418 4990   7.060   4.079   5.188  3.3534 -0.0851  0.0884
    7MOL   H419 4991   6.919   3.913   5.051 -0.8741  1.2141 -0.3839
    7MOL   C420 4992   7.684   4.536   5.084 -0.0645  0.3587 -0.0131
    7MOL   C421 4993   7.545   4.524   5.155 -0.1381 -0.0614  0.5715
    7MOL   C422 4994   7.449   4.513   5.034  0.3991 -0.6515 -0.1722
    7MOL   C423 4995   7.302   4.496   5.093  0.0645  0.1534  0.4651
    7MOL   C424 4996   7.449   4.643   4.936 -0.2253 -0.8159 -0.1482
    7MOL   C425 4997   7.591   4.662   4.886 -0.9439 -0.1541 -0.5750
    7MOL   C426 4998   7.691   4.665   5.000 -0.5550 -0.5210  0.1364
    7MOL   C427 4999   7.835   4.692   4.945  0.3327  0.0596  0.1307
    7MOL   O428 5000   7.914   4.726   5.046  0.3154 -0.2686  0.0025
    7MOL   C429 5001   0.011   4.761   5.033 -0.2254 -0.0021 -0.3843
    7MOL   O430 5002   0.056   4.786   4.917  0.2403 -0.0447  0.2564
    7MOL   C431 5003   0.077   4.764   5.171 -0.2915 -1.0782 -0.3292
    7MOL   C432 5004   0.217   4.763   5.185  0.0077  0.3059  0.6637
    7MOL   C433 5005   0.274   4.778   5.315  0.0907 -0.5527  0.5996
    7MOL   C434 5006   0.193   4.801   5.429  0.1416 -0.4064  0.5872
    7MOL   C435 5007   0.263   4.829   5.553  0.2022 -0.0553 -0.0938
    7MOL   O436 5008   0.382   4.793   5.576  0.0718  0.1660 -0.5142
    7MOL   O437 5009   0.189   4.891   5.648 -0.3921 -0.0734 -0.4870
    7MOL   C438 5010   0.053   4.804   5.413 -0.7244  0.0278  0.4259
    7MOL   C439 5011   8.031   4.776   5.288  0.0146 -0.0135  0.3838
    7MOL   H440 5012   7.702   4.450   5.020  0.6537  1.3400 -1.1715
    7MOL   H441 5013   7.765   4.534   5.156 -0.3716 -0.2041  0.3210
    7MOL   H442 5014   7.526   4.618   5.207 -1.0595  0.4705 -0.7249
    7MOL   H443 5015   7.535   4.436   5.218  1.3644 -1.7061 -1.4308
    7MOL   H444 5016   7.471   4.427   4.972 -1.0064 -0.9002 -0.3570
    7MOL   H445 5017   7.229   4.574   5.072 -0.0411  0.1717  0.8815
    7MOL   H446 5018   7.302   4.488   5.202 -2.8718 -0.1382  0.4818
    7MOL   H447 5019   7.413   4.735   4.982  0.8893  0.0285 -0.9285
    7MOL   H448 5020   7.391   4.625   4.846  0.2155  0.1911 -0.6428
    7MOL   H449 5021   7.619   4.592   4.807  0.7089  0.7051 -0.7868
    7MOL   H450 5022   7.594   4.767   4.858 -1.5904 -0.1284 -0.5416
    7MOL   H451 5023   7.659   4.739   5.072 -2.0274 -1.0931  0.0949
    7MOL   H452 5024   7.830   4.769   4.868 -0.6148  1.0224  1.1383
    7MOL   H453 5025   7.883   4.610   4.892  1.6150  0.8533  0.0390
    7MOL   H454 5026   0.269   4.755   5.091 -1.3506 -0.3941 -0.0460
    7MOL   H455 5027   0.382   4.786   5.309  0.0132 -0.4156 -0.7847
    7MOL   H456 5028   8.023   4.840   5.495  0.6721  1.3634  0.9377
    7MOL   H457 5029   7.925   4.792   5.272  0.1770  0.8015  0.1181
    7MOL   C458 5030   0.054   5.052   6.095  0.7370  0.2049  0.8824
    7MOL   C459 5031   0.169   5.012   6.002 -0.5593 -0.1199  0.0648
    7MOL   C460 5032   0.112   4.957   5.863  0.3390  0.1915  0.4422
    7MOL   C461 5033   0.238   4.913   5.778  0.3585  0.3585 -0.0941
    7MOL   C462 5034   0.022   4.835   5.888 -0.2025  0.6475  0.4360
    7MOL   C463 5035   7.937   4.876   5.974 -0.2557  0.0662 -0.2631
    7MOL   C464 5036   7.991   4.933   6.110  0.0878 -0.1177  0.1615
    7MOL   C465 5037   7.883   4.984   6.207 -0.4658  0.1624 -0.6476
    7MOL   O466 5038   7.935   4.976   6.337  0.1981 -0.2981 -0.1831
    7MOL   C467 5039   7.850   4.990   6.446 -0.0170  0.1789 -0.0591
    7MOL   O468 5040   7.734   5.027   6.432  0.4634 -0.3668  0.1130
    7MOL   C469 5041   7.903   4.945   6.571  0.1888 -0.2938  0.7185
    7MOL   C470 5042   7.813   4.924   6.674  0.1173 -0.6213  0.0550
    7MOL   C471 5043   7.858   4.867   6.797 -0.3934  0.2479  0.9615
    7MOL   C472 5044   8.003   4.855   6.818 -0.4064 -0.8020 -0.7775
    7MOL   C473 5045   0.031   4.798   6.946  0.0186  0.3686 -0.3542
    7MOL   O474 5046   8.004   4.772   7.050 -0.2369  0.1493 -0.3167
    7MOL   O475 5047   0.164   4.765   6.937  0.0489 -0.6228  0.3488
    7MOL   C476 5048   0.057   4.894   6.714  0.2110 -0.0817  0.1463
    7MOL   C477 5049   0.009   4.926   6.591 -0.2278  0.2342  0.4765
    7MOL   H478 5050   0.014   5.148   6.062  2.1281  0.6058  0.3240
    7MOL   H479 5051   0.104   5.067   6.190  2.7955 -0.9668  0.0237
    7MOL   H480 5052   0.230   4.933   6.047  0.4780 -0.7621 -2.4308
    7MOL   H481 5053   0.229   5.101   5.984  1.5452 -1.5105  0.0783
    7MOL   H482 5054   0.053   5.032   5.811 -0.9126 -0.1874  1.2856
    7MOL   H483 5055   0.301   4.836   5.823  0.3092  1.0359  1.1645
    7MOL   H484 5056   0.306   4.998   5.780  0.8599  0.0175 -1.8766
    7MOL   H485 5057   0.067   4.756   5.948 -0.5689 -0.0358 -0.1738
    7MOL   H486 5058   8.018   4.786   5.797 -1.1423  2.5293 -0.2279
    7MOL   H487 5059   7.870   4.946   5.923 -0.9233  1.1363  2.0510
    7MOL   H488 5060   7.881   4.786   6.000 -0.6383  0.3781  0.0120
    7MOL   H489 5061   0.010   4.850   6.157  0.5482  0.0119 -0.1007
    7MOL   H490 5062   7.799   4.915   6.214 -0.4978  0.3135  0.5758
    7MOL   H491 5063   7.842   5.081   6.178 -1.0689 -0.1511 -0.8503
    7MOL   H492 5064   7.705   4.924   6.666 -0.0298 -1.5039  1.7231
    7MOL   H493 5065   7.781   4.843   6.868 -0.3541  0.6006  1.1243
    7MOL   H494 5066   0.161   4.875   6.736  0.1633  0.3744  0.7436
    7MOL   H495 5067   0.075   4.938   6.506 -0.7791 -0.0023  0.0113
    7MOL   C496 5068   0.606   4.586   6.999  0.0456  0.1603 -0.0826
    7MOL   C497 5069   0.461   4.570   7.043 -0.0589 -0.1366 -0.2078
    7MOL   C498 5070   0.382   4.696   7.016 -0.0894  0.0661  0.2479
    7MOL   C499 5071   0.229   4.683   7.035 -0.0333 -0.2658 -0.3468
    7MOL   C500 5072   0.448   4.818   7.081  0.2747  0.7389  0.0734
    7MOL   C501 5073   0.599   4.841   7.038  0.4525  0.5081 -0.1893
    7MOL   C502 5074   0.674   4.715   7.069  0.3538  0.6552  0.5552
    7MOL   C503 5075   0.827   4.737   7.044 -0.1507  0.1053  1.1486
    7MOL   O504 5076   0.858   4.740   6.905  0.0116  0.5623  0.3406
    7MOL   C505 5077   0.865   4.857   6.841  0.1973  0.6285  0.0896
    7MOL   O506 5078   0.849   4.967   6.891  0.0912 -0.1259 -0.4839
    7MOL   C507 5079   0.885   4.853   6.696  0.3864 -0.5581  0.1243
    7MOL   C508 5080   0.865   4.970   6.619  0.0113 -0.7583  0.7308
    7MOL   C509 5081   0.854   4.963   6.482 -0.0902  0.0055 -0.4775
    7MOL   C510 5082   0.877   4.840   6.413 -0.0343  0.1361  0.5051
    7MOL   C511 5083   0.853   4.838   6.266  0.3107  0.4148 -0.2248
    7MOL   O512 5084   0.808   4.934   6.194  0.0257 -0.0604  0.2322
    7MOL   O513 5085   0.879   4.720   6.214 -0.4453  0.5237  0.8540
    7MOL   C514 5086   0.895   4.719   6.486 -0.2775 -0.1090  1.2687
    7MOL   C515 5087   0.902   4.731   6.629  0.2247  0.3628  0.3855
    7MOL   H516 5088   0.619   4.602   6.892  1.3172  1.5585  0.2680
    7MOL   H517 5089   0.673   4.504   7.024 -0.6862  0.2589  2.3978
    7MOL   H518 5090   0.465   4.553   7.150  3.0837  0.2501 -0.2147
    7MOL   H519 5091   0.414   4.480   7.004 -1.0771  0.6154 -0.7438
    7MOL   H520 5092   0.388   4.698   6.907 -1.9137  1.1301  0.1423
    7MOL   H521 5093   0.198   4.715   7.135  1.3895 -0.1054  0.0577
    7MOL   H522 5094   0.198   4.579   7.026 -0.1509 -0.0926 -2.0903
    7MOL   H523 5095   0.438   4.808   7.189  0.3399 -0.4529 -0.0301
    7MOL   H524 5096   0.393   4.907   7.051 -0.3472  1.5933  3.5841
    7MOL   H525 5097   0.618   4.873   6.936 -0.9822  1.4045 -0.1933
    7MOL   H526 5098   0.648   4.925   7.087 -0.2870  1.4882 -1.1150
    7MOL   H527 5099   0.670   4.687   7.175 -2.1373 -1.9887 -0.1661
    7MOL   H528 5100   0.887   4.657   7.087 -0.3003 -0.1653  0.8637
    7MOL   H529 5101   0.847   4.832   7.093  1.5673  0.8067 -0.8189
    7MOL   H530 5102   0.858   5.069   6.660 -2.1490 -0.3143 -0.6382
    7MOL   H531 5103   0.838   5.062   6.442 -0.2593  0.1817  0.0171
    7MOL   H532 5104   0.921   4.626   6.439 -1.0422  0.3464 -0.0711
    7MOL   H533 5105   0.932   4.640   6.680  0.8603 -1.0567 -2.4260
    7MOL   C534 5106   1.114   4.681   5.778  0.2301  0.2825  0.5790
    7MOL   C535 5107   0.978   4.695   5.850 -0.6411 -0.5607  0.6511
    7MOL   C536 5108   1.005   4.696   5.999  1.1446 -0.9164  0.2381
    7MOL   C537 5109   0.870   4.696   6.074  0.4966  0.4049 -0.3736
    7MOL   C538 5110   1.086   4.578   6.042  0.9608  0.0199 -1.0123
    7MOL   C539 5111   1.220   4.562   5.973 -0.4183 -0.1901 -0.1159
    7MOL   C540 5112   1.187   4.550   5.818  0.0968 -0.6752  0.2019
    7MOL   C541 5113   1.309   4.515   5.734 -0.5255  1.0368  0.6177
    7MOL   O542 5114   1.398   4.623   5.721  0.0238  0.2655 -0.3028
    7MOL   C543 5115   1.408   4.696   5.601 -0.2986 -0.5966 -0.1633
    7MOL   O544 5116   1.344   4.663   5.500  0.3275  0.5104  0.0396
    7MOL   C545 5117   1.505   4.809   5.605  0.3781 -0.0388  0.4760
    7MOL   C546 5118   1.543   4.874   5.490 -0.7894  0.0527 -0.2034
    7MOL   C547 5119   1.637   4.981   5.488 -0.3490  0.6044 -1.3295
    7MOL   C548 5120   1.698   5.019   5.613  0.3944  0.7844  0.4675
    7MOL   C549 5121   1.802   5.128   5.613  0.1140 -0.2360  0.5846
    7MOL   O550 5122   1.854   5.175   5.513 -0.4303  1.2540  0.2420
    7MOL   O551 5123   1.823   5.182   5.736  0.0411 -0.2160  0.0446
    7MOL   C552 5124   1.656   4.956   5.730 -0.1934 -0.4609 -0.2988
    7MOL   C553 5125   1.567   4.847   5.728 -0.0829 -0.3763 -0.7726
    7MOL   H554 5126   1.180   4.765   5.798 -0.7010  0.8090  1.4697
    7MOL   H555 5127   1.109   4.675   5.669  4.3209 -1.7462  0.4301
    7MOL   H556 5128   0.909   4.613   5.828  0.7428 -1.8018  0.8268
    7MOL   H557 5129   0.924   4.783   5.816 -0.5494 -0.7221  0.0707
    7MOL   H558 5130   1.061   4.787   6.021 -0.8864  0.7925 -1.4911
    7MOL   H559 5131   0.834   4.594   6.056  1.8764 -0.2452  0.5299
    7MOL   H560 5132   0.801   4.762   6.020  0.4366  1.2557  0.7442
    7MOL   H561 5133   1.035   4.482   6.053 -0.0917  0.6223 -0.6509
    7MOL   H562 5134   1.106   4.602   6.146 -1.2647 -2.5579  0.0700
    7MOL   H563 5135   1.279   4.649   6.000 -1.5522  0.0082  1.8540
    7MOL   H564 5136   1.282   4.481   6.010  1.0717  1.3858  0.8863
    7MOL   H565 5137   1.118   4.466   5.809  0.1915 -0.5609 -2.0957
    7MOL   H566 5138   1.279   4.484   5.634  1.5848 -1.3320  0.6714
    7MOL   H567 5139   1.362   4.429   5.775 -0.8023  0.2849 -0.5765
    7MOL   H568 5140   1.515   4.837   5.393  1.1955  1.8422 -1.4889
    7MOL   H569 5141   1.669   5.026   5.395  1.7254 -1.6611 -1.7872
    7MOL   H570 5142   1.710   4.991   5.817 -0.2038  2.8797 -1.5697
    7MOL   H571 5143   1.554   4.789   5.818  0.1683  2.2866  1.0536
    7MOL   C572 5144   1.611   5.556   5.687  0.2852  0.0749 -0.5358
    7MOL   C573 5145   1.708   5.435   5.664  0.0717  0.2084 -0.3905
    7MOL   C574 5146   1.806   5.423   5.782 -0.1812  0.3988 -0.9404
    7MOL   C575 5147   1.898   5.303   5.752  0.4136 -0.6111 -0.0701
    7MOL   C576 5148   1.885   5.549   5.797 -0.4551  0.1036 -0.2089
    7MOL   C577 5149   1.792   5.663   5.834 -0.0045 -0.7837  0.0308
    7MOL   C578 5150   1.682   5.680   5.728  0.1984 -0.3202  0.1377
    7MOL   C579 5151   1.586   5.790   5.765  0.3351 -0.6525  0.2073
    7MOL   O580 5152   1.482   5.820   5.669 -0.5188 -0.0819 -0.5036
    7MOL   C581 5153   1.460   5.948   5.617  0.1392 -0.9258 -0.1357
    7MOL   O582 5154   1.544   6.037   5.633 -0.5298  0.0513 -0.4686
    7MOL   C583 5155   1.329   5.968   5.558  0.1945  0.3287  0.2535
    7MOL   C584 5156   1.283   6.098   5.531 -0.1158 -0.4165  0.2603
    7MOL   C585 5157   1.160   6.120   5.463 -0.3946 -0.0185 -0.0429
    7MOL   C586 5158   1.095   6.006   5.413 -0.2011  0.0567  0.6337
    7MOL   C587 5159   0.980   6.018   5.321 -0.6126 -0.2020  0.2746
    7MOL   O588 5160   0.883   5.940   5.327 -0.0461  0.7343  0.3829
    7MOL   O589 5161   0.997   6.133   5.255  0.5987  0.2811 -0.7650
    7MOL   C590 5162   1.138   5.876   5.446  0.4447 -0.0425  0.0365
    7MOL   C591 5163   1.256   5.855   5.518 -1.0372 -0.2662  0.1655
    7MOL   H592 5164   1.539   5.522   5.760  0.8628 -0.8579 -0.3977
    7MOL   H593 5165   1.550   5.562   5.596 -1.5348  1.4525  0.7374
    7MOL   H594 5166   1.748   5.455   5.565  0.8013  0.6366 -0.0087
    7MOL   H595 5167   1.643   5.349   5.649  0.6134 -0.7177  2.4064
    7MOL   H596 5168   1.751   5.404   5.875 -1.5352  3.6691 -0.9820
    7MOL   H597 5169   1.971   5.294   5.832  0.2306 -1.7169 -0.0153
    7MOL   H598 5170   1.954   5.328   5.662  0.5813  3.6623  1.1470
    7MOL   H599 5171   1.932   5.572   5.700  2.3399  0.4035  1.1531
    7MOL   H600 5172   1.974   5.542   5.859 -0.1231  1.9608 -0.4502
    7MOL   H601 5173   1.735   5.634   5.922 -0.4884 -2.2479 -0.7420
    7MOL   H602 5174   1.842   5.759   5.850  1.1295 -1.1966 -0.9707
    7MOL   H603 5175   1.733   5.710   5.636 -0.2785 -1.3881 -0.4825
    7MOL   H604 5176   1.650   5.877   5.779 -0.4825 -0.0905  0.5184
    7MOL   H605 5177   1.541   5.771   5.862 -1.7809  0.6805 -0.4572
    7MOL   H606 5178   1.336   6.184   5.570  1.3563 -2.4797  2.9284
    7MOL   H607 5179   1.132   6.223   5.445 -1.0573 -0.2603 -0.4303
    7MOL   H608 5180   1.090   5.787   5.408  1.2711 -1.7844  2.8786
    7MOL   H609 5181   1.295   5.755   5.514 -2.1335 -0.6206 -3.0534
    7MOL   C610 5182   0.850   6.534   4.987  0.5400 -0.1239 -0.7706
    7MOL   C611 5183   0.814   6.393   5.040  0.1978 -0.6591  0.3101
    7MOL   C612 5184   0.934   6.322   5.106 -0.3773  0.0532  0.6351
    7MOL   C613 5185   0.907   6.179   5.161  0.7221  0.4656  0.0759
    7MOL   C614 5186   1.066   6.327   5.021 -0.0678 -0.0694 -0.2658
    7MOL   C615 5187   1.086   6.467   4.963 -0.6779  0.5570  0.4614
    7MOL   C616 5188   0.968   6.525   4.891 -0.2255  0.4922  0.0336
    7MOL   C617 5189   0.987   6.667   4.838 -0.7038  0.6381 -0.3212
    7MOL   O618 5190   1.087   6.657   4.743 -0.4596  0.5887  0.1987
    7MOL   C619 5191   1.119   6.767   4.665  0.2010 -0.2559  0.2509
    7MOL   O620 5192   1.077   6.880   4.690  0.1465 -0.2850  0.2293
    7MOL   C621 5193   1.204   6.741   4.551  0.0704  0.3933  0.0445
    7MOL   C622 5194   1.259   6.851   4.483 -0.1879 -0.0236  0.4987
    7MOL   C623 5195   1.324   6.835   4.360 -0.5968  0.1014 -0.0730
    7MOL   C624 5196   1.340   6.707   4.302 -0.5062  0.4236 -0.3400
    7MOL   C625 5197   1.397   6.690   4.164 -0.2450 -0.3120 -0.7109
    7MOL   O626 5198   1.418   6.584   4.107  0.6093 -0.4558  0.2430
    7MOL   O627 5199   1.407   6.812   4.097  0.1845 -0.8925  0.0058
    7MOL   C628 5200   1.295   6.591   4.376  0.5564 -0.2159  0.5248
    7MOL   C629 5201   1.225   6.611   4.501  0.4735 -0.4291  0.3719
    7MOL   H630 5202   0.880   6.611   5.057  0.2805 -1.5451  0.9543
    7MOL   H631 5203   0.764   6.570   4.930 -0.3660 -1.0226 -0.0147
    7MOL   H632 5204   0.771   6.325   4.967  0.0943  1.4425 -1.6871
    7MOL   H633 5205   0.733   6.402   5.112  1.0036  2.5441  0.9241
    7MOL   H634 5206   0.975   6.374   5.193 -0.5623  1.1643  0.0722
    7MOL   H635 5207   0.914   6.114   5.074  0.7150 -2.3763  2.1197
    7MOL   H636 5208   0.804   6.155   5.188  1.5202 -4.1343 -0.4720
    7MOL   H637 5209   1.055   6.255   4.940  0.0273 -0.1238 -0.2297
    7MOL   H638 5210   1.151   6.296   5.081  0.3700  0.3035 -0.6913
    7MOL   H639 5211   1.133   6.534   5.035  0.4654  1.4518 -1.0746
    7MOL   H640 5212   1.160   6.466   4.883 -0.9005 -0.1813  0.2637
    7MOL   H641 5213   0.940   6.460   4.808 -0.6197  0.2708  0.3358
    7MOL   H642 5214   1.042   6.735   4.903  0.1612  1.6742 -2.1081
    7MOL   H643 5215   0.895   6.715   4.805  0.5636  3.2328 -0.1778
    7MOL   H644 5216   1.259   6.946   4.535  0.3883 -0.1526  0.7371
    7MOL   H645 5217   1.359   6.923   4.308 -0.1025 -0.2561 -0.3400
    7MOL   H646 5218   1.305   6.496   4.327  1.3843 -1.1924  2.5537
    7MOL   H647 5219   1.199   6.522   4.556  0.5646 -0.6229  0.1063
    7MOL   C648 5220   1.782   6.949   3.843  0.1134  0.2629  0.1475
    7MOL   C649 5221   1.630   6.936   3.872  0.4900  0.0315 -0.9327
    7MOL   C650 5222   1.588   6.804   3.933  0.4527  0.1163 -0.4796
    7MOL   C651 5223   1.439   6.807   3.966 -0.3743  0.8966  0.1706
    7MOL   C652 5224   1.623   6.701   3.822 -0.0438  0.0943  0.5920
    7MOL   C653 5225   1.774   6.701   3.791  0.3434  0.3175 -0.4690
    7MOL   C654 5226   1.835   6.833   3.754 -0.1815  0.4841 -0.0342
    7MOL   C655 5227   1.992   6.822   3.757  0.4338 -0.2301 -0.0529
    7MOL   O656 5228   2.037   6.800   3.893  0.1405  0.2863 -0.1269
    7MOL   C657 5229   2.147   6.857   3.929  0.2848 -0.0713  0.5675
    7MOL   O658 5230   2.230   6.880   3.844  0.5363  0.0461 -0.0785
    7MOL   C659 5231   2.154   6.869   4.076 -0.5603 -0.5873 -0.7841
    7MOL   C660 5232   2.271   6.922   4.139  0.2069  0.1494  0.0457
    7MOL   C661 5233   2.281   6.932   4.279  0.1884  0.4621 -0.1166
    7MOL   C662 5234   2.175   6.894   4.363  0.1722 -0.5973  0.4831
    7MOL   C663 5235   2.198   6.896   4.509 -0.0312 -0.3230  0.4585
    7MOL   O664 5236   2.315   6.910   4.552  0.5230 -0.4424  0.2865
    7MOL   O665 5237   2.083   6.863   4.581  0.0759  0.5224  0.1074
    7MOL   C666 5238   2.051   6.863   4.302  0.6436 -0.2527 -0.3689
    7MOL   C667 5239   2.045   6.842   4.165  0.1670  0.3955 -0.1812
    7MOL   H668 5240   1.837   6.971   3.934  1.1885  1.2376 -0.7262
    7MOL   H669 5241   1.803   7.039   3.786  1.8100 -1.1901 -1.6415
    7MOL   H670 5242   1.574   6.958   3.781  0.9041 -0.5752 -1.3497
    7MOL   H671 5243   1.602   7.022   3.932  1.6804  0.2520 -0.6757
    7MOL   H672 5244   1.644   6.795   4.026  0.8939 -1.8407 -0.9154
    7MOL   H673 5245   1.393   6.728   3.906 -1.5141  1.6941 -0.0280
    7MOL   H674 5246   1.401   6.890   3.906  2.0727  0.4724 -2.0560
    7MOL   H675 5247   1.568   6.710   3.728 -0.2933  0.6462  0.7879
    7MOL   H676 5248   1.597   6.598   3.848 -2.0600  0.7438  1.1844
    7MOL   H677 5249   1.814   6.660   3.883 -1.8421 -1.1276 -0.1153
    7MOL   H678 5250   1.797   6.612   3.732  0.4240  1.3769 -2.0717
    7MOL   H679 5251   1.809   6.847   3.649 -0.3806 -0.3316 -0.1028
    7MOL   H680 5252   2.028   6.920   3.724 -0.0339 -0.6297 -1.7709
    7MOL   H681 5253   2.029   6.740   3.697 -0.3501  0.2030 -1.1502
    7MOL   H682 5254   2.356   6.929   4.073  1.1889  1.2451  1.4002
    7MOL   H683 5255   2.372   6.961   4.329  0.7341 -0.4324 -0.5825
    7MOL   H684 5256   1.958   6.845   4.354  0.7738  1.2978  0.4248
    7MOL   H685 5257   1.955   6.790   4.134  1.9282 -1.0312 -3.1580
    7MOL   C686 5258   1.931   6.469   4.646  0.2964 -1.0273  0.0936
    7MOL   C687 5259   1.942   6.620   4.660  0.3666 -0.3977 -0.1863
    7MOL   C688 5260   2.079   6.663   4.708 -0.5752 -0.4143  0.5408
    7MOL   C689 5261   2.096   6.813   4.709  0.0584 -1.2908 -0.1243
    7MOL   C690 5262   2.116   6.593   4.839 -0.3849 -0.6924  0.0870
    7MOL   C691 5263   2.106   6.442   4.828 -0.4100  0.4990  0.1517
    7MOL   C692 5264   1.970   6.400   4.778 -0.7356  0.8032  0.4723
    7MOL   C693 5265   1.967   6.244   4.763 -0.3059 -0.0144 -0.4343
    7MOL   O694 5266   2.058   6.190   4.672 -0.1236 -0.0890 -0.5979
    7MOL   C695 5267   2.010   6.163   4.542  0.4719  0.0962 -0.2178
    7MOL   O696 5268   1.889   6.172   4.510  0.5018  0.2602  0.1922
    7MOL   C697 5269   2.123   6.126   4.441 -0.1586 -1.2388 -0.6169
    7MOL   C698 5270   2.252   6.086   4.486 -0.4060 -0.2895  0.1395
    7MOL   C699 5271   2.357   6.091   4.394 -0.7085 -0.6456 -1.1207
    7MOL   C700 5272   2.340   6.138   4.258 -0.1150  0.2832 -0.0270
    7MOL   C701 5273   2.457   6.145   4.168 -0.0550  0.0720 -0.5574
    7MOL   O702 5274   2.571   6.166   4.212 -0.1639 -0.0322  0.8597
    7MOL   O703 5275   2.428   6.121   4.036 -0.0214 -0.4209 -0.1919
    7MOL   C704 5276   2.206   6.158   4.212 -0.1280  0.2061  0.4894
    7MOL   C705 5277   2.104   6.165   4.306  0.3708  0.5061 -0.1439
    7MOL   H706 5278   1.995   6.446   4.561 -2.9788 -2.8653 -1.9876
    7MOL   H707 5279   1.831   6.444   4.611  1.3607 -0.9837 -3.1589
    7MOL   H708 5280   1.865   6.659   4.727  1.3976  0.4796  0.5095
    7MOL   H709 5281   1.923   6.662   4.561  0.6523  2.0876  0.7594
    7MOL   H710 5282   2.157   6.622   4.643  0.2101  0.7084  0.7697
    7MOL   H711 5283   2.187   6.846   4.759 -0.9381  2.2128 -0.5128
    7MOL   H712 5284   2.015   6.850   4.771 -0.4820 -0.7757 -1.1299
    7MOL   H713 5285   2.052   6.616   4.924 -0.0751  0.5095  0.0173
    7MOL   H714 5286   2.219   6.621   4.860 -0.7107  2.7324 -2.3711
    7MOL   H715 5287   2.173   6.400   4.753 -0.3432 -0.2105  0.6021
    7MOL   H716 5288   2.126   6.386   4.919  0.1974  0.3295 -0.0846
    7MOL   H717 5289   1.897   6.439   4.848  1.0111  1.9579  1.6780
    7MOL   H718 5290   1.866   6.213   4.736 -0.9514 -1.3951  3.1912
    7MOL   H719 5291   1.979   6.197   4.861 -0.0202 -0.3349 -0.6223
    7MOL   H720 5292   2.281   6.069   4.589 -3.5136  0.9811  1.2785
    7MOL   H721 5293   2.452   6.072   4.441 -0.8217  1.2985 -0.0710
    7MOL   H722 5294   2.186   6.178   4.108 -1.5689  0.5221  0.8275
    7MOL   H723 5295   2.010   6.193   4.261  1.7437  1.6189 -2.4153
    7MOL   C724 5296   2.466   6.386   3.627 -0.5064  0.2053 -0.0958
    7MOL   C725 5297   2.526   6.272   3.705  0.4366  0.2726  0.1088
    7MOL   C726 5298   2.473   6.266   3.854 -0.7538  0.5343 -0.1143
    7MOL   C727 5299   2.527   6.146   3.935  0.0010 -0.1480 -0.0027
    7MOL   C728 5300   2.499   6.404   3.917 -0.4083  0.0311  0.2900
    7MOL   C729 5301   2.433   6.522   3.838  0.4849 -0.7059 -0.8720
    7MOL   C730 5302   2.478   6.520   3.695  0.3868 -0.1270  0.0715
    7MOL   C731 5303   2.419   6.630   3.607 -0.2670  0.0649 -0.0875
    7MOL   O732 5304   2.278   6.616   3.606  0.0887 -0.2029 -0.3493
    7MOL   C733 5305   2.212   6.646   3.483 -0.1968  0.1778 -0.3606
    7MOL   O734 5306   2.262   6.721   3.404  0.0289 -0.1761 -0.4991
    7MOL   C735 5307   2.077   6.583   3.471  0.0646  0.2195  0.3270
    7MOL   C736 5308   1.994   6.606   3.357 -0.1956 -0.0947  0.1649
    7MOL   C737 5309   1.874   6.536   3.346 -0.2855 -0.4269  0.1779
    7MOL   C738 5310   1.844   6.429   3.430 -0.5626 -0.0679 -0.2777
    7MOL   C739 5311   1.725   6.340   3.401 -0.2797  0.4932  0.0912
    7MOL   O740 5312   1.634   6.366   3.323  0.7543 -0.0366  0.2264
    7MOL   O741 5313   1.725   6.220   3.468  0.4419  0.0127  0.0772
    7MOL   C742 5314   1.928   6.401   3.538  0.1218 -0.4414 -0.0980
    7MOL   C743 5315   2.044   6.476   3.564 -0.2375 -0.3498  0.4632
    7MOL   H744 5316   2.364   6.370   3.593 -0.1786 -0.6180 -0.7193
    7MOL   H745 5317   2.534   6.379   3.541 -1.2944 -0.3674 -0.6736
    7MOL   H746 5318   2.634   6.272   3.696  0.3571 -1.9784 -1.2627
    7MOL   H747 5319   2.501   6.184   3.645  0.2628 -0.1414  0.7725
    7MOL   H748 5320   2.365   6.260   3.839 -0.6021 -0.5486 -0.8626
    7MOL   H749 5321   2.631   6.148   3.968  0.3442 -4.2108 -0.6060
    7MOL   H750 5322   2.511   6.056   3.875 -0.9193  0.8583 -1.3096
    7MOL   H751 5323   2.608   6.411   3.923 -0.6164  3.5680  1.1850
    7MOL   H752 5324   2.453   6.413   4.016 -1.4169  0.9293 -0.2541
    7MOL   H753 5325   2.324   6.517   3.835  0.5431 -1.0235 -2.5379
    7MOL   H754 5326   2.455   6.608   3.901 -1.0203 -1.6491  1.0150
    7MOL   H755 5327   2.585   6.541   3.697  0.4986 -0.7263  1.5985
    7MOL   H756 5328   2.452   6.607   3.506  1.5284 -0.8061  0.6841
    7MOL   H757 5329   2.446   6.728   3.648  0.9264  0.0814 -0.9079
    7MOL   H758 5330   2.024   6.686   3.291 -0.0549 -0.5428 -0.3209
    7MOL   H759 5331   1.812   6.563   3.262 -1.4195  0.5509  1.2960
    7MOL   H760 5332   1.902   6.316   3.600  1.0185 -0.9445 -0.3989
    7MOL   H761 5333   2.109   6.455   3.648 -0.4897 -0.5938  0.6013
    7MOL   H762 5334   1.658   6.166   3.430 -0.3418  1.7640 -1.0812
    8MOL     C1 5335   7.387   5.183   5.798  0.6594 -0.3573  0.5204
    8MOL     C2 5336   7.308   5.309   5.752  0.1454 -0.2740 -0.2732
    8MOL     C3 5337   7.373   5.378   5.631 -0.1387  0.4116  0.4264
    8MOL     C4 5338   7.311   5.515   5.608  0.4264 -0.4450  0.8178
    8MOL     C5 5339   7.523   5.409   5.652 -0.0130 -0.8152 -0.6355
    8MOL     C6 5340   7.590   5.274   5.678 -0.3342 -0.8185 -0.0401
    8MOL     C7 5341   7.538   5.215   5.808  0.8599 -0.2409 -0.8877
    8MOL     C8 5342   7.610   5.090   5.863 -0.1080  0.4185 -0.9570
    8MOL     O9 5343   7.604   4.974   5.794  0.3804  0.9867 -0.1708
    8MOL    C10 5344   7.689   4.943   5.694 -0.6018  0.0112  0.1861
    8MOL    O11 5345   7.792   5.010   5.672 -0.1412  0.3588  0.0814
    8MOL    C12 5346   7.651   4.812   5.634 -0.2464  0.7577 -0.4442
    8MOL    C13 5347   7.736   4.740   5.544  0.8718 -0.0115 -0.5918
    8MOL    C14 5348   7.709   4.605   5.514 -0.7151 -0.1278  0.0525
    8MOL    C15 5349   7.590   4.539   5.549  0.1892 -0.0243  0.0471
    8MOL    C16 5350   7.564   4.395   5.503  0.5080 -0.1410  0.4575
    8MOL    O17 5351   7.651   4.318   5.456 -0.3816 -0.0852 -0.2980
    8MOL    O18 5352   7.434   4.369   5.521 -0.9270 -0.4311  0.0821
    8MOL    C19 5353   7.500   4.613   5.631  0.0560  0.0538  0.3173
    8MOL    C20 5354   7.522   4.748   5.677  0.2130 -0.0363  0.0591
    8MOL    H21 5355   7.370   5.095   5.736 -0.9446 -0.5224  1.1493
    8MOL    H22 5356   7.347   5.142   5.891 -0.9645  0.3406  0.1444
    8MOL    H23 5357   7.295   5.382   5.831  0.9549  0.4782 -0.8229
    8MOL    H24 5358   7.212   5.270   5.718  0.3083 -1.7300  0.8836
    8MOL    H25 5359   7.349   5.320   5.541  1.0721 -0.7267  0.8324
    8MOL    H26 5360   7.202   5.507   5.611  0.3243 -0.2019 -1.4312
    8MOL    H27 5361   7.336   5.565   5.514  1.2411  1.3494  1.9740
    8MOL    H28 5362   7.536   5.479   5.735 -1.0968 -1.8387  0.4112
    8MOL    H29 5363   7.565   5.462   5.567 -0.4885 -1.8365 -1.5123
    8MOL    H30 5364   7.571   5.208   5.594  1.1408 -0.4889 -0.6571
    8MOL    H31 5365   7.696   5.291   5.695 -0.4613  2.0423 -1.7573
    8MOL    H32 5366   7.548   5.291   5.886  1.1103 -0.1457 -1.0130
    8MOL    H33 5367   7.564   5.061   5.957 -0.3816 -0.3351 -1.3187
    8MOL    H34 5368   7.715   5.111   5.886  0.6570 -1.1289 -2.9110
    8MOL    H35 5369   7.824   4.792   5.508  1.0975  0.3192  0.3988
    8MOL    H36 5370   7.784   4.554   5.455  0.7025  3.1690 -1.1850
    8MOL    H37 5371   7.409   4.561   5.660  0.3279  0.0082  1.1188
    8MOL    H38 5372   7.449   4.799   5.738  1.5569  1.9926  0.0299
    8MOL    H39 5373   7.347   5.589   5.678  0.8517  0.5757 -0.4662
    8MOL    C40 5374   7.123   4.225   5.786  0.0863  0.1773  0.6475
    8MOL    C41 5375   7.254   4.229   5.711  0.1684 -0.5172 -0.5590
    8MOL    C42 5376   7.243   4.216   5.560 -0.4349  0.2299  0.0375
    8MOL    C43 5377   7.383   4.236   5.499  0.6776  0.4665 -0.0886
    8MOL    C44 5378   7.181   4.081   5.522  1.4017  0.1718  0.1337
    8MOL    C45 5379   7.049   4.067   5.599  0.2453 -0.4448 -0.2219
    8MOL    C46 5380   7.045   4.094   5.754 -0.3536 -0.3298  0.6260
    8MOL    C47 5381   6.907   4.094   5.820  0.0004 -0.0476  0.0058
    8MOL    O48 5382   6.856   3.961   5.841  0.2135 -0.3704 -0.1455
    8MOL    C49 5383   6.741   3.938   5.908 -0.8057 -0.0214  0.8395
    8MOL    O50 5384   6.687   4.027   5.964  0.0480 -0.1016  0.2398
    8MOL    C51 5385   6.706   3.791   5.916 -0.4204  0.4681  0.3654
    8MOL    C52 5386   6.791   3.697   5.857 -0.5330  0.7596  0.2672
    8MOL    C53 5387   6.752   3.562   5.848 -0.2017 -0.5535  0.3398
    8MOL    C54 5388   6.624   3.520   5.890  0.0024  0.3288 -0.2509
    8MOL    C55 5389   6.582   3.373   5.877 -0.5832 -0.0261  0.3442
    8MOL    O56 5390   6.655   3.278   5.839  0.1188  0.0295 -0.4654
    8MOL    O57 5391   6.459   3.349   5.908 -0.1369 -0.3037  0.4197
    8MOL    C58 5392   6.538   3.619   5.947 -0.0223  0.2148 -0.4066
    8MOL    C59 5393   6.581   3.752   5.963 -0.0260  0.0392 -0.0939
    8MOL    H60 5394   7.064   4.314   5.764  0.4188 -0.1684 -1.7698
    8MOL    H61 5395   7.129   4.242   5.893 -0.4734  2.4211  0.3694
    8MOL    H62 5396   7.310   4.143   5.749 -0.7468 -1.0204 -0.3311
    8MOL    H63 5397   7.315   4.311   5.748 -1.3634  0.2969  0.1825
    8MOL    H64 5398   7.182   4.297   5.520 -1.1816 -0.2692  0.1780
    8MOL    H65 5399   7.386   4.211   5.393 -0.9150 -1.4128  0.2854
    8MOL    H66 5400   7.448   4.164   5.549  0.9509  0.4242 -0.5018
    8MOL    H67 5401   7.244   3.998   5.555  1.9466  0.3275 -0.4926
    8MOL    H68 5402   7.160   4.061   5.417  0.4844 -1.5671  0.6309
    8MOL    H69 5403   6.979   4.139   5.556  0.5302 -0.7845 -1.2735
    8MOL    H70 5404   6.993   3.975   5.582  0.2894 -0.5262  0.0732
    8MOL    H71 5405   7.101   4.008   5.793  0.1724 -0.0976  0.3929
    8MOL    H72 5406   6.835   4.152   5.763  2.1408  3.6516  0.9458
    8MOL    H73 5407   6.915   4.140   5.918  1.5806  0.3316 -0.2864
    8MOL    H74 5408   6.891   3.727   5.829 -0.8626  3.1063  1.4363
    8MOL    H75 5409   6.823   3.486   5.818  0.1637 -0.2728  0.4915
    8MOL    H76 5410   6.432   3.604   5.964 -0.4910  0.2052 -3.1270
    8MOL    H77 5411   6.508   3.829   5.987  2.8588  2.9838 -0.4618
    8MOL    C78 5412   6.143   3.209   6.212 -0.0119  0.2407  0.1456
    8MOL    C79 5413   6.287   3.222   6.150 -0.1500 -0.0373 -0.0335
    8MOL    C80 5414   6.282   3.194   6.002  0.2204 -0.6917 -0.5048
    8MOL    C81 5415   6.412   3.214   5.932 -0.5948 -0.3026 -0.1179
    8MOL    C82 5416   6.224   3.051   5.966  0.5078  0.2908 -0.1626
    8MOL    C83 5417   6.087   3.032   6.036 -0.4854  0.2200 -0.1539
    8MOL    C84 5418   6.088   3.065   6.185 -0.2170  0.1777 -0.0928
    8MOL    C85 5419   5.958   3.021   6.256  0.1800  0.3007  0.0523
    8MOL    O86 5420   5.849   3.088   6.192  1.1323 -0.1813  0.4499
    8MOL    C87 5421   5.777   3.036   6.096  0.0599  0.1088 -0.0090
    8MOL    O88 5422   5.761   2.919   6.087  0.0914  0.4210  0.2737
    8MOL    C89 5423   5.710   3.130   6.002 -0.4615  0.3402  0.5772
    8MOL    C90 5424   5.737   3.268   6.003  0.5766 -0.2231 -0.1378
    8MOL    C91 5425   5.671   3.359   5.913 -0.4081  0.6072 -0.0832
    8MOL    C92 5426   5.565   3.307   5.833 -0.5893 -0.1092  0.7411
    8MOL    C93 5427   5.478   3.394   5.746 -0.0705  0.0269  0.4077
    8MOL    O94 5428   5.405   3.353   5.656  0.0403  0.2848 -0.3253
    8MOL    O95 5429   5.494   3.522   5.772 -0.3015  0.3859  0.6338
    8MOL    C96 5430   5.540   3.166   5.831  0.8247  0.3493 -0.1577
    8MOL    C97 5431   5.608   3.082   5.918  0.3007 -0.4680  0.0621
    8MOL    H98 5432   6.061   3.272   6.177  2.0894  2.4656 -0.8536
    8MOL    H99 5433   6.149   3.236   6.318  2.0008 -2.7342  0.8695
    8MOL   H100 5434   6.370   3.175   6.204 -1.7273 -1.8146  0.9007
    8MOL   H101 5435   6.330   3.322   6.162  2.2089 -1.1028  0.7796
    8MOL   H102 5436   6.210   3.266   5.963  1.2795  1.0672  0.7481
    8MOL   H103 5437   6.395   3.173   5.832  0.8784  0.8126 -0.8368
    8MOL   H104 5438   6.489   3.154   5.981  0.2517  0.0328 -1.0197
    8MOL   H105 5439   6.298   2.974   5.989  0.6094  0.2081 -0.7588
    8MOL   H106 5440   6.205   3.034   5.860  3.5087 -3.1527 -0.2447
    8MOL   H107 5441   6.019   3.087   5.970 -0.2426 -1.6039 -1.9891
    8MOL   H108 5442   6.053   2.929   6.026  0.0629  0.1706 -1.7227
    8MOL   H109 5443   6.162   2.998   6.230 -0.0639  0.9418  0.8136
    8MOL   H110 5444   5.958   3.045   6.362 -1.1281 -0.8235  0.3255
    8MOL   H111 5445   5.940   2.914   6.242  0.2862  0.3424 -0.4113
    8MOL   H112 5446   5.813   3.303   6.072  0.8526 -0.4443 -0.3310
    8MOL   H113 5447   5.703   3.462   5.910 -1.3867  0.9036 -0.8675
    8MOL   H114 5448   5.454   3.127   5.778  0.3253 -0.8556  1.4995
    8MOL   H115 5449   5.569   2.981   5.914  0.8231 -0.6304 -1.2475
    8MOL   C116 5450   5.728   3.867   5.603  0.1798 -0.7791  0.0790
    8MOL   C117 5451   5.642   3.742   5.614  0.1093 -0.1055 -0.8403
    8MOL   C118 5452   5.512   3.755   5.687 -0.4000 -1.1184 -0.2624
    8MOL   C119 5453   5.433   3.624   5.693  0.3673 -0.0433  0.1564
    8MOL   C120 5454   5.538   3.825   5.825  0.1989  0.2525 -0.2937
    8MOL   C121 5455   5.628   3.950   5.821 -0.4737 -0.2135  1.2200
    8MOL   C122 5456   5.752   3.912   5.751  0.4547  0.0830  0.2902
    8MOL   C123 5457   5.848   4.031   5.755 -0.3757  0.4883 -0.3899
    8MOL   O124 5458   5.975   3.987   5.707 -0.6226 -0.1927  0.1290
    8MOL   C125 5459   6.080   4.069   5.720 -0.1554  0.0627  0.6111
    8MOL   O126 5460   6.072   4.188   5.753 -0.2412 -0.1581 -0.3866
    8MOL   C127 5461   6.214   3.993   5.689 -0.0571  0.0882 -0.9494
    8MOL   C128 5462   6.212   3.862   5.638 -0.4184 -0.1591  0.1210
    8MOL   C129 5463   6.330   3.791   5.601 -0.8431 -0.3606  0.0117
    8MOL   C130 5464   6.454   3.857   5.618 -0.1159  0.0821 -0.2142
    8MOL   C131 5465   6.586   3.790   5.584  0.4178 -0.2234  0.3096
    8MOL   O132 5466   6.693   3.850   5.591  0.1756 -0.1787  0.3938
    8MOL   O133 5467   6.568   3.658   5.545  0.2516  0.7914 -0.4097
    8MOL   C134 5468   6.457   3.983   5.677 -0.1465 -0.1548  0.3552
    8MOL   C135 5469   6.340   4.055   5.700 -0.0960  0.5453  0.6231
    8MOL   H136 5470   5.681   3.936   5.533  1.1252  0.3353  0.5289
    8MOL   H137 5471   5.826   3.842   5.563  1.1434  1.1956  1.1439
    8MOL   H138 5472   5.702   3.669   5.670  0.0132  1.3106  1.1438
    8MOL   H139 5473   5.628   3.713   5.510 -0.2457  0.0166 -0.8264
    8MOL   H140 5474   5.455   3.829   5.630  2.1801  1.6954  0.6652
    8MOL   H141 5475   5.406   3.600   5.590  0.1692  0.4424  0.0941
    8MOL   H142 5476   5.329   3.635   5.724 -1.0032 -1.6903 -3.4866
    8MOL   H143 5477   5.586   3.747   5.884 -0.9563 -0.6285 -0.5155
    8MOL   H144 5478   5.448   3.852   5.881  1.3128  2.3140  0.6024
    8MOL   H145 5479   5.588   4.039   5.773  0.1999 -0.1177  0.8289
    8MOL   H146 5480   5.659   3.979   5.922 -0.2035  2.6281  0.3736
    8MOL   H147 5481   5.800   3.833   5.810 -0.9542  0.0112  1.3602
    8MOL   H148 5482   5.869   4.060   5.858 -3.0289 -0.9455  0.6169
    8MOL   H149 5483   5.811   4.110   5.689 -1.2904  0.6213  0.2707
    8MOL   H150 5484   6.118   3.811   5.627  0.5982 -2.3078  1.0155
    8MOL   H151 5485   6.318   3.690   5.566  0.6227 -0.6628  0.3462
    8MOL   H152 5486   6.557   4.024   5.687 -0.1976 -0.0026  0.2373
    8MOL   H153 5487   6.351   4.158   5.731 -0.6284  1.0200 -0.7447
    8MOL   C154 5488   6.693   3.670   5.123 -0.8511 -0.2006  0.4269
    8MOL   C155 5489   6.719   3.679   5.267  0.4786  0.0649 -0.0293
    8MOL   C156 5490   6.672   3.554   5.348 -0.5198  0.2842  0.3689
    8MOL   C157 5491   6.674   3.585   5.498 -0.0756 -0.6719  0.0996
    8MOL   C158 5492   6.527   3.507   5.308 -0.3766 -0.0647  0.2250
    8MOL   C159 5493   6.515   3.507   5.156 -0.1774  0.0179 -0.0796
    8MOL   C160 5494   6.549   3.630   5.084  0.2454 -0.2280 -0.9509
    8MOL   C161 5495   6.515   3.641   4.930 -0.5380 -0.2322 -0.2316
    8MOL   O162 5496   6.380   3.597   4.913 -0.4411  0.1971  0.1332
    8MOL   C163 5497   6.295   3.682   4.856 -0.5580  0.3311 -0.2855
    8MOL   O164 5498   6.333   3.786   4.799  0.0516  0.0308  0.8606
    8MOL   C165 5499   6.155   3.642   4.869  0.0919 -0.3725 -0.7184
    8MOL   C166 5500   6.050   3.707   4.801 -0.2363  0.5660  0.6003
    8MOL   C167 5501   5.920   3.657   4.805  0.3035 -0.2183  0.6655
    8MOL   C168 5502   5.889   3.537   4.870 -0.2957 -0.3216  0.2088
    8MOL   C169 5503   5.751   3.491   4.867  0.0710 -0.1517  0.8791
    8MOL   O170 5504   5.703   3.397   4.928  0.5987 -0.4972  0.3561
    8MOL   O171 5505   5.670   3.559   4.776  0.6893 -0.0544 -0.6768
    8MOL   C172 5506   5.992   3.477   4.943 -0.5724  0.4035  0.5535
    8MOL   C173 5507   6.121   3.524   4.947 -0.1243  0.6659  0.5185
    8MOL   H174 5508   6.765   3.607   5.071 -0.2009  0.3407  0.6648
    8MOL   H175 5509   6.709   3.769   5.081 -1.1166 -0.7871 -1.0776
    8MOL   H176 5510   6.667   3.766   5.307 -1.8322 -1.5245  0.5450
    8MOL   H177 5511   6.824   3.693   5.289  0.4400 -2.4544  1.9104
    8MOL   H178 5512   6.749   3.479   5.329 -0.7221  0.9074 -3.3166
    8MOL   H179 5513   6.770   3.629   5.525 -0.0136 -1.9293  2.0621
    8MOL   H180 5514   6.673   3.489   5.549 -0.9845  0.1664  1.7277
    8MOL   H181 5515   6.457   3.570   5.363  0.8361  1.2164  0.3307
    8MOL   H182 5516   6.517   3.407   5.349  0.9263  0.1400  1.0846
    8MOL   H183 5517   6.575   3.424   5.117 -0.5923 -1.0289  1.4496
    8MOL   H184 5518   6.414   3.485   5.123  0.2154 -0.4738 -0.9887
    8MOL   H185 5519   6.487   3.703   5.137  1.3226 -0.5281  0.7679
    8MOL   H186 5520   6.587   3.577   4.879  1.5333  0.0890  2.2275
    8MOL   H187 5521   6.531   3.741   4.891 -1.0525  0.0111  0.1734
    8MOL   H188 5522   6.067   3.800   4.750  1.8432 -1.8138 -3.2621
    8MOL   H189 5523   5.843   3.714   4.755 -0.3984  1.0413  3.1005
    8MOL   H190 5524   5.979   3.382   4.994  1.1507 -0.6038 -0.8399
    8MOL   H191 5525   6.201   3.470   4.996  0.8474 -1.3417 -3.1206
    8MOL   C192 5526   5.429   3.792   4.496  0.3604  0.2689  0.4066
    8MOL   C193 5527   5.516   3.692   4.564  0.8465  0.6774 -0.9919
    8MOL   C194 5528   5.469   3.649   4.705 -0.1233 -0.6191  0.0275
    8MOL   C195 5529   5.534   3.531   4.777  0.4495 -0.6207  0.2631
    8MOL   C196 5530   5.459   3.781   4.791 -0.0212  0.2594  0.4980
    8MOL   C197 5531   5.382   3.898   4.727  0.3318  0.5354  0.3414
    8MOL   C198 5532   5.433   3.926   4.584  0.4133 -0.3271  0.5640
    8MOL   C199 5533   5.359   4.043   4.518 -0.2741  0.9429 -0.3505
    8MOL   O200 5534   5.226   4.000   4.482 -0.6047  0.0893  0.1196
    8MOL   C201 5535   5.128   4.042   4.561 -0.9152  0.1868 -0.1944
    8MOL   O202 5536   5.140   4.123   4.653  0.5008 -0.4081 -0.0411
    8MOL   C203 5537   4.993   3.997   4.509 -0.1727  0.2843 -0.2434
    8MOL   C204 5538   4.879   4.049   4.571  0.3056 -0.2079  0.2428
    8MOL   C205 5539   4.749   4.019   4.520 -0.2518 -0.2698 -0.2757
    8MOL   C206 5540   4.737   3.943   4.401 -0.0941  0.2354  0.3943
    8MOL   C207 5541   4.598   3.929   4.336  0.3527  0.6706  0.0155
    8MOL   O208 5542   4.510   4.002   4.356  0.0935  0.3825 -0.6032
    8MOL   O209 5543   4.595   3.823   4.259 -0.1011 -0.2955 -0.1565
    8MOL   C210 5544   4.848   3.886   4.336 -0.4807 -0.7855  0.6211
    8MOL   C211 5545   4.981   3.910   4.392 -0.1067 -0.3161  0.1913
    8MOL   H212 5546   5.334   3.743   4.478  0.1391  0.2196  1.6377
    8MOL   H213 5547   5.475   3.811   4.399 -1.5525 -0.9933 -0.7788
    8MOL   H214 5548   5.617   3.734   4.566  0.9973  0.2553  1.5697
    8MOL   H215 5549   5.508   3.600   4.506 -0.2300 -0.4802  0.9510
    8MOL   H216 5550   5.365   3.615   4.710 -0.2332 -0.1982  0.7913
    8MOL   H217 5551   5.508   3.443   4.719 -2.0609 -1.3001  2.3298
    8MOL   H218 5552   5.506   3.524   4.882 -1.0816  2.3487  0.1166
    8MOL   H219 5553   5.558   3.805   4.830 -0.3475  1.9837  0.2960
    8MOL   H220 5554   5.412   3.749   4.885 -1.9833  0.3363 -0.4286
    8MOL   H221 5555   5.279   3.862   4.719  0.8870 -0.4445 -3.2375
    8MOL   H222 5556   5.375   3.987   4.789  1.1533  1.1772 -0.4706
    8MOL   H223 5557   5.531   3.971   4.598  0.2503  1.0540 -2.2431
    8MOL   H224 5558   5.420   4.081   4.435  0.7011 -1.5179 -0.8106
    8MOL   H225 5559   5.365   4.122   4.593 -3.0413 -1.3256  2.3803
    8MOL   H226 5560   4.883   4.105   4.663 -0.6023 -0.3947  0.3977
    8MOL   H227 5561   4.659   4.061   4.562  0.5475  0.0897  1.1164
    8MOL   H228 5562   4.843   3.831   4.243  2.1635 -0.1505  0.0709
    8MOL   H229 5563   5.067   3.870   4.342  0.8640  2.2066 -0.2521
    8MOL   C230 5564   4.356   3.501   4.408  0.6798 -0.0371  0.4786
    8MOL   C231 5565   4.444   3.583   4.316 -0.0889  0.2688 -0.5144
    8MOL   C232 5566   4.379   3.709   4.256  0.0415 -0.2802 -0.4597
    8MOL   C233 5567   4.482   3.794   4.176 -0.1155  0.3210 -0.6087
    8MOL   C234 5568   4.250   3.671   4.173  0.3784  0.0220  0.0986
    8MOL   C235 5569   4.168   3.567   4.252  0.2887 -0.5037 -0.2148
    8MOL   C236 5570   4.240   3.455   4.331  0.0222 -0.9989  0.2215
    8MOL   C237 5571   4.142   3.371   4.422  0.8129  0.4394  0.9583
    8MOL   O238 5572   4.211   3.308   4.536  0.3941 -0.2682  0.1746
    8MOL   C239 5573   4.250   3.179   4.533  0.0200  0.7615  0.3216
    8MOL   O240 5574   4.223   3.093   4.448  0.8481  0.0507 -0.1757
    8MOL   C241 5575   4.346   3.162   4.649  0.1026  0.0453  0.1744
    8MOL   C242 5576   4.422   3.046   4.652  0.2550 -0.4260  0.5134
    8MOL   C243 5577   4.522   3.029   4.747  0.0242 -0.2047  0.3857
    8MOL   C244 5578   4.555   3.135   4.837 -0.1614 -0.0041 -0.3963
    8MOL   C245 5579   4.664   3.124   4.937 -0.2904  0.2207  0.3484
    8MOL   O246 5580   4.691   3.210   5.022  0.0166 -0.4324 -0.5319
    8MOL   O247 5581   4.731   3.008   4.928 -0.5910  0.0427 -0.1967
    8MOL   C248 5582   4.467   3.250   4.838  0.1796  0.4987 -0.4276
    8MOL   C249 5583   4.361   3.258   4.748  0.3465 -0.3023  0.0495
    8MOL   H250 5584   4.325   3.550   4.501  0.4754  2.0856 -0.6896
    8MOL   H251 5585   4.414   3.419   4.449  1.7776  0.9748  0.9670
    8MOL   H252 5586   4.477   3.506   4.246  1.1197 -0.7595  1.1455
    8MOL   H253 5587   4.535   3.594   4.375 -0.3410  0.5358 -0.1642
    8MOL   H254 5588   4.350   3.768   4.343  2.7005  2.5977 -1.4306
    8MOL   H255 5589   4.431   3.881   4.135 -0.8311  0.9580  1.5461
    8MOL   H256 5590   4.506   3.737   4.086  1.8447  0.2872 -0.0892
    8MOL   H257 5591   4.279   3.636   4.074  0.5978  1.6133 -0.4015
    8MOL   H258 5592   4.196   3.765   4.160 -0.9269 -0.8247 -0.7423
    8MOL   H259 5593   4.100   3.624   4.315  2.8040 -0.0596  2.1797
    8MOL   H260 5594   4.103   3.517   4.180 -1.8642 -1.5266  2.3513
    8MOL   H261 5595   4.276   3.385   4.256  1.5630 -0.6970  0.6717
    8MOL   H262 5596   4.078   3.298   4.372  0.6831  1.0915  0.1384
    8MOL   H263 5597   4.062   3.439   4.451  1.3393  0.8836  1.3930
    8MOL   H264 5598   4.398   2.962   4.588 -1.4549  2.0824 -2.3023
    8MOL   H265 5599   4.583   2.940   4.744  2.5040  1.4794 -1.1078
    8MOL   H266 5600   4.471   3.316   4.923 -1.7789  0.5357 -0.3520
    8MOL   H267 5601   4.296   3.344   4.741 -0.5745 -0.9674  0.3379
    8MOL   C268 5602   4.977   2.642   4.911 -0.0506  0.3307 -0.4009
    8MOL   C269 5603   4.943   2.787   4.910 -0.1124 -0.2019 -0.2736
    8MOL   C270 5604   4.835   2.810   5.016 -0.0853 -0.4909 -0.2116
    8MOL   C271 5605   4.803   2.963   5.044 -0.6030  0.1454  0.5644
    8MOL   C272 5606   4.706   2.723   4.986  0.1221  0.5796  0.0275
    8MOL   C273 5607   4.749   2.573   4.977  0.1007  0.2480  1.1067
    8MOL   C274 5608   4.864   2.545   4.874  0.3726 -0.1446 -0.5298
    8MOL   C275 5609   4.907   2.401   4.868  0.6922 -0.4722  0.0840
    8MOL   O276 5610   4.792   2.311   4.846 -0.1736 -0.0057  0.2786
    8MOL   C277 5611   4.790   2.196   4.921 -0.5093 -0.0663  0.6165
    8MOL   O278 5612   4.877   2.165   5.008 -0.0921  0.2637 -0.5804
    8MOL   C279 5613   4.676   2.104   4.882 -0.4414  0.6377 -0.3470
    8MOL   C280 5614   4.613   2.119   4.755  0.3911 -0.4455  0.2635
    8MOL   C281 5615   4.509   2.022   4.721  0.3000 -0.1242 -0.7341
    8MOL   C282 5616   4.471   1.919   4.806  0.5617 -0.2210 -0.6026
    8MOL   C283 5617   4.370   1.823   4.754  0.4016 -0.2195  0.0872
    8MOL   O284 5618   4.358   1.713   4.807  0.0952 -0.3801 -0.0692
    8MOL   O285 5619   4.305   1.866   4.643  0.7927 -0.3430  0.1007
    8MOL   C286 5620   4.542   1.907   4.930  0.8420 -0.1375  0.1071
    8MOL   C287 5621   4.652   1.992   4.968 -0.0067  0.1158  0.6700
    8MOL   H288 5622   5.006   2.602   5.008 -0.2854  1.4220  0.1272
    8MOL   H289 5623   5.055   2.618   4.840  0.7454  2.7653 -0.3572
    8MOL   H290 5624   4.908   2.829   4.816 -1.6481  1.5421  1.0238
    8MOL   H291 5625   5.030   2.846   4.937 -1.2675  0.3421  2.5105
    8MOL   H292 5626   4.887   2.792   5.110  1.1364 -0.3652 -0.8517
    8MOL   H293 5627   4.891   3.027   5.041  0.3583 -1.2772 -3.5892
    8MOL   H294 5628   4.737   2.976   5.130 -0.3943 -0.0620  0.7538
    8MOL   H295 5629   4.669   2.756   4.890 -2.9652  1.8837  1.6219
    8MOL   H296 5630   4.628   2.741   5.059 -1.1474  0.0188 -1.1788
    8MOL   H297 5631   4.755   2.537   5.079 -2.2539  0.7678  1.4593
    8MOL   H298 5632   4.658   2.522   4.942 -0.5759  1.3476  1.2305
    8MOL   H299 5633   4.839   2.583   4.774  1.3817 -0.8278 -1.0490
    8MOL   H300 5634   4.969   2.373   4.953 -0.4532 -3.8431 -0.1119
    8MOL   H301 5635   4.972   2.391   4.781  2.5558 -0.7465  1.4914
    8MOL   H302 5636   4.646   2.195   4.686 -0.7888  0.6735  0.9147
    8MOL   H303 5637   4.471   2.030   4.620 -1.5726  0.8483  0.0100
    8MOL   H304 5638   4.518   1.816   4.984 -0.8772  1.3235  1.8807
    8MOL   H305 5639   4.713   1.976   5.056  2.1184  1.0408 -0.6034
    8MOL   C306 5640   3.868   1.862   4.772 -0.2391 -0.1113 -0.1531
    8MOL   C307 5641   4.015   1.826   4.746 -0.6793 -0.1978  0.3781
    8MOL   C308 5642   4.064   1.844   4.598  0.1965  0.1408  0.5448
    8MOL   C309 5643   4.205   1.777   4.585  0.0403 -0.3708 -0.2499
    8MOL   C310 5644   3.969   1.767   4.500  0.1933 -0.7530 -0.3444
    8MOL   C311 5645   3.817   1.787   4.539 -0.5468 -0.5276  0.3749
    8MOL   C312 5646   3.775   1.782   4.686  0.0957 -0.6723 -0.9646
    8MOL   C313 5647   3.636   1.836   4.709  0.0651  0.2465 -0.6188
    8MOL   O314 5648   3.546   1.749   4.643 -0.1564  0.4332  0.3508
    8MOL   C315 5649   3.411   1.767   4.654 -0.2349  0.1884 -0.1500
    8MOL   O316 5650   3.363   1.855   4.733 -0.6885 -0.3413  0.2893
    8MOL   C317 5651   3.328   1.680   4.567 -0.0061  0.0741  0.4387
    8MOL   C318 5652   3.194   1.704   4.560 -0.1319 -0.2918  0.1224
    8MOL   C319 5653   3.120   1.617   4.479 -0.3662 -0.1622 -0.4916
    8MOL   C320 5654   3.174   1.513   4.406  0.3213 -0.2985  0.2418
    8MOL   C321 5655   3.089   1.417   4.335  0.0691  0.0319 -0.8330
    8MOL   O322 5656   3.138   1.329   4.265  0.3848 -0.7052 -0.2089
    8MOL   O323 5657   2.963   1.433   4.359  0.0052  0.4280  0.3169
    8MOL   C324 5658   3.314   1.499   4.406  0.6754  0.3264  0.0688
    8MOL   C325 5659   3.392   1.580   4.484  0.1234 -0.7657 -0.2174
    8MOL   H326 5660   3.849   1.967   4.748 -0.5143  0.1492  1.1911
    8MOL   H327 5661   3.842   1.835   4.874  0.1202  2.4458  0.6635
    8MOL   H328 5662   4.028   1.724   4.781  1.1508 -0.2476 -0.3879
    8MOL   H329 5663   4.085   1.893   4.796 -0.4862  1.1249 -1.6091
    8MOL   H330 5664   4.074   1.950   4.573  2.8783 -0.2955 -0.3265
    8MOL   H331 5665   4.230   1.773   4.479  0.2789  2.5933 -0.3528
    8MOL   H332 5666   4.203   1.676   4.625 -1.9822 -0.7976 -1.3816
    8MOL   H333 5667   3.989   1.661   4.509  0.9922 -0.3582  3.6203
    8MOL   H334 5668   4.003   1.784   4.398 -2.3209  2.0651 -0.7942
    8MOL   H335 5669   3.793   1.886   4.500  1.0016 -0.5433 -0.6573
    8MOL   H336 5670   3.756   1.715   4.484  0.1867 -1.9970  1.4637
    8MOL   H337 5671   3.775   1.677   4.715 -0.4920 -1.3032 -3.1495
    8MOL   H338 5672   3.624   1.941   4.681 -1.5643 -0.3943 -2.4846
    8MOL   H339 5673   3.624   1.821   4.816  1.7299  0.0003 -0.4481
    8MOL   H340 5674   3.158   1.784   4.622 -0.8020  0.1392 -0.8117
    8MOL   H341 5675   3.012   1.625   4.478 -0.2225  2.5554  1.3399
    8MOL   H342 5676   3.373   1.418   4.365  1.1149 -0.2231  1.7474
    8MOL   H343 5677   3.497   1.560   4.473  0.0377 -1.1642 -0.3161
    8MOL   C344 5678   2.620   1.354   4.004 -0.0089 -0.3908 -0.4956
    8MOL   C345 5679   2.693   1.291   4.118  0.2419 -0.0796  0.4777
    8MOL   C346 5680   2.795   1.386   4.176 -0.3179  0.6450 -0.6778
    8MOL   C347 5681   2.866   1.334   4.307  0.4484 -0.3671 -0.6035
    8MOL   C348 5682   2.902   1.413   4.066 -0.0235  0.0164 -0.5936
    8MOL   C349 5683   2.837   1.474   3.938  0.3672  0.5189 -0.1845
    8MOL   C350 5684   2.717   1.383   3.888  0.0476 -0.3016 -0.3780
    8MOL   C351 5685   2.650   1.437   3.764  0.1968 -0.2921  0.0928
    8MOL   O352 5686   2.565   1.538   3.795  0.0779  0.0593 -0.0136
    8MOL   C353 5687   2.519   1.622   3.696 -0.0016 -0.4812  0.2118
    8MOL   O354 5688   2.569   1.615   3.581 -0.0853 -0.4770  0.2715
    8MOL   C355 5689   2.422   1.727   3.744 -0.5444 -1.2382  0.2105
    8MOL   C356 5690   2.364   1.826   3.662 -1.1454 -0.9131  0.0586
    8MOL   C357 5691   2.277   1.924   3.702 -0.3352  0.0209 -0.2482
    8MOL   C358 5692   2.227   1.922   3.839  0.4091 -0.2248 -0.0909
    8MOL   C359 5693   2.114   2.015   3.876 -0.7668 -0.4436 -0.0582
    8MOL   O360 5694   2.078   2.105   3.804  0.4264 -0.4596 -0.0144
    8MOL   O361 5695   2.062   1.982   3.989  0.4775  0.4922  0.2066
    8MOL   C362 5696   2.285   1.831   3.924 -0.5054  0.1849 -0.1070
    8MOL   C363 5697   2.378   1.731   3.882 -0.5810  0.0736 -0.0714
    8MOL   H364 5698   2.563   1.445   4.025  0.1912  0.3098 -2.8624
    8MOL   H365 5699   2.547   1.283   3.965  1.1525 -1.9910  0.2020
    8MOL   H366 5700   2.737   1.196   4.089 -0.7944 -0.2442 -0.5996
    8MOL   H367 5701   2.624   1.272   4.201  0.2652  0.3115  0.5867
    8MOL   H368 5702   2.750   1.483   4.195  0.3436  0.7775  0.2296
    8MOL   H369 5703   2.901   1.231   4.298 -0.6817 -1.0918  2.6804
    8MOL   H370 5704   2.786   1.324   4.381  1.4513 -1.5954  0.3369
    8MOL   H371 5705   2.958   1.321   4.050  1.2780  0.3464  1.9201
    8MOL   H372 5706   2.974   1.481   4.112 -1.2326  0.6086  0.4403
    8MOL   H373 5707   2.790   1.566   3.972 -2.4798 -0.1196 -2.1877
    8MOL   H374 5708   2.908   1.489   3.856  1.0563  0.2114  0.3520
    8MOL   H375 5709   2.753   1.284   3.860  0.0191 -0.5263  0.3705
    8MOL   H376 5710   2.606   1.357   3.704  1.5288 -2.6877  2.2386
    8MOL   H377 5711   2.726   1.486   3.703  3.7942 -2.3409  2.6922
    8MOL   H378 5712   2.401   1.840   3.562  0.9067  2.9402  1.2613
    8MOL   H379 5713   2.227   1.992   3.636 -1.1876  0.2707  0.6334
    8MOL   H380 5714   2.260   1.829   4.029  0.9021 -0.6029  0.2387
    8MOL   H381 5715   2.404   1.647   3.946  1.3066 -0.6436 -1.7041
    8MOL   C382 5716   2.133   2.060   4.433  0.2246  1.1350  0.1006
    8MOL   C383 5717   2.061   2.007   4.301 -0.0699 -0.7563 -0.3845
    8MOL   C384 5718   2.050   2.106   4.195  0.2441  0.4677 -0.3521
    8MOL   C385 5719   1.976   2.065   4.069 -0.3856  0.8212 -0.0057
    8MOL   C386 5720   1.985   2.237   4.246  0.2513 -0.1323  0.0282
    8MOL   C387 5721   2.064   2.296   4.362 -0.0435  0.3829 -0.2340
    8MOL   C388 5722   2.068   2.194   4.477 -0.0414  0.0891 -0.0906
    8MOL   C389 5723   2.137   2.260   4.595  0.4694  0.1034 -0.3880
    8MOL   O390 5724   2.096   2.192   4.714  0.2059  0.7837 -0.8674
    8MOL   C391 5725   2.179   2.109   4.772 -0.0167  0.0293 -1.4136
    8MOL   O392 5726   2.274   2.060   4.716  0.1668  0.4840  0.2849
    8MOL   C393 5727   2.154   2.083   4.916  0.1679  0.1041 -0.3499
    8MOL   C394 5728   2.025   2.084   4.970  0.1517  0.9533  0.4512
    8MOL   C395 5729   2.005   2.047   5.106 -0.0012  0.1764 -0.0480
    8MOL   C396 5730   2.121   2.012   5.185  1.0957  0.1682 -0.1475
    8MOL   C397 5731   2.091   1.969   5.329  0.3503 -0.6120 -0.1998
    8MOL   O398 5732   1.977   1.932   5.366 -0.2114  0.2367  0.3855
    8MOL   O399 5733   2.188   1.987   5.411 -0.5545  0.1249  0.4719
    8MOL   C400 5734   2.249   2.028   5.135  0.1264  0.4753  0.3013
    8MOL   C401 5735   2.269   2.054   4.999  0.5045  0.5974 -0.6518
    8MOL   H402 5736   2.239   2.076   4.412  0.1669  3.2067  1.2448
    8MOL   H403 5737   2.143   1.982   4.508  2.5159 -1.0088 -2.3210
    8MOL   H404 5738   1.959   1.981   4.331 -0.9176  2.5071 -0.2419
    8MOL   H405 5739   2.115   1.918   4.270  2.1367  0.3629  0.1467
    8MOL   H406 5740   2.149   2.135   4.160  0.2480 -0.3099 -1.0011
    8MOL   H407 5741   1.947   2.150   4.008  0.6351 -1.0782 -3.2526
    8MOL   H408 5742   1.890   2.007   4.102  0.7685 -1.3538 -0.6860
    8MOL   H409 5743   1.882   2.234   4.282  0.3793 -1.0322  0.3396
    8MOL   H410 5744   1.989   2.305   4.162 -0.0789 -0.3264 -0.1447
    8MOL   H411 5745   2.166   2.318   4.330  1.0016 -1.2170  1.8459
    8MOL   H412 5746   2.012   2.384   4.399 -0.5943 -0.3722  0.7989
    8MOL   H413 5747   1.967   2.164   4.507  0.3012 -0.6154  0.3613
    8MOL   H414 5748   2.123   2.368   4.601 -2.1394 -0.2359  0.3794
    8MOL   H415 5749   2.246   2.265   4.591  0.5571  0.0346  1.6788
    8MOL   H416 5750   1.940   2.105   4.908 -1.3492  0.7726  2.3992
    8MOL   H417 5751   1.905   2.043   5.147 -0.3984  0.7635 -0.9514
    8MOL   H418 5752   2.338   2.005   5.191 -0.1627  0.6687  0.8413
    8MOL   H419 5753   2.362   2.042   4.946 -0.4476 -0.0200 -2.2413
    8MOL   C420 5754   2.547   1.905   5.611  1.1879 -0.3270 -0.0361
    8MOL   C421 5755   2.411   1.879   5.541  0.2540  0.3534  0.1588
    8MOL   C422 5756   2.306   1.974   5.612 -0.9032 -0.3430  0.1428
    8MOL   C423 5757   2.163   1.976   5.550  0.4395 -0.2323  0.7548
    8MOL   C424 5758   2.301   1.939   5.763  0.6775 -0.4104  0.4471
    8MOL   C425 5759   2.443   1.937   5.831 -0.1896 -0.0140  0.3244
    8MOL   C426 5760   2.549   1.852   5.755 -0.5476 -0.2797 -0.1893
    8MOL   C427 5761   2.688   1.859   5.817  0.3833 -0.6044  0.0524
    8MOL   O428 5762   2.772   1.769   5.745  0.6898 -0.1115  0.0479
    8MOL   C429 5763   2.900   1.766   5.758 -0.0455  0.8380  0.2678
    8MOL   O430 5764   2.967   1.844   5.827  0.4700  0.5116 -0.2187
    8MOL   C431 5765   2.960   1.663   5.668 -0.0032 -0.6542  0.2268
    8MOL   C432 5766   2.888   1.608   5.561 -0.3820 -0.0022 -1.0265
    8MOL   C433 5767   2.943   1.509   5.478  0.2778  0.2617 -0.8992
    8MOL   C434 5768   3.067   1.456   5.514 -0.5270  0.7904 -0.2647
    8MOL   C435 5769   3.133   1.340   5.446 -0.7740  0.5554  0.2845
    8MOL   O436 5770   3.238   1.286   5.487 -0.2968 -0.1373  0.4610
    8MOL   O437 5771   3.060   1.286   5.349 -0.5381  0.1956 -0.0104
    8MOL   C438 5772   3.142   1.513   5.619 -0.2532 -0.2775 -0.5789
    8MOL   C439 5773   3.093   1.623   5.693  0.1994  0.3824  0.1330
    8MOL   H440 5774   2.563   2.012   5.599  0.6253 -0.3828 -1.2553
    8MOL   H441 5775   2.620   1.854   5.548  0.6561 -1.0118 -0.1011
    8MOL   H442 5776   2.380   1.776   5.559 -1.0932  0.6327 -0.4805
    8MOL   H443 5777   2.427   1.891   5.434  1.3756 -1.7026  0.0850
    8MOL   H444 5778   2.336   2.076   5.588 -4.6792  1.0638  0.8989
    8MOL   H445 5779   2.101   2.056   5.590 -0.9089 -1.0414  0.3154
    8MOL   H446 5780   2.117   1.878   5.567 -0.2460 -0.2202 -0.9043
    8MOL   H447 5781   2.247   1.844   5.775 -0.4176 -0.0910 -1.6504
    8MOL   H448 5782   2.243   2.010   5.821 -0.4170 -0.3183 -0.7371
    8MOL   H449 5783   2.479   2.040   5.833  0.3274 -0.1552 -0.9510
    8MOL   H450 5784   2.447   1.908   5.936  2.5091  0.1306  0.2957
    8MOL   H451 5785   2.533   1.744   5.761  1.0086 -0.5608 -0.8350
    8MOL   H452 5786   2.684   1.838   5.923 -2.5752  1.1552  0.3556
    8MOL   H453 5787   2.713   1.965   5.817 -1.6882 -0.0949  0.6269
    8MOL   H454 5788   2.791   1.641   5.528 -0.2794 -0.3261 -1.6719
    8MOL   H455 5789   2.886   1.462   5.398  0.1366  0.3456 -0.8493
    8MOL   H456 5790   3.237   1.467   5.644 -0.0977  1.6891  2.6815
    8MOL   H457 5791   3.158   1.666   5.767 -0.2175 -0.6054  1.1006
    8MOL   C458 5792   2.777   0.954   5.426 -0.1138  0.2865  0.2539
    8MOL   C459 5793   2.848   1.083   5.375  0.3690  0.0690 -0.3966
    8MOL   C460 5794   3.002   1.057   5.355  0.3311 -0.4608 -0.4711
    8MOL   C461 5795   3.082   1.165   5.284 -0.1840  0.0065 -0.1234
    8MOL   C462 5796   3.065   1.025   5.489  0.3520  0.2918  0.3545
    8MOL   C463 5797   2.993   0.904   5.552  0.6889 -0.0196  0.6205
    8MOL   C464 5798   2.843   0.910   5.552 -0.8291 -0.3421  0.0159
    8MOL   C465 5799   2.778   0.778   5.609 -0.2933  0.2756  0.5126
    8MOL   O466 5800   2.645   0.806   5.643  0.0212  0.2844 -0.0431
    8MOL   C467 5801   2.578   0.726   5.729 -0.4044 -0.1650  0.2296
    8MOL   O468 5802   2.635   0.622   5.769 -0.3339  0.0453  0.3061
    8MOL   C469 5803   2.442   0.785   5.774  1.4055  0.4582  0.7921
    8MOL   C470 5804   2.369   0.722   5.876 -0.0071 -0.4270  0.3117
    8MOL   C471 5805   2.244   0.771   5.920 -0.2468  0.7347  0.1227
    8MOL   C472 5806   2.191   0.887   5.864 -0.7308 -0.6527  1.4389
    8MOL   C473 5807   2.055   0.930   5.906  0.2256  0.0112 -0.2523
    8MOL   O474 5808   1.995   0.871   5.995 -0.5653  0.1966  0.0048
    8MOL   O475 5809   1.999   1.026   5.830  0.2682 -0.0144 -0.4284
    8MOL   C476 5810   2.264   0.950   5.761  0.4250  0.1048 -0.0457
    8MOL   C477 5811   2.388   0.897   5.712 -0.5618  0.7395 -0.2780
    8MOL   H478 5812   2.781   0.876   5.350 -2.4317 -0.1850  0.5928
    8MOL   H479 5813   2.671   0.971   5.445 -0.0919 -0.4184  0.9962
    8MOL   H480 5814   2.825   1.175   5.428 -0.4756  1.8706 -3.7501
    8MOL   H481 5815   2.820   1.103   5.271  1.3980 -0.6927 -0.8278
    8MOL   H482 5816   3.016   0.968   5.294  0.5298 -0.6520 -0.1493
    8MOL   H483 5817   3.055   1.179   5.179  2.1208  0.9354 -0.6121
    8MOL   H484 5818   3.188   1.144   5.284  0.1012  1.2511  2.5563
    8MOL   H485 5819   3.050   1.105   5.562 -1.7558  0.3181 -0.0825
    8MOL   H486 5820   3.171   1.002   5.490  0.4603  0.8149  2.2990
    8MOL   H487 5821   3.019   0.816   5.494 -0.4096 -1.5561  2.4180
    8MOL   H488 5822   3.034   0.891   5.652 -0.7182 -3.5433  0.7956
    8MOL   H489 5823   2.818   0.981   5.631 -1.3859  1.2205 -1.5329
    8MOL   H490 5824   2.835   0.754   5.699 -1.4495 -1.1943  0.8865
    8MOL   H491 5825   2.786   0.696   5.537 -0.4607 -0.4660  1.3272
    8MOL   H492 5826   2.413   0.636   5.925 -1.4753 -2.0519 -1.1708
    8MOL   H493 5827   2.187   0.724   5.998 -0.3702 -0.7801 -0.8740
    8MOL   H494 5828   2.217   1.035   5.714 -0.4050 -0.3287 -0.0096
    8MOL   H495 5829   2.437   0.947   5.630  1.4510 -1.3860 -0.4141
    8MOL   C496 5830   1.655   0.826   5.648 -0.0509  0.1315  0.6385
    8MOL   C497 5831   1.757   0.874   5.749  1.0287  0.1454 -0.0373
    8MOL   C498 5832   1.778   1.027   5.749 -0.4791 -0.3283  0.9086
    8MOL   C499 5833   1.871   1.075   5.859 -0.3625 -0.1442  0.6678
    8MOL   C500 5834   1.804   1.079   5.607  0.3691 -0.9871 -0.3410
    8MOL   C501 5835   1.708   1.022   5.494 -0.6049 -0.7620 -0.3163
    8MOL   C502 5836   1.680   0.872   5.497 -0.2710  0.4717 -0.4730
    8MOL   C503 5837   1.574   0.827   5.404 -0.2201  0.1024  0.3458
    8MOL   O504 5838   1.617   0.868   5.272  0.6057  0.0425  0.4462
    8MOL   C505 5839   1.694   0.788   5.197  0.2073 -0.3376  0.4323
    8MOL   O506 5840   1.725   0.676   5.233  0.8215  0.6512 -0.0325
    8MOL   C507 5841   1.738   0.857   5.070 -0.2041  0.9481 -1.0207
    8MOL   C508 5842   1.749   0.775   4.954 -1.0347  0.0263  0.1021
    8MOL   C509 5843   1.774   0.833   4.833 -1.1320 -0.2965 -0.5738
    8MOL   C510 5844   1.794   0.971   4.815  0.1288  0.1122 -0.2583
    8MOL   C511 5845   1.815   1.032   4.679 -0.0820 -0.6819  0.0778
    8MOL   O512 5846   1.817   0.968   4.577 -0.1143 -0.2937 -0.4279
    8MOL   O513 5847   1.840   1.167   4.696  0.5761  0.4139  0.2614
    8MOL   C514 5848   1.789   1.047   4.934  0.3329 -0.2449  0.1068
    8MOL   C515 5849   1.756   0.993   5.062 -0.3494  0.0153  0.3334
    8MOL   H516 5850   1.553   0.853   5.673 -0.1527 -0.0221  0.3969
    8MOL   H517 5851   1.656   0.717   5.657  2.0308 -0.0280 -0.9498
    8MOL   H518 5852   1.852   0.824   5.734  1.6023  0.5727  1.9699
    8MOL   H519 5853   1.717   0.835   5.842  1.2743 -1.6850 -0.6799
    8MOL   H520 5854   1.690   1.087   5.774  0.4910  1.1425  0.8697
    8MOL   H521 5855   1.831   1.035   5.953 -1.0692 -0.1577  0.3655
    8MOL   H522 5856   1.878   1.182   5.873  4.1201 -0.1864 -0.6603
    8MOL   H523 5857   1.909   1.056   5.587 -0.3611 -4.1178 -0.9066
    8MOL   H524 5858   1.816   1.187   5.610 -2.5658 -0.6087 -1.0607
    8MOL   H525 5859   1.612   1.073   5.486 -1.2064 -2.1132 -2.1829
    8MOL   H526 5860   1.744   1.053   5.396  1.5218  1.8149  1.2094
    8MOL   H527 5861   1.778   0.829   5.481 -0.6316 -0.5162 -0.0717
    8MOL   H528 5862   1.481   0.879   5.426 -0.1801  0.2543  0.1534
    8MOL   H529 5863   1.545   0.722   5.401  2.4576 -0.6862  0.5567
    8MOL   H530 5864   1.735   0.668   4.954 -0.3021 -0.0868  1.4718
    8MOL   H531 5865   1.788   0.773   4.744 -0.0035  1.4013 -1.5744
    8MOL   H532 5866   1.799   1.154   4.929 -0.6756 -0.2136 -1.6995
    8MOL   H533 5867   1.737   1.061   5.143 -0.0878  0.1874  0.2522
    8MOL   C534 5868   2.254   1.222   4.490  0.7773 -0.6723  0.2800
    8MOL   C535 5869   2.134   1.289   4.553  1.0869  0.2120  0.0317
    8MOL   C536 5870   2.014   1.202   4.507 -0.7151  0.0021  0.0495
    8MOL   C537 5871   1.879   1.243   4.577 -0.1201  0.5112  0.8051
    8MOL   C538 5872   1.997   1.210   4.354  0.1687 -0.5830 -0.2639
    8MOL   C539 5873   2.123   1.157   4.281  0.8353  0.7184 -0.3987
    8MOL   C540 5874   2.247   1.226   4.333 -0.0801 -0.1844 -0.3248
    8MOL   C541 5875   2.371   1.140   4.274  0.4969  0.9213  0.2723
    8MOL   O542 5876   2.365   1.003   4.319  0.8152  0.0962  0.0771
    8MOL   C543 5877   2.478   0.929   4.306 -0.2882  0.0216 -0.1540
    8MOL   O544 5878   2.585   0.966   4.259  0.2300  0.1946 -0.0538
    8MOL   C545 5879   2.449   0.795   4.374 -0.4831  0.3078  0.0945
    8MOL   C546 5880   2.330   0.723   4.362  0.5313 -0.1470  0.2505
    8MOL   C547 5881   2.308   0.597   4.425  0.5100  0.0211  0.3167
    8MOL   C548 5882   2.413   0.543   4.507  0.3991 -0.4229  0.7263
    8MOL   C549 5883   2.401   0.406   4.557 -0.1271  0.0913 -0.0365
    8MOL   O550 5884   2.486   0.349   4.625 -0.0767 -0.9607 -0.0761
    8MOL   O551 5885   2.283   0.351   4.527  0.6430  0.4076 -0.1718
    8MOL   C552 5886   2.535   0.613   4.517  0.3291  0.5535 -0.1283
    8MOL   C553 5887   2.554   0.738   4.446  0.2926  0.1629 -0.4416
    8MOL   H554 5888   2.267   1.116   4.514 -2.4591 -1.1544  0.0719
    8MOL   H555 5889   2.347   1.265   4.528  1.3835 -1.7163  0.0141
    8MOL   H556 5890   2.126   1.397   4.536  1.6127 -0.2945 -3.6156
    8MOL   H557 5891   2.133   1.270   4.661  2.5858 -1.8824 -0.2981
    8MOL   H558 5892   2.036   1.100   4.538 -0.7175 -0.0738 -0.2000
    8MOL   H559 5893   1.783   1.231   4.527  1.1635  0.0112 -1.5978
    8MOL   H560 5894   1.889   1.351   4.587  1.6710  0.6022 -1.4108
    8MOL   H561 5895   1.985   1.316   4.330  0.7699 -0.8690 -1.9209
    8MOL   H562 5896   1.908   1.157   4.321 -0.7246 -0.3862  1.7804
    8MOL   H563 5897   2.127   1.050   4.301 -0.5700  0.8647  0.7725
    8MOL   H564 5898   2.131   1.187   4.177 -0.9739 -0.7157 -0.9790
    8MOL   H565 5899   2.260   1.328   4.297  0.2409 -0.1128 -0.0103
    8MOL   H566 5900   2.462   1.186   4.313  0.0246  2.8227 -0.7746
    8MOL   H567 5901   2.381   1.143   4.165 -1.0066  2.5563  0.1567
    8MOL   H568 5902   2.248   0.761   4.303  1.4551  2.1683  0.3897
    8MOL   H569 5903   2.213   0.548   4.408  0.3133  0.3676  0.4180
    8MOL   H570 5904   2.615   0.564   4.570 -1.0198 -0.4271  1.0447
    8MOL   H571 5905   2.646   0.790   4.467 -0.4006  0.5735  1.7100
    8MOL   C572 5906   2.048   0.064   4.269 -0.3142  0.1242 -0.1040
    8MOL   C573 5907   2.162   0.105   4.367  0.5000 -0.5953  0.3608
    8MOL   C574 5908   2.119   0.155   4.507 -0.1337 -0.4803 -0.0159
    8MOL   C575 5909   2.238   0.229   4.580  0.6044 -0.6921  0.9339
    8MOL   C576 5910   1.999   0.241   4.504  0.2407  0.3600  0.2697
    8MOL   C577 5911   1.883   0.188   4.421 -0.4595  0.5492  0.3142
    8MOL   C578 5912   1.931   0.164   4.274 -0.8653 -0.0402  0.3389
    8MOL   C579 5913   1.812   0.105   4.186  0.2173 -0.3926 -0.3369
    8MOL   O580 5914   1.750   8.025   4.256  0.1699 -0.2199  0.5518
    8MOL   C581 5915   1.707   7.919   4.181 -0.6097  0.3660  0.4536
    8MOL   O582 5916   1.723   7.912   4.054 -0.1201 -0.8663 -0.9031
    8MOL   C583 5917   1.649   7.805   4.255  0.2717 -0.1203 -0.1651
    8MOL   C584 5918   1.597   7.690   4.189 -0.5234 -0.0866 -0.3902
    8MOL   C585 5919   1.549   7.575   4.260 -0.2851 -0.6472  0.1316
    8MOL   C586 5920   1.548   7.581   4.398 -0.6101  0.2168  0.2067
    8MOL   C587 5921   1.494   7.457   4.470 -0.7162 -0.4374 -0.4374
    8MOL   O588 5922   1.469   7.355   4.410  0.0248 -0.2399 -0.2668
    8MOL   O589 5923   1.501   7.460   4.603  0.0757  0.0223  0.1805
    8MOL   C590 5924   1.594   7.695   4.463  0.0174  0.3207 -0.3331
    8MOL   C591 5925   1.645   7.806   4.395 -1.0072  0.0570 -0.0755
    8MOL   H592 5926   2.018   7.994   4.292  0.3345  0.1056  0.6722
    8MOL   H593 5927   2.090   0.051   4.170  2.7103 -2.3490  1.4159
    8MOL   H594 5928   2.208   0.198   4.331  2.9002 -1.7873  0.2666
    8MOL   H595 5929   2.228   0.021   4.386  0.7058 -0.4556  0.2694
    8MOL   H596 5930   2.088   0.066   4.563  1.4141  0.0555  1.7465
    8MOL   H597 5931   2.320   0.159   4.567  0.3109 -1.2438  2.0141
    8MOL   H598 5932   2.216   0.227   4.687 -1.8443  0.9714  0.5092
    8MOL   H599 5933   2.021   0.336   4.455  1.1047  0.0770  0.0969
    8MOL   H600 5934   1.962   0.283   4.597  0.1060  1.9531 -0.4787
    8MOL   H601 5935   1.853   0.090   4.461 -0.4206  0.5696  0.3918
    8MOL   H602 5936   1.796   0.253   4.415 -0.9216 -0.2099 -1.8184
    8MOL   H603 5937   1.974   0.255   4.232  0.2852 -1.0554 -0.7530
    8MOL   H604 5938   1.863   0.082   4.093  0.5553  0.2506 -0.3182
    8MOL   H605 5939   1.741   0.186   4.169 -0.0586 -0.9104 -1.6445
    8MOL   H606 5940   1.588   7.690   4.081 -1.9167  0.0436 -0.2840
    8MOL   H607 5941   1.511   7.487   4.211 -0.2548 -1.3235  1.2995
    8MOL   H608 5942   1.596   7.689   4.571  1.3249  1.6872 -0.2726
    8MOL   H609 5943   1.673   7.897   4.444  1.1788  0.7810 -2.5476
    8MOL   C610 5944   1.728   7.286   4.947 -0.1885 -0.3860 -0.3527
    8MOL   C611 5945   1.642   7.359   4.844 -0.3276 -0.5942  0.2006
    8MOL   C612 5946   1.560   7.267   4.756 -0.0234  0.0663 -0.5519
    8MOL   C613 5947   1.449   7.345   4.678  0.6402  0.1164  0.3543
    8MOL   C614 5948   1.644   7.178   4.674  0.2069 -0.2115 -0.2811
    8MOL   C615 5949   1.732   7.087   4.768 -0.2654 -0.1063 -0.0138
    8MOL   C616 5950   1.813   7.179   4.873  0.3156  0.4093 -0.3613
    8MOL   C617 5951   1.893   7.095   4.971 -0.2178 -0.6456  0.1570
    8MOL   O618 5952   1.807   7.001   5.031  0.5416  0.4085 -0.0212
    8MOL   C619 5953   1.845   6.871   5.041  0.7170  0.0382 -0.3762
    8MOL   O620 5954   1.948   6.831   5.006 -0.6680 -0.4274 -0.0780
    8MOL   C621 5955   1.728   6.786   5.086  0.1650  0.4979  0.1895
    8MOL   C622 5956   1.747   6.644   5.084  0.1325  0.1950  0.3870
    8MOL   C623 5957   1.642   6.562   5.126 -0.1418  0.1181 -0.7529
    8MOL   C624 5958   1.525   6.617   5.185  0.2925  0.5085 -0.2737
    8MOL   C625 5959   1.418   6.524   5.237 -0.0228  0.2229  0.7373
    8MOL   O626 5960   1.436   6.405   5.252 -0.7466  0.6575 -0.3724
    8MOL   O627 5961   1.299   6.586   5.274  0.3957  0.0031 -0.6379
    8MOL   C628 5962   1.508   6.759   5.193 -0.6879 -0.5412 -0.2318
    8MOL   C629 5963   1.608   6.842   5.130 -1.0700  0.1823 -0.1053
    8MOL   H630 5964   1.663   7.228   5.012 -1.7089  0.8357 -0.7558
    8MOL   H631 5965   1.788   7.360   4.999  0.5745 -1.0782 -0.2299
    8MOL   H632 5966   1.719   7.403   4.781 -1.5368  0.7679 -0.3505
    8MOL   H633 5967   1.595   7.456   4.862  2.8346  1.2999 -1.2783
    8MOL   H634 5968   1.503   7.199   4.820  1.5560  0.6699  1.5739
    8MOL   H635 5969   1.370   7.383   4.743  1.3523  0.6191  0.9317
    8MOL   H636 5970   1.390   7.274   4.621  0.8827 -0.6215  1.0086
    8MOL   H637 5971   1.703   7.248   4.615  0.1368  0.7128  0.7266
    8MOL   H638 5972   1.592   7.109   4.608  1.1061 -1.7768  0.5967
    8MOL   H639 5973   1.663   7.025   4.827  1.5633 -1.5792  0.6203
    8MOL   H640 5974   1.797   7.027   4.705  0.4329  1.1627 -0.5061
    8MOL   H641 5975   1.887   7.229   4.811  0.6623 -0.3130 -0.5310
    8MOL   H642 5976   1.939   7.159   5.046 -1.5925 -2.2320  2.4193
    8MOL   H643 5977   1.974   7.045   4.918 -0.3519 -0.9791  0.2624
    8MOL   H644 5978   1.840   6.604   5.045  0.1059 -0.6366  1.1467
    8MOL   H645 5979   1.644   6.455   5.117  0.0555  0.1288 -0.8504
    8MOL   H646 5980   1.420   6.797   5.244 -0.0799  0.2269  0.2679
    8MOL   H647 5981   1.594   6.949   5.140 -1.3421  0.0237  1.3196
    8MOL   C648 5982   1.014   6.838   5.486  0.0107 -0.5932  0.1797
    8MOL   C649 5983   1.125   6.740   5.471  0.1073  0.5015  0.3125
    8MOL   C650 5984   1.085   6.620   5.378 -0.0661 -0.4739  0.1877
    8MOL   C651 5985   1.198   6.518   5.349 -0.2049  0.2276  0.1023
    8MOL   C652 5986   0.959   6.549   5.428 -0.3237  0.3671  1.0406
    8MOL   C653 5987   0.851   6.652   5.440  0.2392 -0.8338  0.3624
    8MOL   C654 5988   0.885   6.767   5.540 -0.0481 -0.4883  0.3292
    8MOL   C655 5989   0.769   6.871   5.554 -0.7702  0.4304  0.5590
    8MOL   O656 5990   0.656   6.801   5.602  0.0131  0.7559 -0.2398
    8MOL   C657 5991   0.537   6.859   5.616  0.8230  0.1741 -0.1900
    8MOL   O658 5992   0.515   6.982   5.611  0.0774  0.1112  0.6932
    8MOL   C659 5993   0.439   6.748   5.639  0.4529 -0.6452 -0.2491
    8MOL   C660 5994   0.474   6.612   5.636 -0.5722 -0.0888  0.0095
    8MOL   C661 5995   0.373   6.519   5.661  0.5478 -0.3010 -0.5911
    8MOL   C662 5996   0.241   6.560   5.698  0.4120  0.3838 -0.0982
    8MOL   C663 5997   0.139   6.457   5.751 -0.5808 -0.4610 -0.6780
    8MOL   O664 5998   0.030   6.491   5.790 -0.6383  0.4706 -0.2286
    8MOL   O665 5999   0.180   6.336   5.736  0.0963  0.4402 -0.4810
    8MOL   C666 6000   0.207   6.699   5.698 -0.3552 -0.2781 -0.0372
    8MOL   C667 6001   0.308   6.794   5.671 -0.1311 -0.8019 -0.0095
    8MOL   H668 6002   0.995   6.887   5.391 -0.2747  2.0941  1.5490
    8MOL   H669 6003   1.044   6.918   5.554 -2.5966  0.1762  0.4782
    8MOL   H670 6004   1.172   6.706   5.563 -1.1443 -2.9702 -0.2715
    8MOL   H671 6005   1.212   6.786   5.423  1.0108 -1.5598 -0.0488
    8MOL   H672 6006   1.055   6.670   5.286  0.2297 -0.6873 -0.0265
    8MOL   H673 6007   1.164   6.439   5.282 -2.3902  2.3087 -1.3270
    8MOL   H674 6008   1.241   6.470   5.437 -0.9227  0.6503  0.6832
    8MOL   H675 6009   0.975   6.504   5.526  0.4291  0.1741  0.8376
    8MOL   H676 6010   0.917   6.467   5.370  0.0192 -1.0371  2.7401
    8MOL   H677 6011   0.821   6.697   5.346 -1.4978  3.1103  2.7185
    8MOL   H678 6012   0.761   6.599   5.470 -0.3863  0.5715  1.0123
    8MOL   H679 6013   0.899   6.715   5.635  2.7657 -0.6296 -0.1323
    8MOL   H680 6014   0.739   6.908   5.456 -0.7673 -0.8400  0.0702
    8MOL   H681 6015   0.787   6.958   5.617 -0.3756  1.9059 -1.5676
    8MOL   H682 6016   0.573   6.580   5.606  0.7414  1.3023  2.6534
    8MOL   H683 6017   0.399   6.415   5.649  1.9082 -0.1158  0.6634
    8MOL   H684 6018   0.109   6.741   5.713 -0.2408  1.1289 -2.7796
    8MOL   H685 6019   0.289   6.900   5.679  0.3378 -0.8390  1.8983
    8MOL   C686 6020   0.161   5.996   5.479 -0.4018 -0.0023 -0.5918
    8MOL   C687 6021   0.127   6.115   5.555  0.7325  0.3504 -0.6597
    8MOL   C688 6022   0.153   6.101   5.707 -0.4565 -0.7016 -0.7093
    8MOL   C689 6023   0.100   6.225   5.775 -0.1269  0.1528 -0.1296
    8MOL   C690 6024   0.086   5.980   5.762  0.0581  0.2485 -0.4207
    8MOL   C691 6025   0.123   5.850   5.694  0.3834  0.6325 -0.6736
    8MOL   C692 6026   0.089   5.870   5.542  0.2692  0.2877  0.6117
    8MOL   C693 6027   0.133   5.747   5.460 -0.0275  0.4398  0.2622
    8MOL   O694 6028   0.264   5.715   5.493  0.2012 -1.0941 -0.5905
    8MOL   C695 6029   0.331   5.637   5.406  0.5883  0.2099  0.0767
    8MOL   O696 6030   0.281   5.588   5.302  0.0927 -0.2565 -0.3672
    8MOL   C697 6031   0.476   5.616   5.450 -0.2337 -0.0091 -0.3972
    8MOL   C698 6032   0.539   5.683   5.566 -0.2095  0.3469  0.3385
    8MOL   C699 6033   0.675   5.652   5.594 -0.3910  0.0845 -0.4342
    8MOL   C700 6034   0.742   5.560   5.514  0.0987 -0.4565  0.5131
    8MOL   C701 6035   0.889   5.545   5.538 -0.4814 -0.1155  0.4003
    8MOL   O702 6036   0.954   5.630   5.597  0.3074  0.1775  0.1419
    8MOL   O703 6037   0.938   5.439   5.480 -0.2175  0.4590 -0.3222
    8MOL   C704 6038   0.671   5.480   5.418 -0.2078 -0.6717 -0.7927
    8MOL   C705 6039   0.543   5.511   5.386 -0.2579  0.0350 -0.2442
    8MOL   H706 6040   0.268   5.977   5.486 -0.9276 -3.3370 -0.6303
    8MOL   H707 6041   0.132   6.004   5.374  0.0176 -2.6612 -0.9424
    8MOL   H708 6042   0.021   6.128   5.537  0.8175  0.9151 -0.7591
    8MOL   H709 6043   0.183   6.198   5.512 -0.4602  1.7247  0.3918
    8MOL   H710 6044   0.257   6.089   5.738 -0.2274  2.1892 -0.1440
    8MOL   H711 6045   0.113   6.225   5.883 -1.7867 -5.3819  0.2348
    8MOL   H712 6046   8.026   6.231   5.753 -0.5721 -1.7799  1.3381
    8MOL   H713 6047   8.009   5.977   5.763  0.0501  0.7194  0.2844
    8MOL   H714 6048   0.119   5.968   5.866  3.6658 -1.8169 -1.7083
    8MOL   H715 6049   0.227   5.824   5.716  0.7333  0.5171 -2.4185
    8MOL   H716 6050   0.059   5.771   5.732  1.3517  0.1833  0.0570
    8MOL   H717 6051   8.013   5.880   5.539  0.4069  1.7486 -0.1150
    8MOL   H718 6052   0.111   5.751   5.353 -1.4460 -1.0428  0.4674
    8MOL   H719 6053   0.076   5.657   5.484 -0.0978  0.4991  0.3168
    8MOL   H720 6054   0.484   5.758   5.622 -0.6184  0.9383 -0.8308
    8MOL   H721 6055   0.727   5.718   5.662  0.1523  0.3866 -1.1333
    8MOL   H722 6056   0.721   5.401   5.365 -0.8331 -1.3181 -0.4159
    8MOL   H723 6057   0.493   5.461   5.304 -1.9662  0.0406  0.7716
    8MOL   C724 6058   1.320   5.328   5.781 -0.5052 -0.2341  0.6065
    8MOL   C725 6059   1.261   5.399   5.656  0.1983  0.3021 -0.4427
    8MOL   C726 6060   1.122   5.347   5.620  0.1847 -0.1363 -0.7354
    8MOL   C727 6061   1.080   5.418   5.490 -0.7192 -0.2262 -0.0982
    8MOL   C728 6062   1.109   5.198   5.606  0.2920  0.7654  0.2589
    8MOL   C729 6063   1.156   5.123   5.732 -0.0342 -0.0449 -0.6270
    8MOL   C730 6064   1.297   5.169   5.773  0.2618 -0.3170  0.0009
    8MOL   C731 6065   1.348   5.092   5.894 -0.1017 -0.4129 -0.2690
    8MOL   O732 6066   1.272   5.110   6.012 -0.2658  0.5072  0.2176
    8MOL   C733 6067   1.259   5.010   6.097 -0.2215 -0.0468  0.2888
    8MOL   O734 6068   1.283   4.890   6.068 -0.3028  0.1483 -0.3139
    8MOL   C735 6069   1.219   5.055   6.234 -0.8249  0.3379 -0.1727
    8MOL   C736 6070   1.186   5.191   6.268 -0.2645  0.0287 -0.5193
    8MOL   C737 6071   1.164   5.240   6.399 -1.4732 -0.6212  0.6456
    8MOL   C738 6072   1.162   5.145   6.502 -0.1923 -0.2047 -0.1186
    8MOL   C739 6073   1.123   5.188   6.642  0.1954  0.3361  0.5133
    8MOL   O740 6074   1.156   5.126   6.749 -0.9300  0.0443 -0.8612
    8MOL   O741 6075   1.036   5.297   6.648  0.6285 -0.6338  0.2648
    8MOL   C742 6076   1.192   5.012   6.470 -0.4937  0.6114  0.6097
    8MOL   C743 6077   1.222   4.965   6.342  0.0350  0.2505 -0.3877
    8MOL   H744 6078   1.282   5.369   5.875 -1.5072  2.2627 -0.8338
    8MOL   H745 6079   1.428   5.339   5.784 -0.2768 -2.1008 -0.0795
    8MOL   H746 6080   1.325   5.378   5.571  0.7617 -0.1564  0.0981
    8MOL   H747 6081   1.252   5.508   5.665 -0.2951  0.2058  0.3235
    8MOL   H748 6082   1.053   5.374   5.700  0.8772 -0.2860 -0.0928
    8MOL   H749 6083   1.124   5.360   5.409 -0.4053  0.8652 -0.7183
    8MOL   H750 6084   1.124   5.516   5.477  3.0035 -1.3853  2.8479
    8MOL   H751 6085   1.176   5.171   5.524 -0.2888  1.3141 -0.4097
    8MOL   H752 6086   1.011   5.173   5.566  1.6670 -2.5691 -1.2811
    8MOL   H753 6087   1.073   5.131   5.802 -1.2771 -0.4144 -2.0227
    8MOL   H754 6088   1.167   5.017   5.710  1.1498 -0.6576  2.7317
    8MOL   H755 6089   1.364   5.139   5.693  0.5099 -0.4077  0.2444
    8MOL   H756 6090   1.449   5.128   5.915 -0.2077  0.3933 -1.1248
    8MOL   H757 6091   1.356   4.990   5.856  2.5335  0.7367 -3.0542
    8MOL   H758 6092   1.187   5.255   6.182  2.0778 -1.6665 -1.8084
    8MOL   H759 6093   1.132   5.343   6.410 -1.3678 -0.3466 -1.4088
    8MOL   H760 6094   1.198   4.945   6.555 -1.0650 -1.0061 -0.6025
    8MOL   H761 6095   1.243   4.863   6.315 -0.0376  0.5034 -1.4171
    8MOL   H762 6096   1.028   5.322   6.738 -0.2406  0.7553 -0.1739
    9MOL     C1 6097   3.541   0.705   3.018 -0.4715  0.4498 -0.0284
    9MOL     C2 6098   3.600   0.572   2.967  0.1949  0.0569 -0.5022
    9MOL     C3 6099   3.748   0.598   2.939 -0.4114  0.3261  0.5880
    9MOL     C4 6100   3.829   0.474   2.883  0.2953  0.3011 -0.4032
    9MOL     C5 6101   3.772   0.724   2.852  0.1578 -0.1455 -0.4270
    9MOL     C6 6102   3.693   0.852   2.902  0.1044  0.2097 -0.1621
    9MOL     C7 6103   3.544   0.830   2.930 -0.7428  0.8542 -0.2783
    9MOL     C8 6104   3.481   0.955   2.995  0.2416 -0.2146  0.4972
    9MOL     O9 6105   3.526   1.076   2.929  0.6724  0.6252  0.0258
    9MOL    C10 6106   3.563   1.184   2.998  0.3797 -0.8701  0.1509
    9MOL    O11 6107   3.559   1.189   3.119 -0.5961  0.5914 -0.6375
    9MOL    C12 6108   3.605   1.296   2.916  0.3684  0.4366  0.7007
    9MOL    C13 6109   3.640   1.281   2.781  1.1726  0.2096  0.3057
    9MOL    C14 6110   3.686   1.391   2.705  0.9449  0.4104  0.2435
    9MOL    C15 6111   3.701   1.520   2.767  0.6697 -0.1167  0.4339
    9MOL    C16 6112   3.756   1.624   2.675  0.0159 -0.5587 -0.4293
    9MOL    O17 6113   3.797   1.610   2.560  0.1728  0.1043 -0.5004
    9MOL    O18 6114   3.775   1.731   2.741  0.5270 -0.0568 -0.4387
    9MOL    C19 6115   3.658   1.539   2.904  0.0569 -0.3546  0.6430
    9MOL    C20 6116   3.616   1.427   2.973 -0.5314 -0.0635 -0.5296
    9MOL    H21 6117   3.581   0.724   3.117  0.3728  1.5532 -0.5629
    9MOL    H22 6118   3.433   0.696   3.029 -0.4964 -0.8062 -1.1464
    9MOL    H23 6119   3.566   0.549   2.866  0.3567 -0.7463 -0.3763
    9MOL    H24 6120   3.569   0.491   3.034 -1.8356 -0.6307 -2.2072
    9MOL    H25 6121   3.796   0.613   3.036  0.7522  1.6945 -0.1949
    9MOL    H26 6122   3.935   0.500   2.878  0.1860  0.3216 -3.3066
    9MOL    H27 6123   3.791   0.439   2.787 -1.2319 -2.5438  1.1613
    9MOL    H28 6124   3.730   0.704   2.753  1.2269  0.2003 -0.9617
    9MOL    H29 6125   3.876   0.756   2.842  0.0926 -0.1206 -1.0721
    9MOL    H30 6126   3.745   0.887   2.991  1.9581  0.9101 -1.5061
    9MOL    H31 6127   3.710   0.928   2.826 -1.7434  0.6808 -0.1419
    9MOL    H32 6128   3.493   0.809   2.836 -1.0593  1.8398 -0.3320
    9MOL    H33 6129   3.507   0.963   3.100 -0.3108  1.5117  0.5292
    9MOL    H34 6130   3.372   0.957   2.993  0.2054 -2.1301 -0.5655
    9MOL    H35 6131   3.639   1.179   2.745 -3.4768 -0.3900  1.7276
    9MOL    H36 6132   3.735   1.376   2.609  2.4970  0.9365  0.9281
    9MOL    H37 6133   3.666   1.631   2.960  1.4220  0.6864 -1.1942
    9MOL    H38 6134   3.598   1.445   3.078  1.9551 -1.5161  0.1763
    9MOL    H39 6135   3.824   0.390   2.952  0.6175  1.5654  1.1928
    9MOL    C40 6136   3.727   2.175   2.840  0.4632 -0.6781  0.1469
    9MOL    C41 6137   3.717   2.040   2.760 -0.6006 -0.2794  0.6076
    9MOL    C42 6138   3.845   1.961   2.774  0.0200  0.9689 -0.7016
    9MOL    C43 6139   3.843   1.842   2.682 -0.2116 -0.1402  0.6099
    9MOL    C44 6140   3.965   2.052   2.729 -0.2950  0.7243 -0.0854
    9MOL    C45 6141   3.974   2.184   2.807 -0.4471 -0.8253 -0.3017
    9MOL    C46 6142   3.845   2.261   2.795 -0.6309 -0.2382 -0.0423
    9MOL    C47 6143   3.853   2.393   2.870  0.6425  0.4038 -0.3722
    9MOL    O48 6144   3.880   2.401   3.004 -0.5083  0.3100 -0.0460
    9MOL    C49 6145   3.776   2.438   3.086 -0.2311  1.1226  0.0306
    9MOL    O50 6146   3.667   2.488   3.055  0.1306 -0.2163  0.0517
    9MOL    C51 6147   3.808   2.405   3.229 -0.4154 -0.1982  0.5135
    9MOL    C52 6148   3.767   2.500   3.324 -0.2976 -0.2228 -0.1880
    9MOL    C53 6149   3.809   2.487   3.458  0.2680  0.1779  0.0469
    9MOL    C54 6150   3.871   2.373   3.509 -1.1014  0.1232  0.0922
    9MOL    C55 6151   3.899   2.364   3.653 -0.0733 -0.4440 -0.3518
    9MOL    O56 6152   3.883   2.452   3.743  0.1153  0.1233  0.0183
    9MOL    O57 6153   3.948   2.241   3.677  0.1130 -0.4796 -0.1738
    9MOL    C58 6154   3.913   2.273   3.414  0.0501 -0.2605 -0.0105
    9MOL    C59 6155   3.879   2.297   3.277  0.8561  0.0838 -0.5736
    9MOL    H60 6156   3.746   2.161   2.947 -0.0383  1.0442  0.4792
    9MOL    H61 6157   3.630   2.225   2.832  2.0399  2.4446 -0.3040
    9MOL    H62 6158   3.707   2.067   2.654 -3.4225  0.5692  1.0294
    9MOL    H63 6159   3.641   1.971   2.796 -0.4929  0.1079  1.5914
    9MOL    H64 6160   3.856   1.931   2.878 -5.6774  1.5007  0.2582
    9MOL    H65 6161   3.944   1.801   2.677 -0.4485 -0.5413 -1.1783
    9MOL    H66 6162   3.813   1.856   2.578  0.3260 -0.3991  0.4190
    9MOL    H67 6163   3.958   2.069   2.622 -2.3500 -0.5070 -0.1850
    9MOL    H68 6164   4.064   2.008   2.738  0.1543  1.7208 -0.1233
    9MOL    H69 6165   4.004   2.163   2.910  2.0308 -1.8812 -1.2070
    9MOL    H70 6166   4.056   2.246   2.769 -0.6713  0.0553  0.6333
    9MOL    H71 6167   3.829   2.290   2.691  0.5165 -1.4187 -0.5588
    9MOL    H72 6168   3.775   2.462   2.838 -0.7056 -1.2196 -0.7181
    9MOL    H73 6169   3.934   2.452   2.829 -1.4979  3.3917 -0.4549
    9MOL    H74 6170   3.709   2.582   3.283  1.2869  0.6597 -0.7212
    9MOL    H75 6171   3.770   2.558   3.530 -1.2240 -0.9996  0.4357
    9MOL    H76 6172   3.953   2.177   3.445  0.6350 -0.1916 -0.5535
    9MOL    H77 6173   3.899   2.217   3.207  1.3401 -1.1433  0.9337
    9MOL    C78 6174   4.101   1.833   3.800 -0.2041  1.0325 -0.4894
    9MOL    C79 6175   4.107   1.980   3.776  0.3826  0.2403 -0.1310
    9MOL    C80 6176   3.967   2.044   3.805 -0.2949 -0.2511  0.4439
    9MOL    C81 6177   3.971   2.198   3.807  0.3134 -0.8489 -0.7381
    9MOL    C82 6178   3.856   1.974   3.720 -0.3597 -0.4586 -0.5005
    9MOL    C83 6179   3.865   1.817   3.723 -0.1517 -0.2495  0.0404
    9MOL    C84 6180   4.001   1.763   3.717 -0.4498  0.4554  0.3386
    9MOL    C85 6181   4.008   1.605   3.735  0.3877 -0.3667 -0.3464
    9MOL    O86 6182   4.136   1.556   3.732  0.5425  0.2958  0.1353
    9MOL    C87 6183   4.158   1.422   3.735 -1.0823 -0.7798  0.6342
    9MOL    O88 6184   4.073   1.338   3.714 -0.2060  0.3407 -0.6310
    9MOL    C89 6185   4.298   1.384   3.764  0.0578 -0.2506  0.6787
    9MOL    C90 6186   4.395   1.483   3.782  0.3012 -0.0222  0.2717
    9MOL    C91 6187   4.523   1.444   3.833 -0.0361 -0.4777  0.3676
    9MOL    C92 6188   4.556   1.311   3.855 -0.1998  0.1324  0.0393
    9MOL    C93 6189   4.695   1.270   3.911  0.5331  0.7047  0.2615
    9MOL    O94 6190   4.725   1.156   3.931  0.1873 -0.1140  0.1118
    9MOL    O95 6191   4.762   1.370   3.949  0.6293 -0.0747 -0.3491
    9MOL    C96 6192   4.460   1.219   3.835 -0.2365  1.0839 -1.0104
    9MOL    C97 6193   4.334   1.253   3.789 -0.0046  0.1303 -0.5142
    9MOL    H98 6194   4.082   1.819   3.907 -1.6388 -1.8020 -1.0477
    9MOL    H99 6195   4.201   1.792   3.786  0.2262  0.3122  3.9407
    9MOL   H100 6196   4.138   1.999   3.673  1.3100  0.7923  0.2476
    9MOL   H101 6197   4.177   2.026   3.845  1.8312 -1.4061 -0.4658
    9MOL   H102 6198   3.935   2.014   3.905  1.3260 -0.6769  0.8536
    9MOL   H103 6199   4.073   2.225   3.834  0.1984 -1.6260  0.5128
    9MOL   H104 6200   3.905   2.234   3.886  1.4887  0.8003 -0.4812
    9MOL   H105 6201   3.881   1.996   3.616 -1.7097  0.0567 -0.7148
    9MOL   H106 6202   3.758   2.011   3.747  0.6627  0.4417  2.1338
    9MOL   H107 6203   3.823   1.786   3.819  0.5328 -0.2232  0.3479
    9MOL   H108 6204   3.807   1.775   3.641 -1.4118  0.9631  0.2736
    9MOL   H109 6205   4.034   1.776   3.614  1.4496  1.2098  1.0232
    9MOL   H110 6206   3.961   1.553   3.652 -1.2406  2.7917 -1.4917
    9MOL   H111 6207   3.974   1.581   3.835  1.3413  1.2207  0.3777
    9MOL   H112 6208   4.366   1.587   3.770  0.5818  0.0441  0.1435
    9MOL   H113 6209   4.589   1.524   3.863  1.4129 -0.6606 -2.1487
    9MOL   H114 6210   4.479   1.112   3.838 -1.9486  0.7319 -1.9022
    9MOL   H115 6211   4.253   1.182   3.787 -0.6895  0.9149 -1.4810
    9MOL   C116 6212   5.122   1.644   4.161  0.0798 -0.4216 -0.1840
    9MOL   C117 6213   5.049   1.512   4.159 -0.0628 -0.1132 -0.0222
    9MOL   C118 6214   4.937   1.508   4.050  0.0344  0.1517 -0.3399
    9MOL   C119 6215   4.869   1.362   4.037 -0.8775  0.4123 -0.2495
    9MOL   C120 6216   4.840   1.625   4.091 -0.2910  0.8697 -0.3719
    9MOL   C121 6217   4.918   1.760   4.112 -0.2377  0.0512  0.2137
    9MOL   C122 6218   5.031   1.753   4.211 -0.3968 -0.4682  0.1659
    9MOL   C123 6219   5.104   1.890   4.236 -0.6074  0.2572 -0.3146
    9MOL   O124 6220   5.016   1.990   4.270  0.3522 -0.3171 -0.0616
    9MOL   C125 6221   5.049   2.116   4.238  0.2200 -0.1745 -0.0094
    9MOL   O126 6222   5.154   2.155   4.194  0.3622 -0.4486  0.1805
    9MOL   C127 6223   4.945   2.211   4.279  0.0238 -0.6981 -0.7901
    9MOL   C128 6224   4.834   2.178   4.363 -0.0563 -0.1643  0.1218
    9MOL   C129 6225   4.746   2.278   4.408  0.0654 -0.2536 -0.1887
    9MOL   C130 6226   4.759   2.419   4.381 -0.3787  0.1816 -0.7849
    9MOL   C131 6227   4.654   2.511   4.427 -0.2422 -0.8496  0.0874
    9MOL   O132 6228   4.577   2.498   4.524  0.0620 -0.4779 -0.2703
    9MOL   O133 6229   4.662   2.624   4.353  0.5659  0.5141 -0.1500
    9MOL   C134 6230   4.862   2.446   4.287 -0.3267  0.1833 -0.0539
    9MOL   C135 6231   4.954   2.343   4.247 -0.4329 -0.2351 -0.2224
    9MOL   H136 6232   5.151   1.668   4.059  1.1548 -0.6355  0.0686
    9MOL   H137 6233   5.214   1.653   4.218  0.0695  2.4161 -0.5227
    9MOL   H138 6234   5.002   1.500   4.256 -0.8986  3.3836  0.0620
    9MOL   H139 6235   5.115   1.431   4.127  0.0297 -1.6699  3.9214
    9MOL   H140 6236   4.977   1.524   3.950 -1.8820  1.1952 -0.9529
    9MOL   H141 6237   4.831   1.328   4.133  1.9019  1.4020  1.2719
    9MOL   H142 6238   4.945   1.295   3.997 -0.2705  1.0674 -0.2009
    9MOL   H143 6239   4.794   1.601   4.187  0.3590  0.9381 -0.0397
    9MOL   H144 6240   4.771   1.646   4.010 -2.4960 -2.3756  0.5811
    9MOL   H145 6241   4.961   1.789   4.016 -1.9946  0.7491 -0.3786
    9MOL   H146 6242   4.855   1.845   4.136 -0.7967 -0.3342  0.1037
    9MOL   H147 6243   4.989   1.724   4.307 -1.8621 -0.0298 -0.3360
    9MOL   H148 6244   5.165   1.911   4.148 -0.0533  1.9678  0.4641
    9MOL   H149 6245   5.177   1.871   4.315 -0.9103  0.6996  0.0679
    9MOL   H150 6246   4.813   2.072   4.374 -1.6014 -0.0750 -1.6516
    9MOL   H151 6247   4.663   2.248   4.470 -2.0923  0.2857 -2.7604
    9MOL   H152 6248   4.878   2.546   4.249  1.1623 -0.6549 -1.7374
    9MOL   H153 6249   5.035   2.372   4.182 -0.1280 -0.2363  0.1541
    9MOL   C154 6250   4.659   2.917   4.050 -0.0829 -0.3448  0.5065
    9MOL   C155 6251   4.678   2.832   4.172  0.1637 -0.4989 -0.2779
    9MOL   C156 6252   4.556   2.812   4.257  0.0427  0.4867  0.0893
    9MOL   C157 6253   4.588   2.738   4.385  0.0887 -1.2251  0.1802
    9MOL   C158 6254   4.495   2.947   4.289 -0.1640 -0.2495  0.0681
    9MOL   C159 6255   4.459   3.035   4.170  0.8215 -0.0429  0.4249
    9MOL   C160 6256   4.594   3.056   4.085  0.4782 -0.2890 -0.2113
    9MOL   C161 6257   4.585   3.153   3.971  0.6328 -0.3342  0.2907
    9MOL   O162 6258   4.706   3.146   3.904 -0.4591 -0.0597 -0.0133
    9MOL   C163 6259   4.709   3.180   3.774  0.1372  0.0051  0.7295
    9MOL   O164 6260   4.611   3.226   3.710 -0.3763  0.1427 -0.3024
    9MOL   C165 6261   4.840   3.158   3.715 -0.4462  0.3400 -0.4252
    9MOL   C166 6262   4.856   3.172   3.577  0.7193  0.5696  0.9539
    9MOL   C167 6263   4.984   3.158   3.521 -0.4022 -0.2638 -0.8380
    9MOL   C168 6264   5.099   3.132   3.602 -0.9561 -0.2466 -0.3903
    9MOL   C169 6265   5.234   3.128   3.533  0.7427  0.2058 -0.4435
    9MOL   O170 6266   5.343   3.148   3.592  0.7834 -0.6267 -0.1515
    9MOL   O171 6267   5.221   3.113   3.400 -0.2519 -0.3427 -0.2058
    9MOL   C172 6268   5.087   3.132   3.745 -0.2571 -0.8061  0.2106
    9MOL   C173 6269   4.954   3.143   3.795 -0.2253 -0.3420  0.2160
    9MOL   H174 6270   4.589   2.863   3.986 -1.1717  0.0536  1.3487
    9MOL   H175 6271   4.756   2.926   4.002 -0.9278  0.6411 -1.0700
    9MOL   H176 6272   4.745   2.886   4.239  1.1519 -1.4767 -0.4600
    9MOL   H177 6273   4.732   2.740   4.148 -1.3913 -0.9780 -2.1430
    9MOL   H178 6274   4.482   2.752   4.203  0.7682 -0.2947 -0.0358
    9MOL   H179 6275   4.491   2.722   4.433 -1.1154 -0.0640 -1.7827
    9MOL   H180 6276   4.637   2.798   4.461 -1.3084  0.4411 -0.2212
    9MOL   H181 6277   4.566   3.001   4.352  1.3918 -2.8936  0.6372
    9MOL   H182 6278   4.407   2.937   4.351  0.4368 -1.1754  0.7852
    9MOL   H183 6279   4.378   2.987   4.114  0.2757  1.6232 -0.2485
    9MOL   H184 6280   4.415   3.126   4.211  0.7075  0.1890 -0.2041
    9MOL   H185 6281   4.663   3.104   4.154  1.1069  0.3607 -1.2820
    9MOL   H186 6282   4.571   3.260   3.985 -1.5721 -0.6552  0.8471
    9MOL   H187 6283   4.502   3.113   3.912 -0.1222 -2.1383  2.4677
    9MOL   H188 6284   4.770   3.198   3.515  0.1253 -0.2592  1.4234
    9MOL   H189 6285   4.977   3.153   3.413 -1.5315  0.9134 -0.8263
    9MOL   H190 6286   5.175   3.103   3.800  2.4988  1.4168 -2.7477
    9MOL   H191 6287   4.940   3.133   3.902  0.1141  0.3310  0.3334
    9MOL   C192 6288   5.317   3.063   2.921  0.0806 -0.0610  0.3982
    9MOL   C193 6289   5.377   3.076   3.068 -0.9675 -0.3075 -0.2531
    9MOL   C194 6290   5.261   3.090   3.173 -0.9052  0.0040 -0.2058
    9MOL   C195 6291   5.330   3.115   3.306  0.8845  0.4817  0.0611
    9MOL   C196 6292   5.172   3.206   3.125 -0.4861  0.2851  0.0435
    9MOL   C197 6293   5.122   3.196   2.979  0.5213  0.2171 -0.0242
    9MOL   C198 6294   5.241   3.191   2.882 -0.3036  0.5048  0.4294
    9MOL   C199 6295   5.202   3.186   2.735 -0.1923  0.0473 -0.0912
    9MOL   O200 6296   5.320   3.202   2.660 -0.2853 -0.1170  0.6021
    9MOL   C201 6297   5.314   3.224   2.529  0.1979  0.2242 -0.1467
    9MOL   O202 6298   5.216   3.281   2.476  0.2542 -0.1637 -0.0115
    9MOL   C203 6299   5.434   3.176   2.448  0.4793  0.0840 -0.1949
    9MOL   C204 6300   5.523   3.080   2.511 -0.2016  0.1192 -0.4148
    9MOL   C205 6301   5.652   3.056   2.453  0.2761 -0.4462 -0.2253
    9MOL   C206 6302   5.698   3.133   2.338 -0.0578 -0.0138 -0.7124
    9MOL   C207 6303   5.835   3.129   2.280  0.1415 -0.7194 -0.8681
    9MOL   O208 6304   5.908   3.031   2.296 -0.9130 -0.0817 -0.4195
    9MOL   O209 6305   5.869   3.239   2.227 -0.2637  0.0846  0.3612
    9MOL   C210 6306   5.609   3.224   2.286  0.4496  0.3646 -0.1642
    9MOL   C211 6307   5.478   3.247   2.339 -0.2178  0.4310  0.0809
    9MOL   H212 6308   5.246   2.980   2.926  0.2986 -0.4421 -2.1190
    9MOL   H213 6309   5.387   3.032   2.844  0.7844 -2.0799  1.8137
    9MOL   H214 6310   5.458   3.148   3.078 -0.1718 -1.2632  0.3312
    9MOL   H215 6311   5.424   2.978   3.078 -2.8073 -1.3317 -1.3909
    9MOL   H216 6312   5.226   2.987   3.162  0.7167 -0.4913 -0.7840
    9MOL   H217 6313   5.371   3.213   3.327  1.6685 -0.0403  1.0567
    9MOL   H218 6314   5.407   3.040   3.326 -0.8255 -0.7780  2.1840
    9MOL   H219 6315   5.215   3.305   3.135 -1.5535  0.5937  1.6220
    9MOL   H220 6316   5.092   3.224   3.197 -3.1636 -1.5100 -2.3333
    9MOL   H221 6317   5.055   3.110   2.973 -0.2682  0.7275  1.2779
    9MOL   H222 6318   5.062   3.283   2.951 -1.2819 -0.1542  2.4867
    9MOL   H223 6319   5.304   3.279   2.894  1.7808 -0.9120  0.1320
    9MOL   H224 6320   5.142   3.274   2.710 -0.2650 -0.3943 -1.4830
    9MOL   H225 6321   5.150   3.093   2.714 -0.9535 -0.0971  2.2619
    9MOL   H226 6322   5.503   3.044   2.611 -2.0919  1.4000 -0.3044
    9MOL   H227 6323   5.723   2.996   2.507  2.3948  1.8638 -0.3584
    9MOL   H228 6324   5.631   3.286   2.200 -0.6444 -0.2673 -0.9102
    9MOL   H229 6325   5.419   3.333   2.312  1.7722  1.3949 -1.3428
    9MOL   C230 6326   6.199   3.411   2.444  0.9613 -0.7283 -0.1536
    9MOL   C231 6327   6.078   3.390   2.353 -0.1849 -0.0339 -0.6098
    9MOL   C232 6328   6.111   3.286   2.249 -0.3656  0.0723  0.0036
    9MOL   C233 6329   5.991   3.256   2.158 -0.0279  0.3124  0.3648
    9MOL   C234 6330   6.242   3.321   2.172 -0.0477  0.4464 -0.4399
    9MOL   C235 6331   6.359   3.343   2.267 -0.3077  0.7534  0.2209
    9MOL   C236 6332   6.333   3.441   2.375  0.3670 -0.5483  0.0086
    9MOL   C237 6333   6.449   3.469   2.471 -0.3935 -0.2539  0.2120
    9MOL   O238 6334   6.477   3.360   2.561  0.1376  0.8894 -0.3308
    9MOL   C239 6335   6.564   3.376   2.662  0.2099 -0.6952 -0.3482
    9MOL   O240 6336   6.616   3.486   2.681 -0.1232  0.7959 -0.7100
    9MOL   C241 6337   6.586   3.263   2.747 -0.0182 -0.4838 -0.8844
    9MOL   C242 6338   6.678   3.265   2.846  0.5927 -0.3338  0.5808
    9MOL   C243 6339   6.708   3.146   2.916 -0.6908  0.4160 -0.5050
    9MOL   C244 6340   6.630   3.031   2.906  0.0304 -0.3520  0.4297
    9MOL   C245 6341   6.657   2.902   2.976 -0.0298  0.2868 -0.7818
    9MOL   O246 6342   6.572   2.814   2.985  0.6647  0.4916  0.1626
    9MOL   O247 6343   6.783   2.889   3.027 -0.2158 -0.0837 -0.1372
    9MOL   C248 6344   6.545   3.028   2.794 -0.4467 -0.0997 -0.3726
    9MOL   C249 6345   6.523   3.146   2.717  0.1999  1.3052  0.2281
    9MOL   H250 6346   6.208   3.320   2.504 -1.7114 -2.7068 -2.6116
    9MOL   H251 6347   6.193   3.504   2.501 -0.0253  0.0800 -1.5481
    9MOL   H252 6348   6.042   3.486   2.316  1.6953  1.7311  1.8938
    9MOL   H253 6349   6.013   3.346   2.428 -0.8991  1.1497 -0.5224
    9MOL   H254 6350   6.136   3.200   2.310  3.1977  3.1856  3.2654
    9MOL   H255 6351   6.018   3.167   2.102  0.1746  1.2387 -1.0596
    9MOL   H256 6352   5.988   3.342   2.090 -0.1005 -0.7233 -0.9628
    9MOL   H257 6353   6.220   3.397   2.096 -0.3980 -0.3658 -1.1578
    9MOL   H258 6354   6.270   3.235   2.112  1.4160 -0.1850  1.1187
    9MOL   H259 6355   6.377   3.241   2.303  0.2774  0.5567 -0.6211
    9MOL   H260 6356   6.443   3.372   2.204  0.5078 -2.3336 -0.2219
    9MOL   H261 6357   6.324   3.540   2.330 -0.1084 -0.6449 -0.1096
    9MOL   H262 6358   6.427   3.558   2.529 -0.6779  0.2116 -0.6037
    9MOL   H263 6359   6.540   3.486   2.414  0.0284  0.3880  1.0880
    9MOL   H264 6360   6.733   3.357   2.859  1.2823 -0.5314 -0.8096
    9MOL   H265 6361   6.796   3.145   2.978 -0.3947 -1.2189 -0.9297
    9MOL   H266 6362   6.479   2.945   2.775 -3.4447  2.2085 -0.4787
    9MOL   H267 6363   6.455   3.143   2.634  1.3546 -1.1884 -0.6888
    9MOL   C268 6364   6.853   2.840   3.424  0.4250  0.5318  0.0831
    9MOL   C269 6365   6.888   2.861   3.281 -0.8024 -0.1499 -0.2285
    9MOL   C270 6366   6.829   2.746   3.206 -0.0077 -0.6242  0.3894
    9MOL   C271 6367   6.827   2.758   3.058  0.1534 -1.0277  0.2085
    9MOL   C272 6368   6.877   2.607   3.244 -0.8771 -0.1631 -0.0945
    9MOL   C273 6369   6.867   2.581   3.396  0.1211 -0.0102  0.3890
    9MOL   C274 6370   6.915   2.710   3.485 -0.0525  0.1507  0.4574
    9MOL   C275 6371   6.875   2.699   3.634 -0.0923 -0.7274  0.4743
    9MOL   O276 6372   6.977   2.636   3.715  0.0970 -0.1684 -0.4337
    9MOL   C277 6373   7.090   2.701   3.749 -0.2360  0.1436  0.5985
    9MOL   O278 6374   7.114   2.825   3.746 -0.7790  0.3799  0.1164
    9MOL   C279 6375   7.200   2.600   3.797 -0.5134 -0.3912  0.3138
    9MOL   C280 6376   7.330   2.644   3.784  0.4676 -0.4711 -0.3843
    9MOL   C281 6377   7.430   2.549   3.814 -0.4078  0.4028 -0.1449
    9MOL   C282 6378   7.403   2.412   3.851 -0.2899 -0.3121 -0.3394
    9MOL   C283 6379   7.513   2.315   3.876  0.0627 -0.0323 -0.2066
    9MOL   O284 6380   7.509   2.190   3.868 -0.0399 -0.2077 -0.3734
    9MOL   O285 6381   7.629   2.372   3.909  0.5202 -0.1387 -0.6416
    9MOL   C286 6382   7.270   2.371   3.871  0.4292 -0.6423  0.0771
    9MOL   C287 6383   7.166   2.465   3.834  0.2360 -0.2926 -0.7748
    9MOL   H288 6384   6.744   2.838   3.430  0.4802 -1.0820  0.6523
    9MOL   H289 6385   6.884   2.922   3.489  3.7341 -1.4655  1.1319
    9MOL   H290 6386   6.997   2.864   3.273 -0.6199  0.1738  2.1214
    9MOL   H291 6387   6.862   2.961   3.248 -1.0296 -0.5823 -1.3964
    9MOL   H292 6388   6.722   2.741   3.226 -0.2208 -0.9964 -0.7752
    9MOL   H293 6389   6.770   2.678   3.011 -0.2819 -1.4938  1.4938
    9MOL   H294 6390   6.930   2.742   3.026  0.7622  1.7889  0.6621
    9MOL   H295 6391   6.981   2.600   3.214 -0.6852  0.3378  0.4538
    9MOL   H296 6392   6.823   2.528   3.190 -0.4600  0.2919 -1.1962
    9MOL   H297 6393   6.765   2.562   3.429 -1.1069  1.2208 -2.5381
    9MOL   H298 6394   6.934   2.499   3.422 -0.7694 -0.7844  0.2575
    9MOL   H299 6395   7.023   2.718   3.475 -0.1909 -0.2403 -1.4614
    9MOL   H300 6396   6.778   2.652   3.648  0.7702 -2.3171  1.2176
    9MOL   H301 6397   6.852   2.797   3.675  0.2245  0.6268 -2.4896
    9MOL   H302 6398   7.358   2.740   3.744 -2.8485  0.0294 -1.6654
    9MOL   H303 6399   7.531   2.588   3.808 -0.0184 -0.7249 -1.1829
    9MOL   H304 6400   7.235   2.272   3.896  0.2796  0.0039  2.4676
    9MOL   H305 6401   7.071   2.415   3.834 -0.5198  1.1160 -2.3347
    9MOL   C306 6402   0.013   2.088   3.830  0.0170 -0.0249 -0.2389
    9MOL   C307 6403   7.926   2.129   3.925 -0.2710 -1.5092  0.1319
    9MOL   C308 6404   7.815   2.217   3.863 -0.2107 -0.0310 -0.0073
    9MOL   C309 6405   7.733   2.289   3.971 -0.4026  0.1619 -0.5213
    9MOL   C310 6406   7.863   2.331   3.770  0.0776 -0.2387 -0.0864
    9MOL   C311 6407   7.965   2.276   3.674  0.5277  0.8887 -0.4271
    9MOL   C312 6408   0.052   2.213   3.750 -0.3861  0.1428 -0.1339
    9MOL   C313 6409   0.170   2.186   3.657 -0.2583  0.5119  0.0568
    9MOL   O314 6410   0.152   2.065   3.586  0.1596  0.3700  0.1334
    9MOL   C315 6411   0.233   2.041   3.486 -0.3145  0.2486  0.4027
    9MOL   O316 6412   0.328   2.116   3.465 -0.5196  0.8241 -0.0719
    9MOL   C317 6413   0.193   1.927   3.395  0.5549  0.1224 -1.4251
    9MOL   C318 6414   0.073   1.851   3.418  0.5609  0.6049 -0.8032
    9MOL   C319 6415   0.024   1.752   3.330 -0.6870  0.5804  0.3013
    9MOL   C320 6416   0.089   1.728   3.208 -0.3011  0.0018 -0.2473
    9MOL   C321 6417   0.040   1.622   3.114  0.1142 -0.5424  0.5569
    9MOL   O322 6418   0.064   1.616   2.996 -0.6403 -0.1113  0.3272
    9MOL   O323 6419   7.998   1.536   3.183  0.1842  0.9169 -0.4807
    9MOL   C324 6420   0.215   1.792   3.184  0.0639  0.1648 -0.9453
    9MOL   C325 6421   0.263   1.888   3.278 -0.0207 -0.4412  0.4434
    9MOL   H326 6422   8.024   1.998   3.772  3.2078  0.6225 -2.5215
    9MOL   H327 6423   0.099   2.066   3.893 -0.5895  0.9656  0.9541
    9MOL   H328 6424   7.966   2.175   4.015 -2.7926  0.7191  0.1634
    9MOL   H329 6425   7.873   2.040   3.958 -1.7407 -1.0234 -0.8844
    9MOL   H330 6426   7.753   2.151   3.803 -1.3969 -0.0103  1.1785
    9MOL   H331 6427   7.800   2.359   4.021 -1.7102 -0.4922  2.2838
    9MOL   H332 6428   7.691   2.219   4.043  0.6244 -1.2786 -1.3196
    9MOL   H333 6429   7.916   2.404   3.832 -0.7845  0.2567  0.0635
    9MOL   H334 6430   7.785   2.387   3.719 -0.1832 -0.4378  0.0894
    9MOL   H335 6431   7.907   2.206   3.614  2.6374 -0.8636 -0.4707
    9MOL   H336 6432   7.997   2.356   3.608  2.3309  1.0706  0.6257
    9MOL   H337 6433   0.085   2.291   3.819 -1.7983  0.7670 -0.1563
    9MOL   H338 6434   0.255   2.188   3.725 -0.4535 -1.6447  0.3992
    9MOL   H339 6435   0.185   2.260   3.579  3.3981 -1.4316 -1.1730
    9MOL   H340 6436   0.008   1.860   3.504 -0.8081  0.2098 -1.7723
    9MOL   H341 6437   7.961   1.706   3.353 -0.4212  0.9114  2.0900
    9MOL   H342 6438   0.273   1.772   3.095  1.3874  2.9838 -0.7622
    9MOL   H343 6439   0.363   1.925   3.262 -0.2350  0.7448  1.7912
    9MOL   C344 6440   7.668   1.468   2.857 -0.4052  0.0673  0.6862
    9MOL   C345 6441   7.809   1.480   2.917  0.0226 -0.4382 -0.0164
    9MOL   C346 6442   7.813   1.430   3.065 -0.4531 -0.0488  0.1398
    9MOL   C347 6443   7.946   1.412   3.135  0.7555  0.0676  0.3021
    9MOL   C348 6444   7.708   1.501   3.152  0.3392 -0.2531  0.7087
    9MOL   C349 6445   7.568   1.506   3.084 -0.0738  0.1938 -0.3905
    9MOL   C350 6446   7.568   1.542   2.939  0.4877 -0.3947  0.0560
    9MOL   C351 6447   7.424   1.540   2.885  0.0450 -0.3956 -0.2637
    9MOL   O352 6448   7.383   1.649   2.803  0.3753  0.0057 -0.5995
    9MOL   C353 6449   7.401   1.641   2.669 -0.2218  0.1740 -0.0192
    9MOL   O354 6450   7.467   1.547   2.617 -0.0512 -0.1014 -0.7530
    9MOL   C355 6451   7.340   1.761   2.596  0.1674  0.1430  0.8506
    9MOL   C356 6452   7.223   1.820   2.645 -0.1194  0.2213 -0.4408
    9MOL   C357 6453   7.156   1.928   2.586 -0.5944  0.3323 -0.4769
    9MOL   C358 6454   7.212   1.976   2.465  0.3579  0.0115  0.3932
    9MOL   C359 6455   7.145   2.088   2.407  1.3076 -0.8488  0.0831
    9MOL   O360 6456   7.027   2.108   2.412 -0.2374 -0.2645 -0.3232
    9MOL   O361 6457   7.228   2.170   2.344  0.3879  0.0558 -0.4045
    9MOL   C362 6458   7.322   1.914   2.406  0.0982 -0.1460 -0.3970
    9MOL   C363 6459   7.390   1.810   2.474  0.6110  0.3347 -0.1256
    9MOL   H364 6460   7.642   1.363   2.840 -1.6044  0.6296 -1.0786
    9MOL   H365 6461   7.679   1.512   2.758  1.6771 -1.9532 -0.0565
    9MOL   H366 6462   7.850   1.580   2.911  0.7057 -0.8128 -1.6342
    9MOL   H367 6463   7.870   1.425   2.846  1.7805  1.2287  0.1635
    9MOL   H368 6464   7.770   1.330   3.061  0.7202 -0.7224  3.2760
    9MOL   H369 6465   8.027   1.380   3.068  1.1120 -0.0299  0.7733
    9MOL   H370 6466   7.933   1.348   3.222 -0.0511  0.0255  0.1492
    9MOL   H371 6467   7.761   1.594   3.173 -0.5925 -0.0770  2.3094
    9MOL   H372 6468   7.705   1.450   3.248  2.2290  2.6232  2.3786
    9MOL   H373 6469   7.528   1.406   3.098  0.4960  0.1708  1.1093
    9MOL   H374 6470   7.495   1.570   3.134 -1.0601 -0.7688 -0.5660
    9MOL   H375 6471   7.602   1.645   2.935  0.8110 -0.5385 -1.1831
    9MOL   H376 6472   7.358   1.545   2.972 -0.5787 -0.7493 -0.7061
    9MOL   H377 6473   7.394   1.446   2.838  0.1804 -1.4280  1.6665
    9MOL   H378 6474   7.191   1.779   2.740  2.4427  0.9745  0.7879
    9MOL   H379 6475   7.066   1.972   2.626 -1.1003  0.5386 -1.8067
    9MOL   H380 6476   7.348   1.956   2.310  0.4767  1.1904  0.2704
    9MOL   H381 6477   7.483   1.773   2.435  1.8651  1.6260  1.5938
    9MOL   C382 6478   7.081   2.112   1.924  0.1142  0.2055 -0.1264
    9MOL   C383 6479   7.104   2.120   2.072 -0.2717  0.0356 -0.8130
    9MOL   C384 6480   7.170   2.253   2.119 -1.0862  0.0130  0.8074
    9MOL   C385 6481   7.177   2.280   2.264 -0.6742 -0.2349 -0.1813
    9MOL   C386 6482   7.309   2.265   2.054  0.8202 -1.2623  0.3740
    9MOL   C387 6483   7.288   2.267   1.903  0.1934 -0.3059 -0.2579
    9MOL   C388 6484   7.211   2.143   1.846 -0.4060 -0.0853 -0.6359
    9MOL   C389 6485   7.188   2.149   1.698 -0.7317 -0.0200  0.4687
    9MOL   O390 6486   7.309   2.169   1.624 -0.4881 -0.4563  0.4837
    9MOL   C391 6487   7.310   2.168   1.496 -0.0449  0.1738 -0.3789
    9MOL   O392 6488   7.218   2.133   1.421 -0.1900 -0.6713 -0.0891
    9MOL   C393 6489   7.437   2.222   1.439 -0.3002  0.7784  0.3536
    9MOL   C394 6490   7.549   2.239   1.520 -0.3108  1.3581 -0.8385
    9MOL   C395 6491   7.667   2.279   1.460  0.8215 -0.3074 -0.0835
    9MOL   C396 6492   7.676   2.294   1.323  0.0053  0.9704  0.0070
    9MOL   C397 6493   7.803   2.350   1.264  0.2183  0.2023  0.0994
    9MOL   O398 6494   7.875   2.431   1.331 -0.1532 -0.6092 -0.7032
    9MOL   O399 6495   7.841   2.292   1.149 -0.2371 -0.2063  0.0233
    9MOL   C400 6496   7.563   2.278   1.240 -0.0203 -0.0623 -0.2205
    9MOL   C401 6497   7.445   2.234   1.300  0.2976 -0.3150  0.0346
    9MOL   H402 6498   7.015   2.187   1.880 -0.7414 -0.9306 -0.7964
    9MOL   H403 6499   7.044   2.016   1.888 -1.2745 -0.0909  1.9912
    9MOL   H404 6500   7.161   2.033   2.107 -1.9450 -1.1415 -0.9438
    9MOL   H405 6501   7.005   2.098   2.112  0.6929 -1.3337  0.9252
    9MOL   H406 6502   7.108   2.332   2.076  2.2244  1.2348 -2.0264
    9MOL   H407 6503   7.084   2.316   2.306 -0.6528  0.6843 -0.9026
    9MOL   H408 6504   7.237   2.369   2.282 -2.3378  0.8248  0.2277
    9MOL   H409 6505   7.364   2.174   2.080  0.4712 -1.0905  1.7230
    9MOL   H410 6506   7.364   2.356   2.078 -1.0272 -0.1215  0.3570
    9MOL   H411 6507   7.238   2.359   1.872 -1.9108 -0.7677  1.6653
    9MOL   H412 6508   7.384   2.264   1.853  0.1504 -0.7407 -0.3171
    9MOL   H413 6509   7.286   2.064   1.854  0.1482  0.6033  1.2201
    9MOL   H414 6510   7.110   2.221   1.674  1.3262  1.4899 -1.9158
    9MOL   H415 6511   7.142   2.053   1.675 -0.5177  0.3664 -1.6713
    9MOL   H416 6512   7.549   2.224   1.627  2.4532  0.4564 -0.9260
    9MOL   H417 6513   7.756   2.299   1.517 -1.6984  0.1890  3.8511
    9MOL   H418 6514   7.571   2.291   1.133 -0.6458 -0.8416 -0.3683
    9MOL   H419 6515   7.363   2.213   1.234  0.1795 -2.7427  0.8969
    9MOL   C420 6516   0.217   2.160   1.243  0.0168 -0.0689  0.2099
    9MOL   C421 6517   0.090   2.245   1.233 -0.1207  0.0881 -0.2676
    9MOL   C422 6518   0.053   2.271   1.081 -0.1907  0.8346 -0.4583
    9MOL   C423 6519   7.948   2.348   1.072  0.2856  0.1295 -0.6104
    9MOL   C424 6520   0.175   2.335   1.006 -0.0405 -0.4107  0.2351
    9MOL   C425 6521   0.308   2.262   1.028  0.8233  0.2404  0.2393
    9MOL   C426 6522   0.336   2.234   1.178 -0.2510 -0.2804 -0.3679
    9MOL   C427 6523   0.468   2.161   1.216 -0.4010  0.3495  0.2096
    9MOL   O428 6524   0.468   2.050   1.121 -0.3910 -0.4443 -0.1119
    9MOL   C429 6525   0.572   1.972   1.128 -0.1532  0.0849 -0.6836
    9MOL   O430 6526   0.659   1.976   1.215  0.3494 -0.8768  0.4919
    9MOL   C431 6527   0.587   1.883   1.012  0.5000 -0.4663 -0.2072
    9MOL   C432 6528   0.673   1.773   1.019  0.0037 -0.3142  0.5985
    9MOL   C433 6529   0.682   1.683   0.915  0.5126  0.3146  0.4306
    9MOL   C434 6530   0.601   1.701   0.798  0.0963 -0.0800  0.0457
    9MOL   C435 6531   0.614   1.609   0.684 -0.0377 -1.3141 -0.2660
    9MOL   O436 6532   0.551   1.628   0.582 -0.1527  0.3479 -0.2731
    9MOL   O437 6533   0.693   1.508   0.707  0.1431 -0.6594 -0.0534
    9MOL   C438 6534   0.516   1.816   0.786  0.1334 -0.3404 -0.6341
    9MOL   C439 6535   0.516   1.914   0.892  0.6829  0.1223 -0.2202
    9MOL   H440 6536   0.204   2.063   1.195  3.2266 -1.1902  1.4699
    9MOL   H441 6537   0.242   2.136   1.346  1.8807  0.5654 -0.0629
    9MOL   H442 6538   0.092   2.342   1.283 -0.9468 -1.2579  2.4914
    9MOL   H443 6539   0.009   2.186   1.276 -1.3223 -0.6768 -3.5075
    9MOL   H444 6540   0.033   2.175   1.034  1.7203 -0.2128  0.8334
    9MOL   H445 6541   7.914   2.361   0.969  1.8286  1.3217 -0.9996
    9MOL   H446 6542   7.975   2.449   1.104 -0.4538  0.8639 -2.2526
    9MOL   H447 6543   0.195   2.437   1.040  0.4553 -0.4375  0.0179
    9MOL   H448 6544   0.152   2.346   0.900  1.2605 -1.1531 -0.1338
    9MOL   H449 6545   0.290   2.165   0.981  1.0528  0.5805 -0.5558
    9MOL   H450 6546   0.386   2.313   0.972  0.1083 -1.4134 -2.3691
    9MOL   H451 6547   0.348   2.333   1.223  1.7261  0.0559 -1.5569
    9MOL   H452 6548   0.450   2.114   1.313 -2.1489  1.1104  0.2833
    9MOL   H453 6549   0.558   2.222   1.220  1.2533 -1.7856 -2.8646
    9MOL   H454 6550   0.730   1.749   1.107 -0.2724 -1.9506  0.3458
    9MOL   H455 6551   0.756   1.604   0.917  0.0058 -0.1345  3.8024
    9MOL   H456 6552   0.461   1.834   0.695 -3.2144  1.5079  1.6622
    9MOL   H457 6553   0.457   2.002   0.872 -0.6642 -0.5431  0.7057
    9MOL   C458 6554   1.065   1.331   0.820 -0.3990  0.0267 -0.1816
    9MOL   C459 6555   0.960   1.420   0.740 -0.7532 -0.8670 -0.1980
    9MOL   C460 6556   0.861   1.336   0.672 -0.2772 -0.4038 -0.1669
    9MOL   C461 6557   0.747   1.417   0.609  0.0498  0.0041  0.1199
    9MOL   C462 6558   0.924   1.229   0.585  0.5969  0.1704  0.2918
    9MOL   C463 6559   1.020   1.141   0.658  0.6982  0.5243  0.4351
    9MOL   C464 6560   1.125   1.227   0.732  0.6764 -0.6732 -0.3305
    9MOL   C465 6561   1.214   1.129   0.815  0.7186  0.1758  0.0090
    9MOL   O466 6562   1.340   1.180   0.822  0.0557 -0.7553  0.1713
    9MOL   C467 6563   1.374   1.254   0.926  0.0494  0.0985 -0.3791
    9MOL   O468 6564   1.313   1.268   1.033  0.4648  0.2240  0.2997
    9MOL   C469 6565   1.499   1.325   0.901  0.3311 -0.2005  0.9262
    9MOL   C470 6566   1.542   1.422   0.994 -0.4095  0.0069  0.1637
    9MOL   C471 6567   1.665   1.492   0.975  0.0759  0.7586  0.5722
    9MOL   C472 6568   1.740   1.485   0.857 -0.1671 -0.7712 -0.0228
    9MOL   C473 6569   1.871   1.563   0.845 -0.1627 -0.5764  0.7404
    9MOL   O474 6570   1.913   1.638   0.934  0.0483 -0.0101  0.3312
    9MOL   O475 6571   1.924   1.545   0.723 -0.0975  0.1318 -0.3759
    9MOL   C476 6572   1.687   1.398   0.761 -0.2228  0.6438  0.0245
    9MOL   C477 6573   1.569   1.317   0.781  0.1928 -0.0379 -0.1342
    9MOL   H478 6574   1.029   1.280   0.909 -3.5975  0.4840 -1.1585
    9MOL   H479 6575   1.138   1.406   0.849 -1.6057  0.6384  1.3275
    9MOL   H480 6576   1.008   1.494   0.676  2.5011 -1.3846  1.5339
    9MOL   H481 6577   0.911   1.481   0.817 -1.8018 -0.0852 -1.4652
    9MOL   H482 6578   0.810   1.291   0.757  0.1600 -2.1290 -0.8048
    9MOL   H483 6579   0.667   1.363   0.558  1.5979  0.2326 -2.6808
    9MOL   H484 6580   0.796   1.468   0.525  0.8596 -0.8452  0.0584
    9MOL   H485 6581   0.989   1.271   0.508  0.3560 -2.1005 -1.1850
    9MOL   H486 6582   0.851   1.173   0.526 -0.1761  1.2833  0.1880
    9MOL   H487 6583   0.965   1.090   0.737  0.5978 -0.5599 -0.3251
    9MOL   H488 6584   1.063   1.064   0.594 -1.7993  0.1639 -0.8690
    9MOL   H489 6585   1.185   1.276   0.656 -0.5712  2.0005  0.3621
    9MOL   H490 6586   1.229   1.037   0.759  0.8698  0.8310 -1.0535
    9MOL   H491 6587   1.169   1.104   0.911 -2.0416  0.4916 -1.1324
    9MOL   H492 6588   1.492   1.439   1.088 -0.7068 -1.6892  0.3210
    9MOL   H493 6589   1.708   1.549   1.056  0.0946  0.0081  1.0910
    9MOL   H494 6590   1.731   1.394   0.662  0.9823  1.1114  0.5339
    9MOL   H495 6591   1.535   1.259   0.697 -1.8475 -1.1665  1.4211
    9MOL   C496 6592   2.112   1.820   0.428 -0.2570  0.2714  0.1589
    9MOL   C497 6593   2.056   1.764   0.558  0.5251 -0.4725  0.2131
    9MOL   C498 6594   2.106   1.617   0.576  0.3984 -0.0054  0.7941
    9MOL   C499 6595   2.071   1.551   0.716  0.2342  0.8890  0.7466
    9MOL   C500 6596   2.054   1.538   0.457 -0.2728 -0.1510 -0.1234
    9MOL   C501 6597   2.115   1.597   0.330  0.1455  0.0521 -0.4912
    9MOL   C502 6598   2.072   1.745   0.303 -0.1797 -0.2927 -0.4907
    9MOL   C503 6599   2.156   1.809   0.189 -0.3482  0.4138 -0.6013
    9MOL   O504 6600   2.086   1.924   0.142  0.0850  0.2839  0.4593
    9MOL   C505 6601   2.163   2.010   0.070 -0.4220  0.1077  0.4741
    9MOL   O506 6602   2.277   1.979   0.040  0.4094 -0.6318 -0.0409
    9MOL   C507 6603   2.103   2.140   0.043 -0.6369 -0.0417 -0.1001
    9MOL   C508 6604   1.974   2.177   0.084  0.4995  0.2844 -0.6394
    9MOL   C509 6605   1.905   2.285   0.029  0.1251  0.1086  0.5527
    9MOL   C510 6606   1.972   2.377   7.979  0.3156 -0.3375  0.2714
    9MOL   C511 6607   1.907   2.504   7.932 -0.2097  0.7244 -0.4288
    9MOL   O512 6608   1.960   2.597   7.862 -0.2096 -0.8342  0.2458
    9MOL   O513 6609   1.773   2.507   7.962  0.1293 -0.1863 -0.0939
    9MOL   C514 6610   2.101   2.350   7.945 -0.6518 -0.1948 -0.6571
    9MOL   C515 6611   2.166   2.226   7.985 -0.0487 -0.2390  0.0088
    9MOL   H516 6612   2.221   1.813   0.437 -0.1318 -0.1334 -1.5119
    9MOL   H517 6613   2.101   1.927   0.417  0.8540  0.4404  0.6438
    9MOL   H518 6614   1.947   1.770   0.559  0.4846 -0.4742 -2.0326
    9MOL   H519 6615   2.094   1.808   0.650 -0.9491  1.3459 -0.0130
    9MOL   H520 6616   2.215   1.622   0.578  0.3660  0.4309  2.4466
    9MOL   H521 6617   2.101   1.613   0.800  2.8314  2.1998 -1.0682
    9MOL   H522 6618   2.134   1.464   0.733 -0.7414  0.0407  0.0977
    9MOL   H523 6619   1.946   1.546   0.462 -0.2162 -0.3716  1.8417
    9MOL   H524 6620   2.078   1.432   0.459  2.2595  0.3888 -0.2591
    9MOL   H525 6621   2.223   1.589   0.342 -0.0610  0.4366  1.8256
    9MOL   H526 6622   2.077   1.536   0.248 -1.1862  0.4344 -0.1644
    9MOL   H527 6623   1.963   1.747   0.296 -0.1005 -0.7511 -1.9090
    9MOL   H528 6624   2.163   1.737   0.107 -0.2881 -1.9058  1.3709
    9MOL   H529 6625   2.255   1.829   0.230  0.4425 -2.0745 -1.2002
    9MOL   H530 6626   1.923   2.117   0.157  2.8555 -0.1944  0.6783
    9MOL   H531 6627   1.802   2.297   0.057 -0.5973 -1.4821 -1.2963
    9MOL   H532 6628   2.156   2.433   7.904  0.2271  1.0501  2.8361
    9MOL   H533 6629   2.269   2.198   7.967  0.6325  2.4480 -0.4955
    9MOL   C534 6630   1.535   2.747   0.222 -0.1475 -0.7473  0.3133
    9MOL   C535 6631   1.630   2.729   0.104 -0.1412 -0.0172 -0.1192
    9MOL   C536 6632   1.583   2.624   0.003  0.1504 -0.0195  0.6001
    9MOL   C537 6633   1.681   2.607   7.921 -0.9040  0.3620  0.1626
    9MOL   C538 6634   1.512   2.500   0.057 -0.3910 -0.1637  0.4601
    9MOL   C539 6635   1.414   2.535   0.177  0.4017  0.7341  0.4273
    9MOL   C540 6636   1.491   2.614   0.284  0.1080 -0.1422 -0.5013
    9MOL   C541 6637   1.406   2.649   0.410 -0.3022  0.2682  0.0514
    9MOL   O542 6638   1.320   2.546   0.468 -0.9565  0.2074 -0.2488
    9MOL   C543 6639   1.376   2.444   0.531 -0.5384 -0.1227 -0.5353
    9MOL   O544 6640   1.501   2.437   0.544  0.3565 -0.0090  0.1475
    9MOL   C545 6641   1.277   2.345   0.584  0.9407 -0.3746  0.1009
    9MOL   C546 6642   1.305   2.267   0.699 -0.3845 -0.4696 -0.2909
    9MOL   C547 6643   1.202   2.200   0.769  0.5145 -0.3679 -0.2949
    9MOL   C548 6644   1.067   2.189   0.719  0.4591 -0.0010  0.7938
    9MOL   C549 6645   0.965   2.122   0.800  0.5916 -0.2892  0.9188
    9MOL   O550 6646   0.845   2.117   0.769 -0.5125  0.1103 -0.4471
    9MOL   O551 6647   1.016   2.049   0.901  0.3540 -0.1221 -0.1301
    9MOL   C552 6648   1.037   2.262   0.601  0.7728  0.3168  0.0763
    9MOL   C553 6649   1.139   2.341   0.538 -0.1011 -0.0975  0.0126
    9MOL   H554 6650   1.449   2.811   0.201  0.7701  0.7439  1.0726
    9MOL   H555 6651   1.599   2.801   0.291  1.7409 -0.6028 -1.5240
    9MOL   H556 6652   1.731   2.705   0.135  0.3182  0.1054 -1.4771
    9MOL   H557 6653   1.633   2.825   0.054  2.9290  0.1522  0.3317
    9MOL   H558 6654   1.506   2.684   7.985  0.8941  0.7259  0.3300
    9MOL   H559 6655   1.735   2.702   7.930 -1.8083  1.2725 -3.4847
    9MOL   H560 6656   1.633   2.608   7.824  0.2252 -1.6695 -0.4376
    9MOL   H561 6657   1.574   2.422   0.100  0.3312  0.3493  0.3720
    9MOL   H562 6658   1.459   2.465   8.000  0.9630  1.1388 -0.8955
    9MOL   H563 6659   1.334   2.594   0.132  1.1698  0.8826 -0.7700
    9MOL   H564 6660   1.362   2.445   0.207  0.6416  0.0182 -1.2710
    9MOL   H565 6661   1.578   2.559   0.321  0.9184  0.7327 -1.0672
    9MOL   H566 6662   1.339   2.730   0.380  0.7236  0.7640 -0.9434
    9MOL   H567 6663   1.468   2.679   0.494  1.4758 -0.7584 -0.8666
    9MOL   H568 6664   1.400   2.268   0.751 -0.4796 -0.8015 -0.1127
    9MOL   H569 6665   1.230   2.137   0.853  2.3305  0.3316 -0.3482
    9MOL   H570 6666   0.936   2.264   0.562  0.9861 -0.7082 -0.5324
    9MOL   H571 6667   1.122   2.400   0.450 -2.3330  0.8397  1.0253
    9MOL   C572 6668   1.122   2.016   1.320 -0.0642  0.0857  0.1251
    9MOL   C573 6669   1.045   2.062   1.197 -0.3734 -0.3708 -0.0271
    9MOL   C574 6670   0.999   1.939   1.113 -0.5116 -0.1650  0.4425
    9MOL   C575 6671   0.925   1.990   0.994  0.5422 -0.0946  0.1159
    9MOL   C576 6672   1.121   1.849   1.078 -0.5912  0.3302 -0.6409
    9MOL   C577 6673   1.191   1.799   1.198 -0.6846  0.2369  0.2647
    9MOL   C578 6674   1.231   1.915   1.293 -0.1695  0.1092 -0.7452
    9MOL   C579 6675   1.306   1.874   1.418  0.4758  0.7218 -0.2728
    9MOL   O580 6676   1.236   1.774   1.493  0.2830  0.0984  0.1184
    9MOL   C581 6677   1.301   1.682   1.561  0.4204 -0.0148  0.3985
    9MOL   O582 6678   1.421   1.697   1.583 -0.3103  0.2109 -0.0612
    9MOL   C583 6679   1.215   1.573   1.610  1.0667 -0.4335  0.2839
    9MOL   C584 6680   1.275   1.473   1.688  1.0254  0.0004  0.5029
    9MOL   C585 6681   1.200   1.358   1.715  0.1970 -0.3152 -0.7548
    9MOL   C586 6682   1.069   1.340   1.669 -0.1049  0.1250 -0.2201
    9MOL   C587 6683   1.006   1.207   1.695 -0.1689 -0.7195 -0.1022
    9MOL   O588 6684   1.069   1.102   1.728  0.1136  0.1787 -0.3314
    9MOL   O589 6685   0.873   1.212   1.684  0.0216 -0.1115 -0.3031
    9MOL   C590 6686   1.006   1.442   1.593 -1.2984  0.2105  0.5133
    9MOL   C591 6687   1.083   1.558   1.562  0.6157 -0.6078  0.4290
    9MOL   H592 6688   1.047   1.968   1.383  0.0022  0.5276  0.5454
    9MOL   H593 6689   1.166   2.093   1.384  2.4516 -1.2047  0.0134
    9MOL   H594 6690   1.115   2.131   1.148 -1.6171  0.4152 -0.7083
    9MOL   H595 6691   0.967   2.133   1.222  0.1791  0.5760 -0.9280
    9MOL   H596 6692   0.931   1.887   1.180 -1.8258  1.7306  0.6025
    9MOL   H597 6693   0.842   2.059   1.013  1.7512  1.7736 -1.1505
    9MOL   H598 6694   0.886   1.901   0.945 -3.8100  1.8213 -0.1507
    9MOL   H599 6695   1.193   1.900   1.014  0.5477 -0.5077 -0.0483
    9MOL   H600 6696   1.075   1.766   1.023 -1.7089 -1.6754  3.1404
    9MOL   H601 6697   1.134   1.725   1.253  2.0370 -1.2333  1.1716
    9MOL   H602 6698   1.281   1.748   1.163 -0.1136  0.9500  0.6697
    9MOL   H603 6699   1.309   1.957   1.230  1.4230 -3.8481 -1.5348
    9MOL   H604 6700   1.343   1.964   1.467 -1.6412  1.3149  0.2520
    9MOL   H605 6701   1.394   1.816   1.389 -0.5486 -2.0223  1.8363
    9MOL   H606 6702   1.375   1.478   1.728 -0.0984 -1.0606  3.6293
    9MOL   H607 6703   1.256   1.276   1.758  0.7658 -0.0513 -0.9849
    9MOL   H608 6704   0.904   1.429   1.560 -1.1849 -1.6502  0.8116
    9MOL   H609 6705   1.043   1.629   1.491 -0.5751 -1.1078  0.5880
    9MOL   C610 6706   0.649   0.880   1.985 -0.1346 -0.0521  0.0335
    9MOL   C611 6707   0.699   0.903   1.841  0.4883 -0.1946  0.6979
    9MOL   C612 6708   0.733   1.055   1.827  0.1197 -0.7660 -0.4891
    9MOL   C613 6709   0.793   1.091   1.692 -0.0233 -0.5800  0.4357
    9MOL   C614 6710   0.604   1.129   1.849 -0.0422 -0.2262 -0.4831
    9MOL   C615 6711   0.544   1.108   1.993  0.1394  0.3213 -0.5307
    9MOL   C616 6712   0.529   0.960   2.024  0.1152 -0.4928  0.5210
    9MOL   C617 6713   0.481   0.935   2.166  0.2676 -0.2970  0.4395
    9MOL   O618 6714   0.580   0.971   2.266 -0.7862  0.1164  0.8407
    9MOL   C619 6715   0.609   0.872   2.365 -0.3820 -0.1420 -0.9851
    9MOL   O620 6716   0.572   0.756   2.372 -0.3254 -0.2104  0.2066
    9MOL   C621 6717   0.702   0.932   2.466  0.1476  0.2986  0.0677
    9MOL   C622 6718   0.721   1.072   2.476  0.5539  0.5654  0.1937
    9MOL   C623 6719   0.802   1.126   2.577  0.1199 -0.1343  0.6676
    9MOL   C624 6720   0.860   1.051   2.670  0.1312  0.2957 -0.3397
    9MOL   C625 6721   0.937   1.102   2.779  0.2361  0.1324  0.2964
    9MOL   O626 6722   1.012   1.037   2.850  0.3585 -0.0761  0.0569
    9MOL   O627 6723   0.920   1.237   2.793 -0.2313 -0.1633 -0.1139
    9MOL   C628 6724   0.847   0.912   2.665  0.3619 -0.0665 -0.2270
    9MOL   C629 6725   0.759   0.855   2.566 -0.1149 -0.7744  0.8922
    9MOL   H630 6726   0.733   0.895   2.054  1.0973  0.9058 -1.6200
    9MOL   H631 6727   0.628   0.774   1.996 -0.3374  0.1397  1.6984
    9MOL   H632 6728   0.608   0.891   1.782  0.3666 -1.1394  1.0788
    9MOL   H633 6729   0.767   0.824   1.812  2.5697  2.2178 -1.1694
    9MOL   H634 6730   0.801   1.076   1.908 -1.0883  1.1575  0.0582
    9MOL   H635 6731   0.712   1.112   1.622  0.2483 -0.4011  0.1736
    9MOL   H636 6732   0.836   0.998   1.655  1.8379 -0.3415  1.9337
    9MOL   H637 6733   0.533   1.117   1.767 -1.7276 -0.2669  0.9592
    9MOL   H638 6734   0.632   1.234   1.839  0.9040 -0.5808 -1.6564
    9MOL   H639 6735   0.609   1.170   2.055  0.7229 -1.0816  0.2682
    9MOL   H640 6736   0.445   1.153   1.994 -0.8696 -1.8491  0.0498
    9MOL   H641 6737   0.448   0.934   1.957  0.2682  1.3661 -0.4179
    9MOL   H642 6738   0.462   0.828   2.165 -1.3962  0.0019 -0.6195
    9MOL   H643 6739   0.391   0.993   2.187 -0.1089 -0.0318 -1.7747
    9MOL   H644 6740   0.675   1.134   2.400 -1.4415  0.0940  1.0014
    9MOL   H645 6741   0.828   1.231   2.573  0.5328 -0.2575  0.1075
    9MOL   H646 6742   0.901   0.847   2.733 -0.3086  0.1848  0.5497
    9MOL   H647 6743   0.743   0.749   2.571  2.7430 -1.3364 -0.4255
    9MOL   C648 6744   1.162   1.592   2.689 -0.0796  0.3741 -0.3602
    9MOL   C649 6745   1.101   1.453   2.720  0.1130  0.7780 -0.0139
    9MOL   C650 6746   1.021   1.451   2.846  0.6865  0.1977 -0.5722
    9MOL   C651 6747   0.997   1.305   2.889 -0.1643 -0.2238 -0.4260
    9MOL   C652 6748   1.091   1.527   2.958 -0.2138  0.1567 -0.1561
    9MOL   C653 6749   1.126   1.669   2.912 -0.4076 -0.3168  0.1333
    9MOL   C654 6750   1.226   1.660   2.806 -0.4172  0.4036  0.0488
    9MOL   C655 6751   1.265   1.807   2.769  0.2558  0.5057  0.3322
    9MOL   O656 6752   1.381   1.821   2.688 -0.5481 -0.0875  0.2221
    9MOL   C657 6753   1.390   1.883   2.572 -0.2338  0.3917 -0.3118
    9MOL   O658 6754   1.288   1.923   2.514 -0.4621 -0.8312  0.0271
    9MOL   C659 6755   1.531   1.903   2.529  0.0527  0.6795  0.3333
    9MOL   C660 6756   1.557   1.990   2.416 -0.3114 -0.6809  0.4278
    9MOL   C661 6757   1.681   2.023   2.375 -0.2114  0.1402 -0.0914
    9MOL   C662 6758   1.794   1.965   2.440 -0.0061  0.8190  0.0788
    9MOL   C663 6759   1.933   1.998   2.398  0.4781  0.7856  0.3688
    9MOL   O664 6760   2.024   1.930   2.441  0.0915 -0.1054  0.1183
    9MOL   O665 6761   1.940   2.094   2.301  0.3588 -0.1956 -0.2144
    9MOL   C666 6762   1.777   1.878   2.545 -0.4222  0.0621 -0.1318
    9MOL   C667 6763   1.644   1.849   2.594 -0.0910  0.3141 -1.0072
    9MOL   H668 6764   1.081   1.659   2.660 -0.4405 -0.2252 -0.7401
    9MOL   H669 6765   1.223   1.586   2.599 -0.0920  3.2121 -0.5942
    9MOL   H670 6766   1.190   1.389   2.719 -0.0238  0.5947 -0.7774
    9MOL   H671 6767   1.041   1.408   2.641  0.2672 -1.8350  1.3164
    9MOL   H672 6768   0.929   1.503   2.820  1.1250  0.6039 -1.3689
    9MOL   H673 6769   0.959   1.304   2.992 -0.0825  0.5395 -0.3876
    9MOL   H674 6770   1.095   1.262   2.909  0.0455  1.0427  1.3654
    9MOL   H675 6771   1.184   1.476   2.986 -0.0307 -0.1524 -1.3111
    9MOL   H676 6772   1.012   1.535   3.033  1.4462 -2.3862  1.9568
    9MOL   H677 6773   1.044   1.738   2.893  0.4388  0.5189 -0.5362
    9MOL   H678 6774   1.179   1.707   3.000  1.0896  1.0636 -1.3318
    9MOL   H679 6775   1.306   1.595   2.841 -1.0856  0.4913  1.8147
    9MOL   H680 6776   1.297   1.868   2.853 -0.7473  2.0622 -0.4012
    9MOL   H681 6777   1.178   1.846   2.717  0.6874 -0.3947 -1.1256
    9MOL   H682 6778   1.469   2.033   2.369  0.7031  0.4193 -0.5056
    9MOL   H683 6779   1.697   2.081   2.286  1.5570  0.1102  0.1870
    9MOL   H684 6780   1.862   1.842   2.600  2.0248 -0.0547 -3.8608
    9MOL   H685 6781   1.630   1.798   2.688 -1.9194  0.9756 -0.8837
    9MOL   C686 6782   2.314   2.423   2.235 -0.0956  0.6255 -0.3301
    9MOL   C687 6783   2.224   2.313   2.177  0.3401 -0.2636 -0.1926
    9MOL   C688 6784   2.143   2.244   2.283 -0.1163 -0.1805  0.0918
    9MOL   C689 6785   2.053   2.132   2.231  0.5144  0.5806  0.4553
    9MOL   C690 6786   2.241   2.203   2.399 -0.2562 -0.1910  0.0909
    9MOL   C691 6787   2.328   2.317   2.455  0.2446  0.1380 -0.4426
    9MOL   C692 6788   2.409   2.382   2.345  0.2862  0.1826 -0.0437
    9MOL   C693 6789   2.492   2.495   2.399 -0.2286  0.5579 -0.8199
    9MOL   O694 6790   2.569   2.446   2.505  0.1553 -0.3606 -0.4127
    9MOL   C695 6791   2.701   2.421   2.481 -0.0861  0.5188 -0.2913
    9MOL   O696 6792   2.768   2.469   2.389 -0.0441  0.2120  0.5533
    9MOL   C697 6793   2.749   2.306   2.565 -0.3122 -0.9349 -0.0174
    9MOL   C698 6794   2.676   2.252   2.670 -0.1439  0.0310 -0.2290
    9MOL   C699 6795   2.729   2.160   2.759  0.1140  0.4367 -0.0746
    9MOL   C700 6796   2.866   2.121   2.751 -0.3079  0.2973  0.0670
    9MOL   C701 6797   2.918   2.029   2.861 -0.1071 -0.0994 -0.4553
    9MOL   O702 6798   2.845   1.971   2.944  0.0814 -0.5539 -0.8034
    9MOL   O703 6799   3.051   2.023   2.862 -0.3124  0.4006  0.0909
    9MOL   C704 6800   2.939   2.170   2.646 -0.5305 -0.4827 -0.1095
    9MOL   C705 6801   2.880   2.257   2.548  0.1297  0.3121 -0.5089
    9MOL   H706 6802   2.251   2.507   2.263 -0.0936 -0.3498  2.7945
    9MOL   H707 6803   2.377   2.465   2.156 -0.9037  0.5248 -1.0301
    9MOL   H708 6804   2.288   2.243   2.123 -0.0449 -0.0058 -0.9969
    9MOL   H709 6805   2.163   2.366   2.104  2.7490  0.8476 -1.4859
    9MOL   H710 6806   2.075   2.314   2.332  1.1137  0.0266  1.5456
    9MOL   H711 6807   2.114   2.044   2.209  3.0641  2.3533  0.2360
    9MOL   H712 6808   2.010   2.160   2.136 -1.0590 -2.2431  0.2790
    9MOL   H713 6809   2.317   2.137   2.358  0.3404 -0.4554  1.5988
    9MOL   H714 6810   2.186   2.155   2.480 -1.6504 -0.5287 -1.0501
    9MOL   H715 6811   2.263   2.389   2.504  1.6738 -0.3776  2.2619
    9MOL   H716 6812   2.384   2.276   2.538 -1.5131  2.7569  2.1442
    9MOL   H717 6813   2.469   2.299   2.306 -1.5076 -0.9374 -0.4609
    9MOL   H718 6814   2.431   2.575   2.440 -0.2552  1.3196 -2.3139
    9MOL   H719 6815   2.550   2.532   2.315 -0.9054  1.0465 -1.0715
    9MOL   H720 6816   2.578   2.291   2.692 -0.9822 -0.2664 -3.2327
    9MOL   H721 6817   2.663   2.122   2.834 -1.2583  1.3523 -0.8002
    9MOL   H722 6818   3.042   2.141   2.630 -1.0228 -1.2108 -2.1721
    9MOL   H723 6819   2.944   2.296   2.471  0.9030  1.6419  0.7826
    9MOL   C724 6820   3.172   2.305   3.195  0.2779  0.0766 -0.8869
    9MOL   C725 6821   3.099   2.179   3.123  0.0668 -0.2013 -0.5574
    9MOL   C726 6822   3.197   2.087   3.048  0.2505 -0.2024 -0.1677
    9MOL   C727 6823   3.132   1.970   2.970  0.0573  0.3754 -0.0466
    9MOL   C728 6824   3.288   2.170   2.962  0.0217 -0.1048  0.3517
    9MOL   C729 6825   3.353   2.284   3.041 -0.1444 -0.6239  0.0453
    9MOL   C730 6826   3.254   2.384   3.100  0.0520  0.2946 -0.5027
    9MOL   C731 6827   3.319   2.501   3.175 -0.1424  0.0325  0.3644
    9MOL   O732 6828   3.220   2.601   3.199 -0.2932 -0.3846 -0.0367
    9MOL   C733 6829   3.263   2.710   3.262 -0.4334 -0.3595 -0.1177
    9MOL   O734 6830   3.378   2.721   3.308  0.2258  0.0898  0.4002
    9MOL   C735 6831   3.163   2.821   3.264 -0.2599  0.3502  0.1010
    9MOL   C736 6832   3.196   2.946   3.309 -0.1995  0.5479 -0.1825
    9MOL   C737 6833   3.109   3.056   3.296  0.7108 -0.3171  0.2760
    9MOL   C738 6834   2.990   3.043   3.235  0.0026  0.1929  0.7794
    9MOL   C739 6835   2.899   3.158   3.198  0.2519  0.0910  0.0991
    9MOL   O740 6836   2.811   3.152   3.111 -1.0087 -0.3351 -0.1776
    9MOL   O741 6837   2.921   3.271   3.269 -0.3315 -0.1667 -0.3121
    9MOL   C742 6838   2.946   2.912   3.201 -0.5458 -0.4900  0.1677
    9MOL   C743 6839   3.035   2.798   3.209  0.1231  0.3771 -0.1030
    9MOL   H744 6840   3.240   2.258   3.265  0.6841  2.1102  0.1155
    9MOL   H745 6841   3.100   2.364   3.252  0.5503 -0.1891 -0.2682
    9MOL   H746 6842   3.017   2.220   3.063 -0.6164 -1.8267 -0.7735
    9MOL   H747 6843   3.058   2.123   3.206 -0.5807  3.3538  1.6221
    9MOL   H748 6844   3.246   2.035   3.131 -0.5618  0.2644  0.6099
    9MOL   H749 6845   3.066   1.906   3.027 -1.8765  1.4028 -1.0791
    9MOL   H750 6846   3.204   1.905   2.921 -0.7248 -0.2409 -0.3883
    9MOL   H751 6847   3.233   2.216   2.880 -0.0766 -2.2703 -0.8108
    9MOL   H752 6848   3.365   2.111   2.913  1.2424  2.1590 -0.5741
    9MOL   H753 6849   3.423   2.237   3.110  1.4588 -0.8038 -1.6664
    9MOL   H754 6850   3.406   2.349   2.971  1.3253  0.6997  2.3476
    9MOL   H755 6851   3.199   2.433   3.019  0.4281 -0.0336 -0.9633
    9MOL   H756 6852   3.396   2.540   3.108  0.2968  0.6631  1.2399
    9MOL   H757 6853   3.361   2.477   3.272  0.1638 -1.5181 -0.1232
    9MOL   H758 6854   3.298   2.956   3.345  0.6593 -0.4706 -2.2590
    9MOL   H759 6855   3.150   3.151   3.328  1.6689 -1.0819  1.3556
    9MOL   H760 6856   2.849   2.907   3.153 -0.4147 -0.3079 -0.1147
    9MOL   H761 6857   3.009   2.705   3.162  1.4778  0.4017 -0.9229
    9MOL   H762 6858   2.861   3.341   3.249 -0.1236 -0.3678 -1.6780
   10MOL     C1 6859   0.539   1.184   6.942  0.8531 -0.1366  0.2544
   10MOL     C2 6860   0.419   1.271   6.962 -0.1780 -0.3114  0.7783
   10MOL     C3 6861   0.451   1.418   6.936  0.6582  0.1442 -0.1056
   10MOL     C4 6862   0.319   1.505   6.921 -0.1037  0.0486 -0.8701
   10MOL     C5 6863   0.555   1.466   7.034  0.6710 -0.7775 -0.4223
   10MOL     C6 6864   0.694   1.385   7.022  0.1901  1.1962  0.0887
   10MOL     C7 6865   0.664   1.223   7.030 -0.0431 -0.3379 -0.2705
   10MOL     C8 6866   0.796   1.144   6.995  0.2744 -0.0847 -0.4732
   10MOL     O9 6867   0.821   1.132   6.853 -0.2450 -0.0491 -0.1074
   10MOL    C10 6868   0.904   1.216   6.793 -0.1407 -0.9196 -0.0117
   10MOL    O11 6869   0.972   1.297   6.853 -0.5716  0.1135  0.6714
   10MOL    C12 6870   0.916   1.190   6.646 -0.0121 -0.8822  0.4402
   10MOL    C13 6871   1.012   1.269   6.569 -0.5472 -0.2218  0.4216
   10MOL    C14 6872   1.024   1.271   6.429 -0.0220 -0.5495  0.0065
   10MOL    C15 6873   0.948   1.176   6.356  0.0074 -0.7930 -0.2225
   10MOL    C16 6874   0.975   1.152   6.213  0.2270 -0.8128 -0.2972
   10MOL    O17 6875   1.053   1.223   6.151 -0.2020 -0.3185 -0.0613
   10MOL    O18 6876   0.906   1.043   6.158 -0.1985 -0.1713 -0.0385
   10MOL    C19 6877   0.860   1.092   6.427 -0.6153 -0.1329  0.2754
   10MOL    C20 6878   0.837   1.104   6.566 -0.2809 -0.6361 -0.2267
   10MOL    H21 6879   0.559   1.177   6.835  0.0180  0.0721  0.0788
   10MOL    H22 6880   0.500   1.085   6.968 -2.0993  0.3578 -2.0730
   10MOL    H23 6881   0.372   1.256   7.059  0.7739  0.5687  1.3858
   10MOL    H24 6882   0.346   1.244   6.886 -0.2533 -1.6682  1.3180
   10MOL    H25 6883   0.501   1.435   6.840  2.7047 -1.7713  0.5807
   10MOL    H26 6884   0.279   1.525   7.021 -0.2959 -1.6369 -0.5923
   10MOL    H27 6885   0.235   1.462   6.866 -1.9520 -0.4843  2.2425
   10MOL    H28 6886   0.523   1.468   7.139  2.0004  0.7587 -0.0153
   10MOL    H29 6887   0.579   1.569   7.007  0.2803  0.0966  2.4018
   10MOL    H30 6888   0.743   1.408   6.928  1.5717 -2.3514 -0.1682
   10MOL    H31 6889   0.757   1.410   7.107 -1.6101 -1.2766  2.2409
   10MOL    H32 6890   0.636   1.216   7.135  1.0430  1.3153  0.1395
   10MOL    H33 6891   0.781   1.040   7.024  1.7861 -0.4723 -1.0282
   10MOL    H34 6892   0.885   1.182   7.045 -0.5052 -0.3558  1.1843
   10MOL    H35 6893   1.073   1.339   6.625  0.0724  0.5554 -1.1988
   10MOL    H36 6894   1.092   1.336   6.376 -0.0563 -1.4306 -1.1303
   10MOL    H37 6895   0.805   1.015   6.374 -0.9978 -1.6459  2.7608
   10MOL    H38 6896   0.766   1.031   6.604  0.5036 -1.4397 -0.2783
   10MOL    H39 6897   0.326   1.605   6.880  1.5320  0.7997  1.1416
   10MOL    C40 6898   0.829   0.646   5.962  0.7403 -0.0137 -1.1402
   10MOL    C41 6899   0.910   0.761   6.023 -0.9143 -0.0513  0.1845
   10MOL    C42 6900   0.860   0.898   5.961 -0.3602 -0.3122 -0.0634
   10MOL    C43 6901   0.930   1.024   6.019 -0.4172  0.9476  0.3395
   10MOL    C44 6902   0.867   0.895   5.808 -0.2536 -0.5900  0.7752
   10MOL    C45 6903   0.800   0.769   5.745 -0.3796  0.3632 -0.1921
   10MOL    C46 6904   0.847   0.636   5.812  0.5990  0.3611 -0.8067
   10MOL    C47 6905   0.775   0.512   5.761  0.2624 -0.0618  0.7145
   10MOL    O48 6906   0.636   0.542   5.726 -0.1171 -0.2084 -0.2366
   10MOL    C49 6907   0.542   0.454   5.743 -0.3020 -1.1628 -0.4016
   10MOL    O50 6908   0.566   0.336   5.773  0.1428  0.5915 -0.4103
   10MOL    C51 6909   0.406   0.514   5.737 -0.1691 -0.5837  0.7189
   10MOL    C52 6910   0.385   0.649   5.778  0.1638  0.2620 -0.0507
   10MOL    C53 6911   0.253   0.703   5.779 -0.7165  0.7837 -0.5355
   10MOL    C54 6912   0.142   0.632   5.736  1.1448 -0.4388  0.1742
   10MOL    C55 6913   8.029   0.681   5.734 -0.6609  0.2651  0.5887
   10MOL    O56 6914   7.931   0.606   5.732  0.1259 -0.1852 -0.5019
   10MOL    O57 6915   8.029   0.817   5.721 -0.3698  0.3881  1.0263
   10MOL    C58 6916   0.160   0.497   5.697 -0.0174  0.2503 -0.0901
   10MOL    C59 6917   0.290   0.438   5.702 -0.5151  0.6967  0.1993
   10MOL    H60 6918   0.723   0.649   5.985  0.8457 -0.6841 -0.5389
   10MOL    H61 6919   0.876   0.560   6.010  1.8635  0.7727 -0.7966
   10MOL    H62 6920   1.009   0.746   5.982 -0.0742  2.8886  0.9892
   10MOL    H63 6921   0.910   0.751   6.131 -1.8464 -0.1181  0.1894
   10MOL    H64 6922   0.757   0.909   5.995  0.9796  0.3870  4.0786
   10MOL    H65 6923   0.897   1.114   5.966 -3.3238 -1.1843 -1.6221
   10MOL    H66 6924   1.037   1.014   6.001 -0.8166  0.7115 -2.1537
   10MOL    H67 6925   0.971   0.888   5.777 -1.2490 -1.8720 -2.5140
   10MOL    H68 6926   0.833   0.983   5.755 -1.2249 -1.5480 -0.2205
   10MOL    H69 6927   0.693   0.787   5.758 -0.1110  2.0617 -0.1925
   10MOL    H70 6928   0.814   0.784   5.638  0.1519  1.5820  0.0401
   10MOL    H71 6929   0.953   0.626   5.792  0.2910 -0.4505 -2.0847
   10MOL    H72 6930   0.772   0.444   5.846 -0.6677 -1.5143 -0.4570
   10MOL    H73 6931   0.824   0.470   5.673  2.2101  0.2325  1.6290
   10MOL    H74 6932   0.469   0.712   5.802 -1.2300  2.2372 -0.2435
   10MOL    H75 6933   0.238   0.805   5.811  0.9439  1.6984 -2.5677
   10MOL    H76 6934   0.069   0.447   5.670  0.3413 -1.0351  1.0392
   10MOL    H77 6935   0.312   0.337   5.671 -0.1985  1.1048 -0.9246
   10MOL    C78 6936   7.793   1.209   5.887  0.1189  0.4851 -0.6978
   10MOL    C79 6937   7.783   1.086   5.796 -0.3066  0.4154  0.1720
   10MOL    C80 6938   7.919   1.009   5.785 -0.1353  0.2721  0.2676
   10MOL    C81 6939   7.909   0.884   5.691 -0.2840  0.1012 -0.3761
   10MOL    C82 6940   0.001   1.103   5.748  0.2406  0.4053 -0.4819
   10MOL    C83 6941   0.011   1.220   5.846 -0.2037 -0.0724 -0.4874
   10MOL    C84 6942   7.908   1.305   5.858  0.1666  0.3816 -0.5410
   10MOL    C85 6943   7.920   1.407   5.974  0.0813  0.2366 -0.1757
   10MOL    O86 6944   7.813   1.496   5.960  1.0484  0.0750  0.4169
   10MOL    C87 6945   7.714   1.499   6.050  0.3523  0.3535 -0.1839
   10MOL    O88 6946   7.688   1.415   6.136 -0.0564  0.2719 -0.3982
   10MOL    C89 6947   7.632   1.626   6.041 -0.7801  0.2765 -0.2748
   10MOL    C90 6948   7.498   1.624   6.077 -0.0136 -0.3582 -0.2472
   10MOL    C91 6949   7.422   1.748   6.085 -0.1329  0.3615 -0.4038
   10MOL    C92 6950   7.487   1.868   6.053  0.0445 -0.0219  0.8897
   10MOL    C93 6951   7.417   2.002   6.062 -0.0716  0.1209  0.7769
   10MOL    O94 6952   7.473   2.101   6.004  0.2608 -0.2488 -0.1112
   10MOL    O95 6953   7.302   2.007   6.132 -0.0676 -0.3661 -0.1820
   10MOL    C96 6954   7.617   1.865   5.996 -0.2941  0.0721 -0.4504
   10MOL    C97 6955   7.692   1.744   6.000 -0.4940  0.3930  0.1692
   10MOL    H98 6956   7.805   1.181   5.991  0.2244  2.5737 -0.1129
   10MOL    H99 6957   7.695   1.255   5.899 -0.9765 -1.7337 -0.9723
   10MOL   H100 6958   7.758   1.138   5.704 -0.6459  2.1901  1.2628
   10MOL   H101 6959   7.706   1.012   5.814  1.0163 -1.3136 -1.0322
   10MOL   H102 6960   7.942   0.980   5.887  2.0074  1.1303  0.0545
   10MOL   H103 6961   7.902   0.901   5.583  0.1202 -0.4221 -0.4874
   10MOL   H104 6962   7.826   0.821   5.721  1.4849 -2.9773 -1.6075
   10MOL   H105 6963   8.022   1.130   5.643  0.6211  2.2036 -0.0629
   10MOL   H106 6964   0.092   1.043   5.757  0.3210  0.1724 -2.4918
   10MOL   H107 6965   0.050   1.191   5.943 -1.1081 -0.7009 -0.3045
   10MOL   H108 6966   0.077   1.296   5.804 -1.1730  1.5824  0.9426
   10MOL   H109 6967   7.876   1.350   5.764  0.1850  1.9512  0.1768
   10MOL   H110 6968   8.003   1.475   5.954 -0.5897  1.2601  0.4760
   10MOL   H111 6969   7.941   1.360   6.070 -1.7086 -0.8838 -0.3177
   10MOL   H112 6970   7.459   1.526   6.096  1.3615 -1.2438 -1.9143
   10MOL   H113 6971   7.318   1.750   6.114  0.0141 -0.8491  0.2279
   10MOL   H114 6972   7.668   1.958   5.977 -0.4971  0.4311  0.7386
   10MOL   H115 6973   7.795   1.746   5.969 -0.6748 -2.1813 -0.7646
   10MOL   C116 6974   6.911   2.064   6.346 -0.3693 -0.5355 -0.3560
   10MOL   C117 6975   7.009   2.062   6.228  0.3570 -0.1519 -0.5670
   10MOL   C118 6976   7.135   2.137   6.260  0.4901  0.2204  0.4337
   10MOL   C119 6977   7.233   2.131   6.138  0.1721 -0.3841  0.4274
   10MOL   C120 6978   7.102   2.279   6.304 -0.4552  0.3075 -0.5973
   10MOL   C121 6979   6.995   2.286   6.418 -0.0429 -0.4416 -0.9863
   10MOL   C122 6980   6.869   2.202   6.388 -0.3184 -0.4052  0.5613
   10MOL   C123 6981   6.777   2.186   6.517 -0.3138 -0.7870  0.2625
   10MOL   O124 6982   6.713   2.313   6.535 -0.5666  0.3172  0.3984
   10MOL   C125 6983   6.599   2.320   6.596  0.4371  0.3542  0.3165
   10MOL   O126 6984   6.524   2.225   6.628  0.2306  0.2558 -0.2369
   10MOL   C127 6985   6.548   2.460   6.593 -0.0998 -0.0946 -0.6227
   10MOL   C128 6986   6.422   2.484   6.646 -0.2061 -0.6505 -0.4302
   10MOL   C129 6987   6.361   2.611   6.640 -1.0860 -0.6378  0.3132
   10MOL   C130 6988   6.435   2.720   6.581  0.7127 -0.4658 -0.3806
   10MOL   C131 6989   6.369   2.849   6.570  0.0979 -0.0641 -0.5843
   10MOL   O132 6990   6.247   2.865   6.590  0.1853  0.3586  0.1846
   10MOL   O133 6991   6.454   2.956   6.543  0.1216 -0.7926  0.3941
   10MOL   C134 6992   6.565   2.695   6.536  0.0242  0.2075 -0.3750
   10MOL   C135 6993   6.627   2.566   6.553  0.0718 -0.0068  0.1429
   10MOL   H136 6994   6.964   2.013   6.427 -0.9122 -2.4801 -1.1883
   10MOL   H137 6995   6.821   2.005   6.326 -0.2558 -0.2729 -1.6743
   10MOL   H138 6996   6.960   2.120   6.150  1.1334 -0.4638 -1.2932
   10MOL   H139 6997   7.021   1.961   6.188 -1.2862 -0.9255  0.8458
   10MOL   H140 6998   7.178   2.077   6.340  0.5082 -1.7539 -1.0399
   10MOL   H141 6999   7.306   2.212   6.134  1.2559 -1.4132 -2.9403
   10MOL   H142 7000   7.177   2.151   6.046  2.1180  3.6566 -0.0172
   10MOL   H143 7001   7.063   2.332   6.217  0.1064 -0.5272 -1.3588
   10MOL   H144 7002   7.194   2.321   6.345  0.0816 -1.4757  0.0406
   10MOL   H145 7003   7.044   2.252   6.510  0.4477  3.2072  0.1505
   10MOL   H146 7004   6.965   2.390   6.419  0.5467 -0.2155  2.2688
   10MOL   H147 7005   6.828   2.244   6.296 -0.8805 -0.1338  0.9331
   10MOL   H148 7006   6.832   2.157   6.606  0.1782 -1.7448 -0.3466
   10MOL   H149 7007   6.697   2.115   6.493 -2.1285  0.8077  1.3890
   10MOL   H150 7008   6.363   2.410   6.698  2.3675 -1.9257  0.7971
   10MOL   H151 7009   6.263   2.626   6.681 -0.8345  1.2124  0.3238
   10MOL   H152 7010   6.623   2.772   6.487 -1.9785  1.6806 -0.4923
   10MOL   H153 7011   6.731   2.554   6.527 -0.3269 -2.4236 -0.3950
   10MOL   C154 7012   6.732   3.276   6.485 -0.3198 -0.2452  0.6201
   10MOL   C155 7013   6.633   3.182   6.549 -0.4244  0.4579  0.4744
   10MOL   C156 7014   6.490   3.196   6.493 -0.0921  0.2236  0.1469
   10MOL   C157 7015   6.409   3.092   6.565 -0.0861 -0.5255  0.4152
   10MOL   C158 7016   6.455   3.338   6.522 -0.1957  0.0060 -0.3861
   10MOL   C159 7017   6.556   3.443   6.462 -0.5713  0.9314 -0.3347
   10MOL   C160 7018   6.694   3.419   6.504  1.0752 -0.1676 -0.4891
   10MOL   C161 7019   6.790   3.515   6.445  0.4872  0.4409  0.4889
   10MOL   O162 7020   6.802   3.629   6.524 -0.0840 -0.2132  0.2125
   10MOL   C163 7021   6.845   3.749   6.474  0.1953 -0.6603 -0.4692
   10MOL   O164 7022   6.854   3.767   6.350 -0.5868 -0.3527  0.2918
   10MOL   C165 7023   6.899   3.840   6.582 -0.0631 -0.0849 -0.4615
   10MOL   C166 7024   6.918   3.799   6.716 -0.6218  0.0143 -0.3274
   10MOL   C167 7025   6.984   3.880   6.812 -0.4622 -0.1129 -0.6431
   10MOL   C168 7026   7.042   4.003   6.770  0.0388  0.1005  1.0236
   10MOL   C169 7027   7.120   4.094   6.860 -0.5232  0.7309 -0.0146
   10MOL   O170 7028   7.191   4.050   6.952  0.4909 -0.3405  0.1329
   10MOL   O171 7029   7.120   4.221   6.823 -0.4250  0.6274 -0.5689
   10MOL   C172 7030   7.033   4.038   6.636  0.0433  0.3670  0.0610
   10MOL   C173 7031   6.951   3.968   6.550  0.2556  0.2324  0.0708
   10MOL   H174 7032   6.746   3.275   6.377 -2.0691 -1.3930  0.3757
   10MOL   H175 7033   6.832   3.250   6.521 -0.7280 -1.1744  1.1146
   10MOL   H176 7034   6.640   3.206   6.655  3.1162 -0.4523  0.4892
   10MOL   H177 7035   6.671   3.081   6.541 -0.0203  0.5262  1.5207
   10MOL   H178 7036   6.479   3.181   6.386  1.3678  1.3944 -0.1798
   10MOL   H179 7037   6.305   3.107   6.535  0.2339  0.8869 -0.0393
   10MOL   H180 7038   6.405   3.099   6.673  1.6682 -0.1135  0.4666
   10MOL   H181 7039   6.435   3.342   6.629 -2.7900 -0.5662 -0.8065
   10MOL   H182 7040   6.356   3.350   6.476  0.3219  2.6004 -0.9218
   10MOL   H183 7041   6.551   3.440   6.353 -1.0082  0.7653 -0.3130
   10MOL   H184 7042   6.520   3.545   6.479 -2.6262  0.3457 -0.9720
   10MOL   H185 7043   6.691   3.434   6.612  0.9313 -0.0143 -0.5129
   10MOL   H186 7044   6.762   3.537   6.342  0.0885 -0.3536  0.4226
   10MOL   H187 7045   6.891   3.476   6.428 -0.1312 -1.7301  1.5161
   10MOL   H188 7046   6.874   3.707   6.751 -0.8667  0.6635  1.1049
   10MOL   H189 7047   7.011   3.848   6.912 -1.6548  0.9444  0.0355
   10MOL   H190 7048   7.079   4.125   6.591 -0.3520 -0.0110 -1.0950
   10MOL   H191 7049   6.936   4.001   6.448 -0.8701  1.9684  0.7660
   10MOL   C192 7050   7.148   4.605   6.632 -0.4625 -0.2100  0.1214
   10MOL   C193 7051   7.209   4.476   6.691  0.1305 -0.1909 -0.2313
   10MOL   C194 7052   7.146   4.457   6.829 -0.3099  0.3719 -0.3983
   10MOL   C195 7053   7.182   4.321   6.900  0.2358  0.0557 -0.0604
   10MOL   C196 7054   7.176   4.575   6.918  0.3930 -0.0242 -0.3351
   10MOL   C197 7055   7.122   4.710   6.864  0.0743 -0.4291  0.0408
   10MOL   C198 7056   7.161   4.733   6.719 -0.1643 -0.4699  0.0378
   10MOL   C199 7057   7.085   4.856   6.659  0.3805 -0.4557  0.0828
   10MOL   O200 7058   6.954   4.826   6.629 -0.1939  0.1889  0.4386
   10MOL   C201 7059   6.892   4.905   6.539  0.7656  0.0233  0.6040
   10MOL   O202 7060   6.940   5.012   6.501 -0.4896 -0.4478 -0.0408
   10MOL   C203 7061   6.767   4.840   6.490 -0.7721 -0.5137 -0.4009
   10MOL   C204 7062   6.693   4.753   6.572 -0.3021  0.7357 -0.6383
   10MOL   C205 7063   6.579   4.692   6.520  0.3173 -0.2029 -0.5526
   10MOL   C206 7064   6.521   4.745   6.399  0.4098 -0.2632  0.5068
   10MOL   C207 7065   6.386   4.708   6.351 -0.1166  0.3949  0.3050
   10MOL   O208 7066   6.338   4.725   6.235  0.1154  0.3816  0.3607
   10MOL   O209 7067   6.320   4.646   6.456 -0.2953 -0.0198  0.0891
   10MOL   C210 7068   6.589   4.839   6.325  0.2164  0.5474  0.1706
   10MOL   C211 7069   6.707   4.891   6.374 -0.9017  0.2438  0.3981
   10MOL   H212 7070   7.043   4.590   6.605 -0.7653 -0.2321  1.3023
   10MOL   H213 7071   7.210   4.618   6.543 -1.7452  3.3528 -0.3575
   10MOL   H214 7072   7.314   4.502   6.703  0.1797  1.1416 -3.0406
   10MOL   H215 7073   7.211   4.392   6.622  3.1101  0.3013 -0.7832
   10MOL   H216 7074   7.037   4.454   6.828 -0.3181  0.7810 -0.8395
   10MOL   H217 7075   7.151   4.316   7.005  3.2005  0.5107  0.8939
   10MOL   H218 7076   7.288   4.297   6.914 -0.3599 -1.7538  1.7298
   10MOL   H219 7077   7.280   4.576   6.950  0.4158 -1.1398 -0.3470
   10MOL   H220 7078   7.123   4.556   7.012  0.5785 -0.8249 -0.3931
   10MOL   H221 7079   7.013   4.708   6.870 -0.1013 -0.2823 -2.6913
   10MOL   H222 7080   7.163   4.787   6.929 -0.8047  0.5939 -0.6178
   10MOL   H223 7081   7.268   4.751   6.726 -0.4304  0.5017  1.8268
   10MOL   H224 7082   7.138   4.892   6.571  0.5348 -3.2407 -1.0279
   10MOL   H225 7083   7.077   4.941   6.727 -0.6333 -0.5818  0.1185
   10MOL   H226 7084   6.726   4.717   6.669 -0.6776 -2.5040 -1.6709
   10MOL   H227 7085   6.525   4.632   6.592  0.2146  0.8505  0.2575
   10MOL   H228 7086   6.545   4.888   6.239  0.1578 -0.2543 -0.2598
   10MOL   H229 7087   6.756   4.969   6.317 -0.3503 -0.0274  0.4924
   10MOL   C230 7088   6.237   4.315   6.746  0.1549 -0.0747  0.3380
   10MOL   C231 7089   6.251   4.450   6.667  0.0951  0.0344 -0.6933
   10MOL   C232 7090   6.193   4.442   6.526  0.1180  0.1343  0.3119
   10MOL   C233 7091   6.198   4.577   6.447 -0.1343  0.0722 -0.3875
   10MOL   C234 7092   6.272   4.332   6.451 -0.2178  0.3004 -0.2426
   10MOL   C235 7093   6.251   4.188   6.511 -0.2302 -0.4097  0.4296
   10MOL   C236 7094   6.294   4.197   6.658 -0.9652  0.2282 -0.3335
   10MOL   C237 7095   6.278   4.063   6.731  0.3239 -0.4492 -0.1437
   10MOL   O238 7096   6.136   4.043   6.748 -0.1847  0.3193 -0.2464
   10MOL   C239 7097   6.094   3.935   6.808 -0.1873 -0.5878  0.1276
   10MOL   O240 7098   6.173   3.858   6.864 -0.4061  0.1529 -0.2041
   10MOL   C241 7099   5.950   3.916   6.817 -0.5759 -0.5258 -0.2355
   10MOL   C242 7100   5.869   4.028   6.790 -0.2900  0.1443  0.4670
   10MOL   C243 7101   5.728   4.021   6.797 -0.0757 -0.7749 -0.6531
   10MOL   C244 7102   5.663   3.900   6.842 -0.1175 -0.2086  0.9126
   10MOL   C245 7103   5.518   3.901   6.856 -0.2987  0.4323 -0.1915
   10MOL   O246 7104   5.440   3.997   6.855  0.2213 -0.4081  0.6058
   10MOL   O247 7105   5.470   3.781   6.884  0.2282  0.4320 -0.2475
   10MOL   C248 7106   5.746   3.787   6.861 -0.2657  0.5167 -0.0743
   10MOL   C249 7107   5.888   3.797   6.860 -0.3260 -0.1271 -0.5372
   10MOL   H250 7108   6.131   4.307   6.769  0.0085  0.8987  0.0515
   10MOL   H251 7109   6.288   4.322   6.842 -0.3712 -4.8057  1.0920
   10MOL   H252 7110   6.350   4.492   6.686 -1.4785  3.7246 -0.4034
   10MOL   H253 7111   6.194   4.523   6.724  0.1504 -0.1464 -0.4071
   10MOL   H254 7112   6.090   4.407   6.525  0.4302 -0.7915 -0.0297
   10MOL   H255 7113   6.121   4.642   6.489 -0.2937 -0.3520 -0.0161
   10MOL   H256 7114   6.172   4.552   6.344 -1.1382 -0.4533 -0.0205
   10MOL   H257 7115   6.378   4.360   6.448 -0.4044  1.0209 -0.3136
   10MOL   H258 7116   6.239   4.331   6.347 -0.8209  2.3200 -0.0931
   10MOL   H259 7117   6.151   4.149   6.492 -0.5401  1.8483 -2.9134
   10MOL   H260 7118   6.314   4.119   6.456 -0.9978 -0.6738 -0.1115
   10MOL   H261 7119   6.402   4.209   6.654 -1.0903  2.3762  1.4441
   10MOL   H262 7120   6.336   4.077   6.822  0.1113  0.0589 -0.0857
   10MOL   H263 7121   6.325   3.983   6.673  0.2328 -1.3270  0.9724
   10MOL   H264 7122   5.914   4.118   6.750  1.6910 -1.5036 -1.1340
   10MOL   H265 7123   5.673   4.107   6.763  0.0542 -0.8356 -1.0176
   10MOL   H266 7124   5.689   3.704   6.901  0.0839  1.7025  3.0944
   10MOL   H267 7125   5.955   3.717   6.886 -0.8483 -0.1738  0.7167
   10MOL   C268 7126   5.274   3.383   6.815 -0.6166  0.6902 -0.7965
   10MOL   C269 7127   5.289   3.539   6.801 -0.0174 -0.1760 -0.2970
   10MOL   C270 7128   5.325   3.608   6.934  0.9727 -0.4915  0.0231
   10MOL   C271 7129   5.334   3.754   6.916  0.0887  1.0047 -0.2191
   10MOL   C272 7130   5.205   3.571   7.025  0.2113 -0.2210 -0.1747
   10MOL   C273 7131   5.190   3.423   7.049 -0.3748 -0.2943  0.0703
   10MOL   C274 7132   5.174   3.339   6.920 -0.0146  0.4279 -0.1829
   10MOL   C275 7133   5.178   3.189   6.940  0.2316 -0.7821  0.6002
   10MOL   O276 7134   5.095   3.151   7.052 -0.4989  0.1859  0.0372
   10MOL   C277 7135   5.098   3.023   7.086 -0.5696  0.0379  0.3045
   10MOL   O278 7136   5.163   2.939   7.023  0.2141  0.2285  0.0331
   10MOL   C279 7137   5.014   2.989   7.197  0.2045 -0.1999  0.7585
   10MOL   C280 7138   4.990   2.859   7.235 -0.7984  0.7053  0.2339
   10MOL   C281 7139   4.906   2.821   7.345 -0.1305 -0.4243 -0.4566
   10MOL   C282 7140   4.841   2.927   7.413 -1.0293 -0.0690  0.0187
   10MOL   C283 7141   4.751   2.886   7.519  0.0028 -0.7021  0.6029
   10MOL   O284 7142   4.743   2.768   7.563 -0.3095  0.0569  0.7409
   10MOL   O285 7143   4.675   2.990   7.563  0.0541 -0.4387  0.0217
   10MOL   C286 7144   4.863   3.062   7.379  0.2785  0.1066 -0.6583
   10MOL   C287 7145   4.946   3.091   7.270  0.4283  0.2039 -0.3723
   10MOL   H288 7146   5.373   3.343   6.836 -0.9071  1.4100  2.2391
   10MOL   H289 7147   5.240   3.329   6.727 -0.5913  0.0250 -0.4039
   10MOL   H290 7148   5.195   3.578   6.763 -0.2860 -0.6219 -0.0985
   10MOL   H291 7149   5.368   3.567   6.731 -0.7016  2.2917 -0.0973
   10MOL   H292 7150   5.416   3.561   6.969  1.2165 -0.9260 -1.1699
   10MOL   H293 7151   5.321   3.801   7.014  1.4338 -1.2173  1.0496
   10MOL   H294 7152   5.254   3.792   6.852 -2.4116  0.1707  2.2745
   10MOL   H295 7153   5.111   3.609   6.985  0.8828  2.7526  0.9446
   10MOL   H296 7154   5.230   3.624   7.117  1.8087 -1.4229  0.1059
   10MOL   H297 7155   5.282   3.389   7.096 -0.6898 -0.8196  0.3125
   10MOL   H298 7156   5.108   3.410   7.120 -1.4291 -2.7683 -1.5336
   10MOL   H299 7157   5.081   3.362   6.869  0.4499  1.8255 -0.4228
   10MOL   H300 7158   5.281   3.155   6.954  0.6147 -0.2439 -0.8058
   10MOL   H301 7159   5.132   3.133   6.859 -0.2114 -0.2645  0.4940
   10MOL   H302 7160   5.049   2.782   7.188 -1.4449  0.2396  0.1716
   10MOL   H303 7161   4.889   2.717   7.369 -2.8500 -0.4015 -2.1598
   10MOL   H304 7162   4.800   3.140   7.421 -1.7011 -2.0618  0.5036
   10MOL   H305 7163   4.958   3.196   7.249 -2.4479  0.6539  0.0287
   10MOL   C306 7164   4.290   3.182   7.616  0.1196 -0.4534  0.6557
   10MOL   C307 7165   4.392   3.072   7.595 -0.0634  0.1951  0.5520
   10MOL   C308 7166   4.509   3.084   7.696 -0.8442 -0.3655 -0.5779
   10MOL   C309 7167   4.600   2.966   7.678 -0.0985  0.0127  0.1715
   10MOL   C310 7168   4.570   3.229   7.680  0.1207 -0.3267  0.4580
   10MOL   C311 7169   4.468   3.346   7.704 -0.2237  0.5418  0.3280
   10MOL   C312 7170   4.358   3.316   7.586  0.4743 -0.1020 -0.9964
   10MOL   C313 7171   4.248   3.426   7.571 -0.2142  0.4883  0.3067
   10MOL   O314 7172   4.320   3.548   7.543  0.3368  0.3959  0.4294
   10MOL   C315 7173   4.311   3.651   7.625  0.0199  0.4712 -0.0872
   10MOL   O316 7174   4.253   3.650   7.729  0.6907  1.4623 -0.1881
   10MOL   C317 7175   4.370   3.778   7.570 -0.4795 -0.0048  0.4077
   10MOL   C318 7176   4.306   3.906   7.579  0.2629  0.9365 -0.4599
   10MOL   C319 7177   4.364   4.022   7.522 -0.6032 -0.3109 -0.6905
   10MOL   C320 7178   4.485   4.010   7.447  0.1925  0.8289 -0.6969
   10MOL   C321 7179   4.550   4.128   7.391  0.3110  0.3722  0.0791
   10MOL   O322 7180   4.665   4.129   7.349 -0.2108  0.0804  0.4074
   10MOL   O323 7181   4.462   4.229   7.370  0.2746 -0.1146 -0.4827
   10MOL   C324 7182   4.540   3.886   7.431 -0.3069 -0.0400  0.6078
   10MOL   C325 7183   4.484   3.772   7.494  0.1043  0.4133 -0.2821
   10MOL   H326 7184   4.246   3.178   7.716 -0.2072 -0.6879  0.5000
   10MOL   H327 7185   4.201   3.177   7.553 -0.0539  0.5900  0.8031
   10MOL   H328 7186   4.425   3.072   7.492 -1.5668 -0.0909  0.0552
   10MOL   H329 7187   4.344   2.975   7.609 -1.6543  0.8458 -0.2480
   10MOL   H330 7188   4.469   3.080   7.797 -0.1341 -0.4264 -0.2950
   10MOL   H331 7189   4.541   2.874   7.675  0.4199 -0.2623 -1.9914
   10MOL   H332 7190   4.669   2.952   7.761  0.5884 -0.5189 -0.4801
   10MOL   H333 7191   4.628   3.239   7.588  0.7621  0.5608  0.9512
   10MOL   H334 7192   4.650   3.245   7.752 -1.2860  3.4212  1.3444
   10MOL   H335 7193   4.430   3.347   7.806  1.1198  2.2325  0.8363
   10MOL   H336 7194   4.526   3.438   7.692  0.5220  0.0902  0.4153
   10MOL   H337 7195   4.411   3.314   7.491 -0.1417 -0.3843 -1.3351
   10MOL   H338 7196   4.179   3.433   7.655  1.0883  1.1599  1.3471
   10MOL   H339 7197   4.188   3.409   7.482 -1.1676 -2.0180  1.3792
   10MOL   H340 7198   4.218   3.923   7.640  0.9702  2.6439  0.1197
   10MOL   H341 7199   4.320   4.119   7.540  1.6767  1.0950 -2.3591
   10MOL   H342 7200   4.625   3.872   7.366 -1.1426  0.6035 -0.6457
   10MOL   H343 7201   4.531   3.675   7.485 -0.5659  0.1493 -0.9933
   10MOL   C344 7202   4.486   4.725   7.399  0.2482  0.2843 -0.1242
   10MOL   C345 7203   4.515   4.593   7.323  0.2916  0.2286  0.5130
   10MOL   C346 7204   4.483   4.463   7.404  0.4481 -0.2609  0.0843
   10MOL   C347 7205   4.517   4.348   7.315  0.1554 -0.4795 -0.5310
   10MOL   C348 7206   4.562   4.471   7.529  0.0302 -0.0761 -0.9950
   10MOL   C349 7207   4.515   4.587   7.618  0.0429  1.0056  0.0066
   10MOL   C350 7208   4.534   4.727   7.550 -0.5759 -0.0417  0.3152
   10MOL   C351 7209   4.485   4.843   7.632 -0.2572 -0.2675  0.4410
   10MOL   O352 7210   4.364   4.890   7.595  0.5113 -0.3949  0.2154
   10MOL   C353 7211   4.244   4.837   7.641  0.2271  0.5531 -0.5084
   10MOL   O354 7212   4.233   4.742   7.724 -0.1033  0.0014  0.4894
   10MOL   C355 7213   4.121   4.903   7.586  0.0966  1.2766 -0.7889
   10MOL   C356 7214   3.995   4.859   7.640  0.3747 -0.1906  0.0908
   10MOL   C357 7215   3.880   4.909   7.580 -0.5639 -0.3622  0.0674
   10MOL   C358 7216   3.878   4.993   7.469  0.5983 -0.6108 -0.4538
   10MOL   C359 7217   3.747   5.018   7.401  0.0059 -0.1665 -1.0098
   10MOL   O360 7218   3.645   4.957   7.428 -0.4632  0.4569 -0.9536
   10MOL   O361 7219   3.758   5.100   7.304 -0.7099  0.2677  0.0577
   10MOL   C362 7220   4.004   5.025   7.412 -0.4675  0.5900 -0.2121
   10MOL   C363 7221   4.124   4.991   7.476 -0.2591 -0.5585 -1.0185
   10MOL   H364 7222   4.378   4.738   7.405  0.5968  3.1538  0.5822
   10MOL   H365 7223   4.523   4.813   7.347  1.1418  0.0621  0.1227
   10MOL   H366 7224   4.617   4.578   7.288  0.2815 -0.5594  0.8297
   10MOL   H367 7225   4.450   4.591   7.235 -0.3699  0.0598  1.0005
   10MOL   H368 7226   4.376   4.451   7.419  0.4823 -0.4883  0.1554
   10MOL   H369 7227   4.626   4.340   7.310  0.0604 -0.3680 -3.3175
   10MOL   H370 7228   4.481   4.371   7.215 -0.1430 -0.0709 -0.3292
   10MOL   H371 7229   4.669   4.460   7.510  0.0565 -0.1163 -0.8303
   10MOL   H372 7230   4.539   4.380   7.586  0.5544  0.7014  0.4824
   10MOL   H373 7231   4.411   4.572   7.647 -0.6783  1.1849 -2.3803
   10MOL   H374 7232   4.578   4.576   7.705  0.5854 -0.8664 -0.6080
   10MOL   H375 7233   4.643   4.738   7.555 -0.5613  0.2685 -0.6235
   10MOL   H376 7234   4.552   4.926   7.611 -1.8291  1.1443  0.9178
   10MOL   H377 7235   4.489   4.832   7.740 -3.1593 -0.9404  0.5100
   10MOL   H378 7236   3.989   4.793   7.725 -0.6430 -0.5320 -0.2367
   10MOL   H379 7237   3.786   4.873   7.620 -0.8559  1.4695  1.1022
   10MOL   H380 7238   4.006   5.066   7.312 -1.2044  0.6998 -0.1886
   10MOL   H381 7239   4.213   5.020   7.422  0.2497  0.7607  0.4771
   10MOL   C382 7240   3.844   5.286   6.913  0.1355  0.2496 -0.5412
   10MOL   C383 7241   3.791   5.181   7.015  0.1786  0.3465 -0.2692
   10MOL   C384 7242   3.689   5.240   7.116 -0.2349  0.0782 -0.2896
   10MOL   C385 7243   3.649   5.130   7.218 -0.4403 -1.1387 -0.3400
   10MOL   C386 7244   3.736   5.370   7.181 -0.2410 -0.3884  0.0932
   10MOL   C387 7245   3.778   5.471   7.074 -0.2835  0.5269 -0.1514
   10MOL   C388 7246   3.887   5.420   6.980  0.0976 -0.2814 -0.5206
   10MOL   C389 7247   3.950   5.520   6.877 -0.0497  0.7443  0.1017
   10MOL   O390 7248   3.854   5.573   6.796 -0.1314  0.5216  0.3405
   10MOL   C391 7249   3.866   5.574   6.660  0.4253 -0.3141  0.7248
   10MOL   O392 7250   3.962   5.527   6.604 -0.0245  0.3536 -0.1293
   10MOL   C393 7251   3.760   5.656   6.598 -0.4328 -0.3153  0.7660
   10MOL   C394 7252   3.757   5.673   6.458  0.3144  0.5317 -0.3080
   10MOL   C395 7253   3.656   5.762   6.406 -0.3697 -0.1031 -0.1750
   10MOL   C396 7254   3.558   5.825   6.485  0.2626  0.2439  0.2224
   10MOL   C397 7255   3.467   5.924   6.417 -0.4413 -0.0347 -0.1209
   10MOL   O398 7256   3.444   5.924   6.299  0.0729 -0.1594 -0.5242
   10MOL   O399 7257   3.416   6.006   6.504 -0.4634  0.3303  0.7743
   10MOL   C400 7258   3.557   5.790   6.621  0.0012 -1.1010  0.2521
   10MOL   C401 7259   3.653   5.706   6.677  0.0970  0.5146  0.0808
   10MOL   H402 7260   3.771   5.295   6.833  0.3211 -1.7514 -0.9603
   10MOL   H403 7261   3.927   5.242   6.858 -0.2159 -0.0026 -0.8743
   10MOL   H404 7262   3.871   5.143   7.079  0.2779  1.2749  0.1693
   10MOL   H405 7263   3.748   5.094   6.966  0.5773 -0.6094  1.0471
   10MOL   H406 7264   3.593   5.271   7.073 -0.8686 -2.4183 -0.7614
   10MOL   H407 7265   3.623   5.039   7.163  1.3525 -1.0637 -1.3713
   10MOL   H408 7266   3.566   5.167   7.278  2.1058 -0.7781  3.1161
   10MOL   H409 7267   3.812   5.338   7.253 -0.0924  2.9660  1.5325
   10MOL   H410 7268   3.660   5.418   7.243 -1.1752  0.0787 -1.3928
   10MOL   H411 7269   3.690   5.499   7.017  0.9364  0.6642 -1.9781
   10MOL   H412 7270   3.825   5.552   7.131  1.0712  0.2769 -0.9023
   10MOL   H413 7271   3.970   5.398   7.046 -0.4465 -1.4209 -0.2010
   10MOL   H414 7272   4.032   5.477   6.820 -1.4929 -0.2146 -1.2694
   10MOL   H415 7273   3.996   5.595   6.942 -0.3420  1.3646 -0.3991
   10MOL   H416 7274   3.838   5.634   6.399 -0.3566 -1.2296 -0.1108
   10MOL   H417 7275   3.659   5.773   6.299 -1.8072 -1.5848 -0.3875
   10MOL   H418 7276   3.477   5.824   6.686 -1.1987 -1.7681 -0.8474
   10MOL   H419 7277   3.645   5.696   6.784  0.6442  0.3424  0.1045
   10MOL   C420 7278   3.295   6.276   6.808  0.6375 -0.2110 -0.0809
   10MOL   C421 7279   3.360   6.206   6.691 -0.2696 -0.5435 -0.0937
   10MOL   C422 7280   3.248   6.141   6.604  0.4458  0.0532 -0.1658
   10MOL   C423 7281   3.309   6.092   6.475  0.2952 -0.0497 -0.6017
   10MOL   C424 7282   3.171   6.036   6.684  0.5409  0.7768 -0.5592
   10MOL   C425 7283   3.111   6.091   6.811  0.3868 -0.1336  0.0878
   10MOL   C426 7284   3.210   6.178   6.890 -0.0924  0.3599  0.2437
   10MOL   C427 7285   3.130   6.254   6.992  0.4003  0.2870  0.0571
   10MOL   O428 7286   3.053   6.163   7.065  0.0456  0.0941  0.1322
   10MOL   C429 7287   3.092   6.131   7.192 -0.7498 -0.3694  0.1919
   10MOL   O430 7288   3.200   6.173   7.233  0.1400  0.3762 -0.2378
   10MOL   C431 7289   2.986   6.061   7.265  0.5121  0.5148  0.5474
   10MOL   C432 7290   3.025   6.012   7.391 -0.2677 -0.5660 -0.9973
   10MOL   C433 7291   2.941   5.932   7.475 -0.0257  0.1082  0.6832
   10MOL   C434 7292   2.811   5.894   7.424  0.3350  0.1836 -0.6872
   10MOL   C435 7293   2.717   5.823   7.503 -0.5073  0.6661  0.3330
   10MOL   O436 7294   2.603   5.801   7.468 -0.0863  0.1394 -0.1713
   10MOL   O437 7295   2.768   5.766   7.615 -0.2602 -0.3194  1.3193
   10MOL   C438 7296   2.778   5.946   7.298 -0.5635  0.1608  0.0253
   10MOL   C439 7297   2.865   6.018   7.213  0.2494 -0.5857 -0.2415
   10MOL   H440 7298   3.237   6.364   6.782 -1.1800 -0.0906  4.0304
   10MOL   H441 7299   3.370   6.315   6.877 -0.1419 -1.9049  1.7763
   10MOL   H442 7300   3.423   6.127   6.734  1.3185  0.1563 -1.0745
   10MOL   H443 7301   3.417   6.274   6.628  1.2940 -1.3622  0.4029
   10MOL   H444 7302   3.176   6.218   6.577 -1.0980 -1.2265  0.2248
   10MOL   H445 7303   3.347   6.178   6.421 -1.3190  0.7381 -0.5248
   10MOL   H446 7304   3.236   6.048   6.406  0.5188 -2.2115  0.4770
   10MOL   H447 7305   3.238   5.951   6.704 -1.3383 -0.8259 -0.9310
   10MOL   H448 7306   3.096   5.990   6.621 -1.5705  0.1911  2.2706
   10MOL   H449 7307   3.021   6.144   6.781  0.6590 -0.2491 -0.9491
   10MOL   H450 7308   3.078   6.012   6.878  1.9501 -2.0470 -1.3582
   10MOL   H451 7309   3.275   6.105   6.940 -1.0699  0.2099  1.3102
   10MOL   H452 7310   3.043   6.305   6.951  0.0619  1.4340  2.1514
   10MOL   H453 7311   3.175   6.325   7.060  1.8527 -0.5872  0.0261
   10MOL   H454 7312   3.125   6.038   7.421 -1.1057 -0.2118  1.6401
   10MOL   H455 7313   2.975   5.897   7.572 -1.8617 -1.4745  0.7776
   10MOL   H456 7314   2.686   5.924   7.245 -0.4350 -1.8828  0.5956
   10MOL   H457 7315   2.818   6.052   7.122  2.1273  0.7760 -0.7148
   10MOL   C458 7316   2.537   5.312   7.664  0.5852  0.0435  0.2232
   10MOL   C459 7317   2.564   5.453   7.719  0.4774 -0.6661 -0.6079
   10MOL   C460 7318   2.667   5.537   7.635 -0.6217  0.7072  0.2406
   10MOL   C461 7319   2.694   5.679   7.694 -0.9052 -0.0107 -0.3674
   10MOL   C462 7320   2.795   5.460   7.615 -0.3654  0.3743  0.1253
   10MOL   C463 7321   2.766   5.319   7.547  0.3619  0.1160  0.2546
   10MOL   C464 7322   2.663   5.231   7.637  0.5443 -0.2412  0.5146
   10MOL   C465 7323   2.628   5.097   7.567 -0.2813 -0.4236  0.2264
   10MOL   O466 7324   2.739   5.000   7.573  0.0739 -0.1152 -0.1371
   10MOL   C467 7325   2.738   4.912   7.677  0.3204  0.4897 -0.3823
   10MOL   O468 7326   2.655   4.920   7.764  0.1635 -0.7074  0.0252
   10MOL   C469 7327   2.847   4.810   7.670 -0.2924 -0.2798 -0.1295
   10MOL   C470 7328   2.867   4.729   7.787 -0.3129  0.8097 -0.5132
   10MOL   C471 7329   2.976   4.640   7.796 -0.1685  0.1851  0.5327
   10MOL   C472 7330   3.067   4.628   7.681  0.4299 -0.5714 -0.6841
   10MOL   C473 7331   3.195   4.560   7.701 -0.5336 -0.2822  0.2885
   10MOL   O474 7332   3.292   4.557   7.626 -0.1082  0.3787  0.0821
   10MOL   O475 7333   3.190   4.482   7.812  0.9467 -0.3764 -0.3878
   10MOL   C476 7334   3.044   4.706   7.561  0.6736  1.2891  0.1146
   10MOL   C477 7335   2.934   4.791   7.560 -1.0276 -0.8343 -0.3138
   10MOL   H478 7336   2.479   5.330   7.574 -2.1121  0.7297  2.0291
   10MOL   H479 7337   2.490   5.246   7.737  0.1656  0.9144  0.7552
   10MOL   H480 7338   2.604   5.441   7.820 -1.6631  3.2011  0.8139
   10MOL   H481 7339   2.472   5.512   7.715  0.7453 -0.2679 -0.9029
   10MOL   H482 7340   2.628   5.552   7.535  2.5985 -0.0111 -1.1763
   10MOL   H483 7341   2.753   5.668   7.785 -0.7930 -0.6343 -0.5165
   10MOL   H484 7342   2.598   5.730   7.707  0.5843  2.3648  1.6523
   10MOL   H485 7343   2.831   5.441   7.716 -2.5612  0.6403  1.0012
   10MOL   H486 7344   2.877   5.516   7.571 -2.3292  1.6259 -2.0670
   10MOL   H487 7345   2.733   5.345   7.446 -1.7329  2.1366  1.3828
   10MOL   H488 7346   2.859   5.265   7.530 -0.6010 -0.8802 -2.0211
   10MOL   H489 7347   2.718   5.195   7.724 -0.8228  0.0225  1.4993
   10MOL   H490 7348   2.618   5.117   7.460  2.2611  1.7202  0.3439
   10MOL   H491 7349   2.531   5.063   7.603 -1.0594  2.8007  1.3066
   10MOL   H492 7350   2.812   4.748   7.878  0.9721  2.5603 -0.0888
   10MOL   H493 7351   2.996   4.591   7.890  0.2308 -0.4059  0.1426
   10MOL   H494 7352   3.113   4.704   7.478 -1.1131 -0.6698 -1.3889
   10MOL   H495 7353   2.929   4.858   7.476  1.3477  1.6789  1.4488
   10MOL   C496 7354   3.199   4.043   7.864 -0.0544 -0.4282  0.0754
   10MOL   C497 7355   3.223   4.187   7.902 -0.2109  0.0279 -0.7389
   10MOL   C498 7356   3.307   4.265   7.793  0.2447 -0.3297  0.3646
   10MOL   C499 7357   3.318   4.414   7.844 -0.4269 -0.4921 -0.0123
   10MOL   C500 7358   3.446   4.202   7.768 -0.5459  0.2505  0.9097
   10MOL   C501 7359   3.418   4.058   7.716 -0.5827  0.2753 -0.9737
   10MOL   C502 7360   3.332   3.977   7.825 -0.2052 -0.0093 -0.0028
   10MOL   C503 7361   3.308   3.836   7.778 -0.0418 -0.0777  0.6124
   10MOL   O504 7362   3.426   3.762   7.799 -0.0420 -0.7906 -0.2927
   10MOL   C505 7363   3.438   3.650   7.726  0.0308 -0.1211  0.6612
   10MOL   O506 7364   3.356   3.601   7.645 -0.2036 -0.0861  0.0618
   10MOL   C507 7365   3.572   3.592   7.759 -0.1888 -0.3131  0.2362
   10MOL   C508 7366   3.594   3.459   7.715 -0.5475  0.3962  0.0917
   10MOL   C509 7367   3.723   3.396   7.741  0.5815 -0.2578  0.3482
   10MOL   C510 7368   3.822   3.467   7.803 -0.1917 -0.7222  0.1812
   10MOL   C511 7369   3.961   3.406   7.810 -0.0699  0.2398 -0.1103
   10MOL   O512 7370   3.989   3.305   7.746 -0.1288  0.2539  0.0090
   10MOL   O513 7371   4.038   3.459   7.903  0.4511  0.2007 -0.0883
   10MOL   C514 7372   3.787   3.590   7.863  0.5769 -0.8730 -0.0732
   10MOL   C515 7373   3.668   3.659   7.838 -0.0305 -0.0140  0.0535
   10MOL   H516 7374   3.126   4.043   7.783  1.6528  0.8842 -1.4956
   10MOL   H517 7375   3.163   3.990   7.952 -2.4483  0.0629 -0.5666
   10MOL   H518 7376   3.265   4.203   8.002 -1.7660  1.0192 -0.2262
   10MOL   H519 7377   3.125   4.235   7.899  0.0493  0.4758 -2.1683
   10MOL   H520 7378   3.255   4.262   7.697  0.7310  1.6666  0.0014
   10MOL   H521 7379   3.398   4.466   7.792  0.4297  0.7155  2.4090
   10MOL   H522 7380   3.337   4.420   7.952 -0.2833  0.0375 -0.0683
   10MOL   H523 7381   3.511   4.197   7.855  0.0828  1.1472  0.4985
   10MOL   H524 7382   3.494   4.258   7.687 -2.2668 -1.4825 -1.3943
   10MOL   H525 7383   3.360   4.053   7.624 -1.3084 -2.4481 -0.4223
   10MOL   H526 7384   3.513   4.005   7.715  0.1346  1.5555 -1.1628
   10MOL   H527 7385   3.385   3.964   7.919 -1.8571 -0.4859  0.8909
   10MOL   H528 7386   3.290   3.826   7.671  0.2820 -2.0145  0.7195
   10MOL   H529 7387   3.222   3.791   7.828  1.4231 -1.8855  1.5705
   10MOL   H530 7388   3.519   3.403   7.662  0.0549 -1.1315  0.8100
   10MOL   H531 7389   3.753   3.306   7.688  0.0624 -0.5494  0.5428
   10MOL   H532 7390   3.871   3.644   7.905 -0.9592  0.0173  1.8766
   10MOL   H533 7391   3.651   3.758   7.877  0.6275  0.1857 -0.1638
   10MOL   C534 7392   4.187   3.439   0.287  0.6410 -0.3710 -0.3740
   10MOL   C535 7393   4.173   3.491   0.143  0.5992 -0.3962  0.5967
   10MOL   C536 7394   4.191   3.377   0.043 -0.3170 -0.0475  0.3210
   10MOL   C537 7395   4.169   3.417   7.934 -0.0335  0.2008 -0.3364
   10MOL   C538 7396   4.337   3.330   0.067  0.7747 -0.3638  0.0000
   10MOL   C539 7397   4.343   3.270   0.210 -0.2851  0.2943  0.3446
   10MOL   C540 7398   4.317   3.370   0.321 -0.5371 -0.6594  0.3961
   10MOL   C541 7399   4.312   3.292   0.458  0.0239 -0.4501  0.0016
   10MOL   O542 7400   4.208   3.196   0.448  0.1596 -0.3339 -0.1091
   10MOL   C543 7401   4.153   3.146   0.556  0.2971  0.4494  0.6877
   10MOL   O544 7402   4.190   3.177   0.670  0.3944 -0.3529  0.3508
   10MOL   C545 7403   4.032   3.058   0.529  0.3114 -0.1646 -0.2041
   10MOL   C546 7404   4.003   3.003   0.401 -0.4376  0.4503 -0.0578
   10MOL   C547 7405   3.911   2.896   0.372  0.0955 -0.5493 -0.2393
   10MOL   C548 7406   3.840   2.843   0.481  0.5848 -0.0192  0.4530
   10MOL   C549 7407   3.747   2.728   0.463 -0.0872 -0.2444 -0.6396
   10MOL   O550 7408   3.751   2.652   0.365  0.6244  0.2989  0.3844
   10MOL   O551 7409   3.669   2.700   0.569  0.3020  0.1055  0.1551
   10MOL   C552 7410   3.860   2.902   0.608  0.3034  0.0864  0.9847
   10MOL   C553 7411   3.958   2.999   0.633  0.0775  0.5085 -0.3805
   10MOL   H554 7412   4.098   3.377   0.300 -0.1519  1.0320  0.9238
   10MOL   H555 7413   4.177   3.528   0.348 -0.7960 -0.4853 -0.4214
   10MOL   H556 7414   4.231   3.576   0.107 -0.8772  0.3399 -0.0896
   10MOL   H557 7415   4.071   3.525   0.125  0.0631 -1.9648  0.5646
   10MOL   H558 7416   4.120   3.299   0.070 -3.8253  2.9214  0.0482
   10MOL   H559 7417   4.195   3.326   7.880  1.6478  0.2666  0.3287
   10MOL   H560 7418   4.245   3.490   7.905  1.6824 -2.1032 -1.8917
   10MOL   H561 7419   4.402   3.415   0.045 -2.8468  2.4630 -0.1826
   10MOL   H562 7420   4.348   3.246   8.031 -0.8267 -0.2966 -0.3499
   10MOL   H563 7421   4.275   3.185   0.206  0.2049 -0.0408 -1.3003
   10MOL   H564 7422   4.443   3.230   0.220 -0.2074  0.1812 -0.7955
   10MOL   H565 7423   4.401   3.440   0.326 -0.8409 -0.2210 -0.7279
   10MOL   H566 7424   4.295   3.366   0.536 -0.7647 -2.2588  1.5882
   10MOL   H567 7425   4.399   3.238   0.496  0.7471 -0.8159 -2.0953
   10MOL   H568 7426   4.069   3.035   0.322  0.8438 -0.1426  0.7671
   10MOL   H569 7427   3.909   2.850   0.274 -1.3494  1.6890 -1.2899
   10MOL   H570 7428   3.811   2.857   0.693  1.9304 -1.3280  1.2055
   10MOL   H571 7429   3.972   3.028   0.736  0.3549 -1.9807  0.3117
   10MOL   C572 7430   3.250   2.789   0.609 -0.1610 -0.4191  0.2708
   10MOL   C573 7431   3.398   2.748   0.635 -0.1922  0.5751  0.2600
   10MOL   C574 7432   3.448   2.641   0.537  0.0357  0.5535  0.3936
   10MOL   C575 7433   3.586   2.591   0.573 -0.4018 -0.0308 -0.0754
   10MOL   C576 7434   3.351   2.518   0.540  0.2429 -0.1988  0.9686
   10MOL   C577 7435   3.198   2.547   0.536 -0.2959  0.1144  0.0060
   10MOL   C578 7436   3.154   2.668   0.625  0.2764 -1.0697  0.3607
   10MOL   C579 7437   3.014   2.706   0.581  0.1806 -0.3957 -0.3061
   10MOL   O580 7438   2.953   2.793   0.677  0.1175  0.3326  0.0360
   10MOL   C581 7439   2.928   2.922   0.653  0.6260 -0.1481 -0.7982
   10MOL   O582 7440   2.970   2.980   0.550 -0.7293  0.5954 -0.3072
   10MOL   C583 7441   2.841   2.984   0.753  0.2955 -0.0388  0.3019
   10MOL   C584 7442   2.742   3.068   0.704  0.5819 -0.3812 -0.5170
   10MOL   C585 7443   2.667   3.142   0.798 -0.0452 -0.5159  0.4416
   10MOL   C586 7444   2.690   3.130   0.936 -0.5786  0.3421 -0.1516
   10MOL   C587 7445   2.619   3.224   1.029 -0.5867  0.1896 -0.9035
   10MOL   O588 7446   2.649   3.233   1.150  0.0311 -0.2164 -0.1048
   10MOL   O589 7447   2.532   3.306   0.965  0.0340  0.2761 -0.0044
   10MOL   C590 7448   2.780   3.032   0.983 -0.6328  0.1420  0.2017
   10MOL   C591 7449   2.866   2.966   0.891 -0.4271  0.5416  0.0986
   10MOL   H592 7450   3.241   2.843   0.515 -0.5664 -0.4140  0.3143
   10MOL   H593 7451   3.211   2.865   0.677  1.9372  0.9468 -0.0035
   10MOL   H594 7452   3.415   2.705   0.733  0.4997  0.9501  0.3102
   10MOL   H595 7453   3.460   2.837   0.627  0.8236 -0.1830 -0.5459
   10MOL   H596 7454   3.454   2.676   0.433  0.0651  1.3031  0.6451
   10MOL   H597 7455   3.621   2.508   0.511 -0.5818 -0.2421  0.1064
   10MOL   H598 7456   3.583   2.545   0.672  0.6962 -0.8362 -0.4043
   10MOL   H599 7457   3.370   2.472   0.637  1.7369  0.8981  1.2021
   10MOL   H600 7458   3.369   2.439   0.467 -1.7655 -0.6433  0.9343
   10MOL   H601 7459   3.170   2.578   0.435 -1.2927 -0.1357  0.2078
   10MOL   H602 7460   3.137   2.460   0.557  3.6511 -2.5509  1.0530
   10MOL   H603 7461   3.141   2.623   0.723 -0.8729 -1.4085  0.0643
   10MOL   H604 7462   2.958   2.613   0.569  0.3892 -0.4215 -1.0851
   10MOL   H605 7463   3.031   2.764   0.490 -1.6941 -1.4026 -1.3300
   10MOL   H606 7464   2.723   3.083   0.598  0.9706  2.4310 -0.2131
   10MOL   H607 7465   2.605   3.215   0.748  1.4563  0.3161 -0.2527
   10MOL   H608 7466   2.807   3.014   1.086  3.5257 -0.3733 -0.8824
   10MOL   H609 7467   2.941   2.896   0.924  0.9834  1.9162 -0.1622
   10MOL   C610 7468   2.207   3.517   0.766 -0.1793 -0.2322 -0.2123
   10MOL   C611 7469   2.300   3.418   0.845  0.7943  0.5497 -0.7603
   10MOL   C612 7470   2.373   3.495   0.949  0.1889  0.7375 -0.2055
   10MOL   C613 7471   2.463   3.406   1.044  0.4221  0.3828 -0.1568
   10MOL   C614 7472   2.469   3.594   0.884 -0.0062  0.1927  0.4533
   10MOL   C615 7473   2.398   3.691   0.783  0.4151 -0.0302 -0.9447
   10MOL   C616 7474   2.295   3.622   0.696  0.3200 -0.3795 -0.2604
   10MOL   C617 7475   2.201   3.718   0.613  0.4154  0.0049  0.3439
   10MOL   O618 7476   2.272   3.783   0.511 -0.4559 -0.0143  0.4180
   10MOL   C619 7477   2.278   3.734   0.387  0.2562  0.3445  0.1140
   10MOL   O620 7478   2.187   3.670   0.336  0.5479  0.0566  0.4268
   10MOL   C621 7479   2.399   3.771   0.314  0.0941 -0.0634  0.1201
   10MOL   C622 7480   2.505   3.842   0.376 -0.8787 -0.4325  0.0015
   10MOL   C623 7481   2.629   3.867   0.311 -0.2920  0.6261  0.4327
   10MOL   C624 7482   2.646   3.808   0.181 -0.5317 -0.8086 -0.2082
   10MOL   C625 7483   2.780   3.820   0.110  0.2166  0.0243  0.4198
   10MOL   O626 7484   2.802   3.788   8.025  0.0690 -0.7790 -0.2285
   10MOL   O627 7485   2.876   3.857   0.196  0.1241  1.1504  0.0752
   10MOL   C628 7486   2.535   3.747   0.114 -0.3960 -0.2425 -0.0573
   10MOL   C629 7487   2.413   3.735   0.183 -0.4906  0.3529 -1.4029
   10MOL   H630 7488   2.132   3.558   0.834 -1.2117  0.8727 -1.9718
   10MOL   H631 7489   2.159   3.457   0.688  1.5051 -0.3673 -1.1625
   10MOL   H632 7490   2.368   3.364   0.779  0.7062 -0.8758  0.3045
   10MOL   H633 7491   2.241   3.336   0.884  2.2205  0.7763  2.0204
   10MOL   H634 7492   2.320   3.572   1.005  0.9649  1.2348 -0.1458
   10MOL   H635 7493   2.393   3.349   1.105 -1.8767  2.5578 -0.7086
   10MOL   H636 7494   2.539   3.462   1.097  1.6448 -0.0534 -1.4248
   10MOL   H637 7495   2.540   3.535   0.826  1.1141 -1.0493  2.9674
   10MOL   H638 7496   2.521   3.653   0.960 -1.1834  1.0933  0.5598
   10MOL   H639 7497   2.343   3.756   0.851  2.1357  1.1044 -0.6182
   10MOL   H640 7498   2.473   3.754   0.737  0.2360  0.3208 -0.7587
   10MOL   H641 7499   2.358   3.559   0.632  0.3760 -0.8796  0.2810
   10MOL   H642 7500   2.146   3.798   0.663 -2.4446 -1.7802  0.1136
   10MOL   H643 7501   2.121   3.663   0.564  1.0026 -2.2034  1.7841
   10MOL   H644 7502   2.493   3.882   0.476  2.7228  1.4286 -0.2279
   10MOL   H645 7503   2.708   3.930   0.351  0.6883  0.7666 -1.6792
   10MOL   H646 7504   2.544   3.707   0.015 -3.0476 -0.4007 -0.2881
   10MOL   H647 7505   2.331   3.681   0.139 -2.5889 -0.7744  3.5446
   10MOL   C648 7506   3.266   3.680   0.356  0.4715  0.1573 -1.3846
   10MOL   C649 7507   3.139   3.700   0.275  0.6247 -0.3498 -0.1978
   10MOL   C650 7508   3.122   3.849   0.244 -0.0019 -0.1796  0.0865
   10MOL   C651 7509   3.008   3.876   0.146  0.3634 -0.7454 -0.3949
   10MOL   C652 7510   3.115   3.937   0.362  0.1025 -0.0383  0.2051
   10MOL   C653 7511   3.228   3.914   0.462 -0.4558  0.0653 -0.1557
   10MOL   C654 7512   3.258   3.764   0.487  0.5705  0.8596 -0.9189
   10MOL   C655 7513   3.393   3.751   0.563 -0.2090  0.5121 -0.2501
   10MOL   O656 7514   3.387   3.833   0.677 -0.3352  0.4820 -0.3502
   10MOL   C657 7515   3.492   3.861   0.754  0.3303  0.3255  0.1834
   10MOL   O658 7516   3.599   3.805   0.745  0.0942 -0.1820 -0.1823
   10MOL   C659 7517   3.455   3.963   0.854 -0.1908 -0.4213  0.7704
   10MOL   C660 7518   3.555   4.050   0.907  0.4046 -0.2166  0.0455
   10MOL   C661 7519   3.514   4.149   1.004 -0.0344 -0.3305 -0.5644
   10MOL   C662 7520   3.380   4.153   1.048 -0.4321  0.3206  0.4529
   10MOL   C663 7521   3.343   4.263   1.138  0.1471 -0.5248  0.1793
   10MOL   O664 7522   3.228   4.286   1.177  0.3270  0.5505  0.2033
   10MOL   O665 7523   3.440   4.354   1.166 -0.3185  0.1040  0.2572
   10MOL   C666 7524   3.284   4.067   0.998  0.3036  0.5737  0.2728
   10MOL   C667 7525   3.323   3.977   0.898  0.7551  0.3050  0.0762
   10MOL   H668 7526   3.351   3.713   0.295  0.7346  1.1138 -0.5219
   10MOL   H669 7527   3.287   3.578   0.388 -0.0777  0.2512 -0.7022
   10MOL   H670 7528   3.060   3.660   0.338  1.2154 -1.0932  0.0823
   10MOL   H671 7529   3.142   3.632   0.189 -1.8403 -0.1178 -0.5195
   10MOL   H672 7530   3.212   3.879   0.191  1.3118 -2.9745  0.6613
   10MOL   H673 7531   3.026   3.798   0.073 -1.4202 -0.5033 -1.1320
   10MOL   H674 7532   3.011   3.976   0.102 -0.6212 -0.5098  0.0508
   10MOL   H675 7533   3.026   3.921   0.423 -0.0770 -0.5968 -0.1940
   10MOL   H676 7534   3.116   4.042   0.335  2.9404 -0.9342 -3.5849
   10MOL   H677 7535   3.318   3.969   0.436 -0.5078  0.3075  0.1665
   10MOL   H678 7536   3.201   3.961   0.557 -0.3422 -3.5097  1.7285
   10MOL   H679 7537   3.175   3.724   0.545  0.0239 -1.1982 -3.0586
   10MOL   H680 7538   3.473   3.789   0.499 -0.9444 -1.1157 -2.2060
   10MOL   H681 7539   3.407   3.644   0.580  0.5596  0.6269 -0.1443
   10MOL   H682 7540   3.657   4.031   0.878  0.5052 -0.8313  0.7853
   10MOL   H683 7541   3.589   4.215   1.044 -1.8127  0.4090  1.6144
   10MOL   H684 7542   3.184   4.055   1.037  0.7924 -0.6948  1.1877
   10MOL   H685 7543   3.246   3.912   0.859  0.2247  1.2385 -0.4541
   10MOL   C686 7544   3.724   4.660   1.394  0.1970  0.1975  0.4378
   10MOL   C687 7545   3.570   4.630   1.370  0.2115  0.5487  0.5572
   10MOL   C688 7546   3.552   4.543   1.251  0.0388 -0.6840  0.4021
   10MOL   C689 7547   3.412   4.474   1.232  0.3875 -0.1706 -0.2188
   10MOL   C690 7548   3.603   4.621   1.126  0.4289  0.6913  0.3834
   10MOL   C691 7549   3.751   4.663   1.141  0.6488 -1.0467 -0.6347
   10MOL   C692 7550   3.770   4.739   1.276 -0.4254  0.4595  1.0151
   10MOL   C693 7551   3.911   4.783   1.292 -0.5812  0.5874 -0.0260
   10MOL   O694 7552   3.989   4.664   1.307  0.1129  0.2607  0.5263
   10MOL   C695 7553   4.112   4.673   1.267 -0.0617  0.0889  0.5623
   10MOL   O696 7554   4.176   4.777   1.243 -0.5115 -0.3345 -0.1197
   10MOL   C697 7555   4.161   4.537   1.242 -1.0481  0.5880  1.0971
   10MOL   C698 7556   4.281   4.520   1.168  0.4559 -0.7907  0.3389
   10MOL   C699 7557   4.325   4.400   1.128  0.1219  0.4685 -0.1937
   10MOL   C700 7558   4.261   4.281   1.159 -0.0237 -0.0786 -0.3051
   10MOL   C701 7559   4.321   4.147   1.120 -0.3061 -0.0158 -0.0996
   10MOL   O702 7560   4.270   4.046   1.153 -0.4219  0.0055 -0.0889
   10MOL   O703 7561   4.422   4.145   1.027 -0.0186  0.3536  0.3007
   10MOL   C704 7562   4.140   4.288   1.230 -1.0779 -0.1676 -0.6333
   10MOL   C705 7563   4.089   4.418   1.275 -0.1577  0.2477  0.4209
   10MOL   H706 7564   3.778   4.569   1.418  0.0212  0.0160  0.1611
   10MOL   H707 7565   3.732   4.724   1.481  0.0496  0.5214  0.2178
   10MOL   H708 7566   3.507   4.719   1.364 -0.6726  0.0164  1.6200
   10MOL   H709 7567   3.524   4.565   1.445  1.2845 -1.6197 -0.6274
   10MOL   H710 7568   3.628   4.465   1.249  1.5677  0.7917 -1.1377
   10MOL   H711 7569   3.356   4.535   1.162 -1.8191  0.4267  1.9775
   10MOL   H712 7570   3.361   4.468   1.328 -0.9120  0.2885 -0.8696
   10MOL   H713 7571   3.546   4.713   1.115 -1.3667 -0.5006 -0.6331
   10MOL   H714 7572   3.600   4.556   1.038  2.3567 -0.0908  0.8685
   10MOL   H715 7573   3.808   4.570   1.134  0.6235 -1.1916  0.8810
   10MOL   H716 7574   3.775   4.728   1.056 -1.8706 -0.8185 -1.2153
   10MOL   H717 7575   3.704   4.826   1.276 -0.5963  0.3374 -0.0677
   10MOL   H718 7576   3.923   4.844   1.381  0.8026  0.2734  0.0146
   10MOL   H719 7577   3.947   4.847   1.212  1.6179 -1.3221 -0.6320
   10MOL   H720 7578   4.338   4.612   1.163 -0.5986 -0.1496  0.0243
   10MOL   H721 7579   4.420   4.386   1.078 -0.7496 -1.4292 -1.3675
   10MOL   H722 7580   4.096   4.192   1.255  0.2290 -0.7560 -0.5637
   10MOL   H723 7581   3.994   4.423   1.325 -1.3935  0.3522 -1.8490
   10MOL   C724 7582   4.340   3.824   0.655  0.5223 -0.9755  0.4516
   10MOL   C725 7583   4.423   3.853   0.778  0.2717 -0.4397 -0.3521
   10MOL   C726 7584   4.378   3.996   0.830 -0.7082  0.4985 -0.2146
   10MOL   C727 7585   4.459   4.028   0.956  0.4162  0.4869  0.1982
   10MOL   C728 7586   4.393   4.108   0.725  0.9166 -0.1451  0.4184
   10MOL   C729 7587   4.325   4.070   0.589 -0.7321  0.9301 -0.7488
   10MOL   C730 7588   4.374   3.930   0.543  0.1177  0.5090 -0.3335
   10MOL   C731 7589   4.309   3.889   0.406  0.6063 -0.3111 -1.1653
   10MOL   O732 7590   4.349   3.980   0.306  0.0659 -0.4899  0.0650
   10MOL   C733 7591   4.261   3.990   0.208 -0.2892  0.3241  0.0056
   10MOL   O734 7592   4.168   3.906   0.189  0.0194 -0.1863 -0.2206
   10MOL   C735 7593   4.277   4.115   0.134 -0.3125 -0.2081  0.5685
   10MOL   C736 7594   4.402   4.185   0.123  0.0707 -0.5249 -0.2656
   10MOL   C737 7595   4.407   4.317   0.077  0.4706  0.1504 -0.2894
   10MOL   C738 7596   4.297   4.385   0.021  0.4109  0.3288  0.3601
   10MOL   C739 7597   4.313   4.525   8.002  0.2739 -0.2266  0.0378
   10MOL   O740 7598   4.413   4.595   8.021  0.0363  0.7508  0.0716
   10MOL   O741 7599   4.216   4.558   7.916  0.2027 -0.6419 -0.0812
   10MOL   C742 7600   4.172   4.311   0.009  0.2640  0.2874 -0.1622
   10MOL   C743 7601   4.171   4.178   0.069 -0.2972 -0.5531  0.3628
   10MOL   H744 7602   4.234   3.828   0.679  0.5006 -0.3998  0.2727
   10MOL   H745 7603   4.352   3.721   0.620  2.8137 -0.4940 -0.2837
   10MOL   H746 7604   4.527   3.845   0.747 -0.5367  0.0785 -3.3249
   10MOL   H747 7605   4.402   3.776   0.853 -1.1406  1.9803  1.8257
   10MOL   H748 7606   4.272   3.990   0.852 -0.5823  0.6237  0.4559
   10MOL   H749 7607   4.560   4.046   0.920  0.2501 -0.8257 -0.9468
   10MOL   H750 7608   4.455   3.940   1.020  2.2173  0.0635 -0.2516
   10MOL   H751 7609   4.497   4.102   0.694 -0.0256  1.9807 -3.4515
   10MOL   H752 7610   4.379   4.210   0.759  1.2326  0.4150 -1.0891
   10MOL   H753 7611   4.217   4.075   0.604 -0.9382 -3.5630 -0.0309
   10MOL   H754 7612   4.367   4.153   0.531  1.4766  1.5488  1.6540
   10MOL   H755 7613   4.482   3.939   0.528 -0.3187  0.4593 -3.9034
   10MOL   H756 7614   4.201   3.884   0.412  0.7037 -1.6477 -0.1836
   10MOL   H757 7615   4.346   3.795   0.365 -2.0737 -2.3643  0.9877
   10MOL   H758 7616   4.484   4.134   0.170 -1.6658 -1.5877  1.7054
   10MOL   H759 7617   4.504   4.365   0.076  0.3262  0.4168 -1.5423
   10MOL   H760 7618   4.086   4.350   7.988 -0.9200 -1.7111  0.2265
   10MOL   H761 7619   4.078   4.123   0.067 -1.0636  0.6992  0.8304
   10MOL   H762 7620   4.242   4.634   7.866 -1.9080  1.3104  1.7236
   11MOL     C1 7621   6.083   6.251   0.558  0.0900 -0.0083  0.2379
   11MOL     C2 7622   6.144   6.249   0.420 -0.5610  0.3756 -0.3505
   11MOL     C3 7623   6.201   6.109   0.381 -0.4075  0.0045  0.1100
   11MOL     C4 7624   6.258   6.094   0.240 -0.1135  0.7851  0.0931
   11MOL     C5 7625   6.303   6.067   0.489  0.1514  0.1303  0.7537
   11MOL     C6 7626   6.248   6.072   0.630  0.7153 -0.3261 -0.2241
   11MOL     C7 7627   6.192   6.213   0.663  0.4659 -0.4846  0.1507
   11MOL     C8 7628   6.136   6.222   0.804  0.0769 -0.2998 -0.0794
   11MOL     O9 7629   6.112   6.351   0.845  0.1169  0.5087 -0.7992
   11MOL    C10 7630   6.019   6.369   0.938  0.0676 -0.1908 -0.0961
   11MOL    O11 7631   5.945   6.282   0.995  0.2974  0.1025  0.2504
   11MOL    C12 7632   6.012   6.508   0.987  0.7383  0.2976 -0.2244
   11MOL    C13 7633   6.088   6.617   0.927 -0.1017  0.6166  0.5564
   11MOL    C14 7634   6.072   6.743   0.978  0.4028 -0.3699 -0.1230
   11MOL    C15 7635   6.000   6.773   1.092  0.4184 -0.2533  0.2935
   11MOL    C16 7636   5.989   6.912   1.144 -0.4626 -0.8474  0.4449
   11MOL    O17 7637   6.029   7.015   1.085 -0.0406  0.0348 -0.3388
   11MOL    O18 7638   5.926   6.921   1.267 -0.2822 -0.3367 -0.2424
   11MOL    C19 7639   5.922   6.668   1.151  0.0923  0.7846 -0.5816
   11MOL    C20 7640   5.933   6.537   1.105 -0.4953 -0.3329 -1.0495
   11MOL    H21 7641   5.990   6.194   0.551  0.6088 -0.5972 -3.0518
   11MOL    H22 7642   6.047   6.351   0.580 -0.2979 -0.5553  2.1265
   11MOL    H23 7643   6.228   6.319   0.426 -1.2650  1.1180  1.0911
   11MOL    H24 7644   6.067   6.278   0.349 -1.1338 -1.0695 -0.3357
   11MOL    H25 7645   6.119   6.037   0.385 -1.4281  0.9923 -2.5148
   11MOL    H26 7646   6.355   6.140   0.226 -0.1255  1.4192  1.9770
   11MOL    H27 7647   6.202   6.160   0.174  0.1050  0.9983  0.1231
   11MOL    H28 7648   6.394   6.127   0.490  0.9958 -1.0980  0.0566
   11MOL    H29 7649   6.324   5.962   0.467 -1.8034  0.2324 -1.7392
   11MOL    H30 7650   6.172   5.997   0.650 -0.4189  1.0659  0.8652
   11MOL    H31 7651   6.334   6.055   0.694  2.0295  2.2644 -1.2311
   11MOL    H32 7652   6.278   6.280   0.653 -0.2279  0.3852 -0.0373
   11MOL    H33 7653   6.206   6.172   0.870  0.7400  2.0751  1.0600
   11MOL    H34 7654   6.048   6.158   0.809 -0.1571 -0.1274 -1.6734
   11MOL    H35 7655   6.146   6.604   0.837 -0.5209 -1.4375  0.5494
   11MOL    H36 7656   6.137   6.819   0.937  0.1720 -0.2084 -0.1892
   11MOL    H37 7657   5.874   6.676   1.247 -0.4362 -1.2575 -0.6530
   11MOL    H38 7658   5.885   6.462   1.165 -1.4239 -0.4911 -1.9687
   11MOL    H39 7659   6.287   5.996   0.201 -1.6284 -1.6699  4.7317
   11MOL    C40 7660   5.703   7.147   1.630  0.0477  0.2881 -0.1372
   11MOL    C41 7661   5.799   7.170   1.508 -0.3120 -0.0665  0.1778
   11MOL    C42 7662   5.842   7.029   1.461 -0.5837 -0.2579  0.3334
   11MOL    C43 7663   5.928   7.047   1.335  0.0800  0.7024 -0.5304
   11MOL    C44 7664   5.915   6.953   1.580  0.8105  0.1632  0.8047
   11MOL    C45 7665   5.830   6.945   1.701 -0.1571 -0.1337  0.3737
   11MOL    C46 7666   5.782   7.083   1.745  0.0117  0.0156 -0.3482
   11MOL    C47 7667   5.710   7.066   1.881 -0.5082 -0.2598 -0.0221
   11MOL    O48 7668   5.799   7.015   1.986 -0.1328 -0.4629  0.1391
   11MOL    C49 7669   5.784   6.903   2.049  0.0141 -0.0061  0.3613
   11MOL    O50 7670   5.699   6.820   2.025  0.5600  0.1147  1.0004
   11MOL    C51 7671   5.885   6.884   2.154 -0.0138  0.3220 -0.6480
   11MOL    C52 7672   6.000   6.965   2.175 -0.0640 -0.1297 -0.2010
   11MOL    C53 7673   6.102   6.941   2.269  0.5148  0.5896 -0.1078
   11MOL    C54 7674   6.083   6.823   2.349  0.0129 -0.3611  0.3235
   11MOL    C55 7675   6.185   6.765   2.435 -0.5235 -0.3058  0.7843
   11MOL    O56 7676   6.183   6.655   2.486 -0.0123 -0.2640 -0.0883
   11MOL    O57 7677   6.280   6.853   2.445 -0.0366  0.4367  0.4396
   11MOL    C58 7678   5.966   6.744   2.333  0.9642 -0.0443 -0.0305
   11MOL    C59 7679   5.868   6.775   2.241 -0.3496  1.5209 -1.2580
   11MOL    H60 7680   5.616   7.090   1.596  0.7083 -1.2695  0.7756
   11MOL    H61 7681   5.672   7.249   1.655  0.3945  0.4887 -0.5244
   11MOL    H62 7682   5.886   7.233   1.528 -0.1424  0.9157 -3.2519
   11MOL    H63 7683   5.748   7.224   1.428 -2.1717 -1.6534  0.2524
   11MOL    H64 7684   5.756   6.976   1.420  0.2730 -1.2262 -0.2520
   11MOL    H65 7685   6.030   7.075   1.364 -0.1001  0.6838  0.1269
   11MOL    H66 7686   5.891   7.120   1.263 -2.4339 -0.0063  0.0148
   11MOL    H67 7687   6.004   7.005   1.614  1.7443 -0.8236 -0.0905
   11MOL    H68 7688   5.932   6.849   1.552  1.5440  1.2624 -3.0117
   11MOL    H69 7689   5.756   6.865   1.691 -0.6486 -0.0536  2.8732
   11MOL    H70 7690   5.895   6.906   1.779  0.1295 -2.4544 -0.9700
   11MOL    H71 7691   5.865   7.150   1.765 -1.0687  0.9599  1.1108
   11MOL    H72 7692   5.613   7.016   1.880  0.2428 -1.7088 -0.5275
   11MOL    H73 7693   5.689   7.167   1.919  1.2744  0.2945 -0.4560
   11MOL    H74 7694   6.006   7.043   2.100  0.7759  0.8829  0.9080
   11MOL    H75 7695   6.189   7.003   2.287  0.2310  0.5351  1.5929
   11MOL    H76 7696   5.958   6.652   2.388  0.6400  1.2593  2.1704
   11MOL    H77 7697   5.783   6.709   2.227  0.5662 -0.6411  2.9175
   11MOL    C78 7698   6.643   6.908   2.194 -0.4848  0.5842 -0.8519
   11MOL    C79 7699   6.525   6.843   2.270  0.1400  0.2105 -0.2523
   11MOL    C80 7700   6.519   6.888   2.417 -0.2338  0.5025 -0.1498
   11MOL    C81 7701   6.410   6.828   2.505 -0.4408 -0.8516 -0.4004
   11MOL    C82 7702   6.655   6.860   2.491 -0.5915  0.1610  0.3471
   11MOL    C83 7703   6.770   6.915   2.418  0.4652 -0.6250 -0.7217
   11MOL    C84 7704   6.778   6.875   2.269  0.2187 -0.6605 -0.6228
   11MOL    C85 7705   6.910   6.929   2.208  0.7360  0.1573  0.1073
   11MOL    O86 7706   6.942   7.059   2.256  0.2093  0.0965 -0.4358
   11MOL    C87 7707   7.069   7.098   2.292 -0.5087 -0.0730 -0.0718
   11MOL    O88 7708   7.165   7.021   2.298 -0.3409 -0.2780  0.0498
   11MOL    C89 7709   7.089   7.245   2.318  0.0665 -1.0209  0.3406
   11MOL    C90 7710   6.988   7.334   2.287  0.2412 -0.0485  0.1430
   11MOL    C91 7711   7.007   7.470   2.328 -0.1689  0.3461  0.1787
   11MOL    C92 7712   7.130   7.520   2.382  0.5473  0.2243  0.1738
   11MOL    C93 7713   7.142   7.667   2.418  0.3847 -0.1634  0.6559
   11MOL    O94 7714   7.060   7.750   2.389  0.0380  0.6973  0.1391
   11MOL    O95 7715   7.257   7.701   2.481  0.1343 -0.0654 -0.4662
   11MOL    C96 7716   7.229   7.425   2.404  0.1001  0.4217  0.3323
   11MOL    C97 7717   7.212   7.289   2.370  0.2737  0.7717  0.1163
   11MOL    H98 7718   6.630   7.016   2.183  3.7219  1.1302 -1.4849
   11MOL    H99 7719   6.659   6.866   2.094 -0.3371 -0.1719 -0.5093
   11MOL   H100 7720   6.530   6.734   2.273 -0.8376  0.1580 -0.1997
   11MOL   H101 7721   6.426   6.862   2.228 -0.1186 -0.0929  0.2041
   11MOL   H102 7722   6.493   6.994   2.413  3.6268  1.5820  0.7222
   11MOL   H103 7723   6.412   6.888   2.596 -1.0557 -2.5857  0.7909
   11MOL   H104 7724   6.429   6.724   2.532  1.6274 -0.8108 -1.5593
   11MOL   H105 7725   6.666   6.751   2.499  3.6622  0.2619 -2.3864
   11MOL   H106 7726   6.659   6.893   2.594  1.4768 -0.0252  0.3496
   11MOL   H107 7727   6.758   7.024   2.420 -0.2986 -0.6766 -1.9920
   11MOL   H108 7728   6.864   6.885   2.462  0.6624 -2.2904 -2.2324
   11MOL   H109 7729   6.784   6.766   2.263  2.2272 -0.5909 -0.1072
   11MOL   H110 7730   6.905   6.923   2.100  0.5185 -1.4278  0.1903
   11MOL   H111 7731   6.992   6.865   2.240  2.1392  1.4544 -0.8621
   11MOL   H112 7732   6.894   7.309   2.239  0.9984 -1.2592 -0.7259
   11MOL   H113 7733   6.925   7.537   2.307  0.1949  1.1231  1.1967
   11MOL   H114 7734   7.324   7.452   2.447 -0.9554  2.6045  1.3666
   11MOL   H115 7735   7.286   7.213   2.390 -0.2104  0.1033 -0.6353
   11MOL   C116 7736   7.501   7.738   2.842 -0.2827 -0.2875  0.5868
   11MOL   C117 7737   7.400   7.713   2.734 -0.3257 -0.1188  0.5684
   11MOL   C118 7738   7.386   7.839   2.646 -0.5864  0.5193 -0.2336
   11MOL   C119 7739   7.265   7.821   2.555 -0.1597  0.0435 -0.1375
   11MOL   C120 7740   7.355   7.957   2.736  0.2114  0.1140  0.1979
   11MOL   C121 7741   7.457   7.972   2.848 -0.6866 -0.8272 -0.4610
   11MOL   C122 7742   7.468   7.856   2.943  0.7523 -0.3742  0.1632
   11MOL   C123 7743   7.573   7.877   3.058  0.7928  1.1805 -0.9337
   11MOL   O124 7744   7.576   7.761   3.143 -0.3623 -0.1325 -0.2053
   11MOL   C125 7745   7.667   7.756   3.248  0.5343  0.4330 -0.6385
   11MOL   O126 7746   7.740   7.846   3.287 -0.1045 -0.1277  0.0459
   11MOL   C127 7747   7.673   7.624   3.316  0.3996  0.7216 -0.1410
   11MOL   C128 7748   7.794   7.560   3.361 -0.0043  0.0703  0.0917
   11MOL   C129 7749   7.793   7.430   3.423  0.0427 -0.5738 -1.2220
   11MOL   C130 7750   7.669   7.368   3.450  0.2674 -0.6436  0.4872
   11MOL   C131 7751   7.660   7.240   3.517  0.9876  0.4279 -0.7302
   11MOL   O132 7752   7.560   7.162   3.516 -0.1969  0.3346 -0.8256
   11MOL   O133 7753   7.769   7.212   3.591 -0.5448  0.2990  0.3311
   11MOL   C134 7754   7.551   7.433   3.409  0.1866 -0.9802  0.0913
   11MOL   C135 7755   7.552   7.552   3.341 -0.2898 -0.8066  0.5058
   11MOL   H136 7756   7.597   7.744   2.790 -0.8082  1.2389 -0.2433
   11MOL   H137 7757   7.504   7.645   2.900  0.3222 -1.5075 -1.3392
   11MOL   H138 7758   7.307   7.697   2.788 -1.5379 -1.9702 -1.9236
   11MOL   H139 7759   7.426   7.627   2.673  3.8415  1.7103 -0.4362
   11MOL   H140 7760   7.475   7.862   2.588 -0.0046  0.6823  0.7091
   11MOL   H141 7761   7.271   7.914   2.497  1.3345 -0.1155 -0.2500
   11MOL   H142 7762   7.175   7.833   2.615  0.7684  2.0678  0.8939
   11MOL   H143 7763   7.263   7.937   2.791 -0.2953  0.3024 -0.5792
   11MOL   H144 7764   7.322   0.011   2.678  0.5574 -0.2022 -0.4712
   11MOL   H145 7765   7.552   7.993   2.799 -0.8048 -0.8067 -0.6808
   11MOL   H146 7766   7.421   0.030   2.898  0.0661 -0.1512 -1.1188
   11MOL   H147 7767   7.371   7.838   2.988  1.0023 -1.2626  0.3573
   11MOL   H148 7768   7.546   7.969   3.109  1.1683  1.4596 -1.2390
   11MOL   H149 7769   7.675   7.885   3.021  1.0481  2.1066 -0.0411
   11MOL   H150 7770   7.887   7.609   3.340 -0.0182  1.6509  3.3576
   11MOL   H151 7771   7.888   7.395   3.460  1.2757  2.3723 -1.3963
   11MOL   H152 7772   7.452   7.392   3.422 -0.8565  1.5134  0.1162
   11MOL   H153 7773   7.465   7.600   3.299  0.6949  0.7083  0.1735
   11MOL   C154 7774   7.932   6.839   3.391 -0.3657 -0.2283 -0.2279
   11MOL   C155 7775   7.826   6.918   3.465  0.5245  0.2185 -0.0556
   11MOL   C156 7776   7.887   6.997   3.584  0.0478  0.9771 -0.4590
   11MOL   C157 7777   7.783   7.084   3.659 -0.2818 -0.1671 -0.0216
   11MOL   C158 7778   7.954   6.900   3.678 -0.0258 -0.4256 -0.4242
   11MOL   C159 7779   0.031   6.827   3.611 -0.6915 -0.6446 -0.2845
   11MOL   C160 7780   8.016   6.749   3.487  0.0783  0.3116 -0.1004
   11MOL   C161 7781   0.098   6.685   3.392  0.4609  0.2683  0.2375
   11MOL   O162 7782   0.190   6.604   3.468  0.4673  0.0576 -0.8185
   11MOL   C163 7783   0.309   6.582   3.418 -0.2938 -0.2058  0.4856
   11MOL   O164 7784   0.346   6.634   3.316 -0.3803 -0.1560 -0.0062
   11MOL   C165 7785   0.396   6.490   3.511 -0.0611 -0.2124  0.3913
   11MOL   C166 7786   0.341   6.417   3.624  0.6547  0.3113  0.0744
   11MOL   C167 7787   0.430   6.335   3.699  0.0195 -0.1876 -0.1317
   11MOL   C168 7788   0.566   6.323   3.671 -0.5691  0.0170  0.1157
   11MOL   C169 7789   0.652   6.233   3.750  0.9179  0.6967  0.3917
   11MOL   O170 7790   0.767   6.210   3.718 -0.5144  0.6713  0.1248
   11MOL   O171 7791   0.584   6.175   3.856  0.0587  0.4565 -0.4165
   11MOL   C172 7792   0.615   6.405   3.568 -0.2300  0.5966  0.0991
   11MOL   C173 7793   0.535   6.497   3.497 -0.2837  0.4343 -0.4416
   11MOL   H174 7794   7.996   6.898   3.325 -0.0456 -2.0618 -1.6024
   11MOL   H175 7795   7.892   6.769   3.317 -1.5497 -0.5986  0.7408
   11MOL   H176 7796   7.737   6.862   3.494  0.5880  1.2728  2.3313
   11MOL   H177 7797   7.784   7.001   3.408 -0.2538  0.4087  0.7829
   11MOL   H178 7798   7.976   7.046   3.544  1.4573 -0.8858  0.3012
   11MOL   H179 7799   7.805   7.098   3.765  0.9963  0.3684 -0.3435
   11MOL   H180 7800   7.685   7.037   3.661 -1.5201  2.1583 -2.2916
   11MOL   H181 7801   7.884   6.827   3.717 -0.5049  0.6052  0.6833
   11MOL   H182 7802   7.984   6.948   3.771 -2.1106 -1.2142  0.6742
   11MOL   H183 7803   0.115   6.895   3.593 -2.0699  1.2353  0.1934
   11MOL   H184 7804   0.075   6.770   3.693 -0.8629  0.3205  0.4921
   11MOL   H185 7805   7.955   6.668   3.526 -0.3242  0.7034  0.0801
   11MOL   H186 7806   0.155   6.771   3.357 -0.1055  0.3923 -0.3933
   11MOL   H187 7807   0.060   6.634   3.304 -0.4977 -1.4695  1.6196
   11MOL   H188 7808   0.234   6.407   3.634  0.6425  0.4276  0.0605
   11MOL   H189 7809   0.383   6.268   3.769 -1.7370  1.4664  0.3318
   11MOL   H190 7810   0.721   6.392   3.554 -0.3178  0.2581 -0.2415
   11MOL   H191 7811   0.577   6.561   3.420  2.0289  0.9171  1.1608
   11MOL   C192 7812   0.387   6.103   4.236 -0.3025  0.4088 -0.0205
   11MOL   C193 7813   0.476   6.139   4.117 -0.6596 -0.4921 -0.2046
   11MOL   C194 7814   0.543   6.024   4.037 -0.4685 -0.0414  0.4459
   11MOL   C195 7815   0.646   6.077   3.932  0.5347  0.4386  0.3479
   11MOL   C196 7816   0.612   5.914   4.126  0.2806 -0.4853  0.4172
   11MOL   C197 7817   0.497   5.866   4.219  0.2453  1.0614  0.2523
   11MOL   C198 7818   0.429   5.974   4.310 -0.6502 -0.3663 -0.0703
   11MOL   C199 7819   0.304   5.910   4.384 -0.6888 -1.1970 -0.0229
   11MOL   O200 7820   0.280   5.966   4.514 -0.4894 -0.8287 -0.2078
   11MOL   C201 7821   0.192   6.069   4.538  0.6449  0.1866 -0.0173
   11MOL   O202 7822   0.163   6.153   4.451 -0.2112 -0.5163 -0.4555
   11MOL   C203 7823   0.129   6.064   4.670 -0.1967 -0.0993  0.5027
   11MOL   C204 7824   0.180   5.971   4.768 -0.3049  0.2537  0.7680
   11MOL   C205 7825   0.112   5.961   4.891  0.4029  0.2131  0.1284
   11MOL   C206 7826   8.030   6.041   4.923 -0.6866  0.3585 -0.6862
   11MOL   C207 7827   7.972   6.028   5.058 -0.5261  0.5162 -0.0919
   11MOL   O208 7828   0.002   5.978   5.142  0.1935  0.0835 -0.4287
   11MOL   O209 7829   7.856   6.089   5.061  0.3367 -0.2980  0.2513
   11MOL   C210 7830   7.982   6.139   4.835 -0.4744  0.1314  0.1230
   11MOL   C211 7831   0.022   6.149   4.710 -0.2448  0.5660  0.4485
   11MOL   H212 7832   0.282   6.078   4.216  0.2785 -1.8301 -0.3662
   11MOL   H213 7833   0.383   6.189   4.303 -2.5703  0.7013 -0.4770
   11MOL   H214 7834   0.549   6.214   4.147 -0.9956 -0.0512 -0.4802
   11MOL   H215 7835   0.421   6.209   4.054  1.1875  1.0382 -0.1586
   11MOL   H216 7836   0.457   5.979   3.986 -0.8244 -0.8695  1.7413
   11MOL   H217 7837   0.673   5.998   3.862  1.7754 -0.1798  1.5077
   11MOL   H218 7838   0.737   6.122   3.971  0.1856  0.1006  1.5510
   11MOL   H219 7839   0.687   5.969   4.182 -0.7572  0.0272  1.3207
   11MOL   H220 7840   0.656   5.833   4.068  0.6506  0.4471 -0.6371
   11MOL   H221 7841   0.422   5.824   4.152  0.4368  2.6552 -0.9796
   11MOL   H222 7842   0.533   5.784   4.281 -0.3990  0.9560  0.4869
   11MOL   H223 7843   0.499   6.004   4.389  0.0846 -0.1095 -0.8114
   11MOL   H224 7844   0.321   5.808   4.420 -0.7770 -0.7701  1.2529
   11MOL   H225 7845   0.217   5.912   4.318 -2.0283  1.5752  1.7345
   11MOL   H226 7846   0.262   5.904   4.747 -0.1284 -0.1740  2.7048
   11MOL   H227 7847   0.150   5.886   4.957 -1.0672 -0.9333 -0.2930
   11MOL   H228 7848   7.904   6.207   4.864 -0.2402  0.1982  0.6048
   11MOL   H229 7849   8.030   6.227   4.640  1.3621  0.8364  0.2022
   11MOL   C230 7850   8.017   6.447   5.295 -0.0429  0.0687 -0.6270
   11MOL   C231 7851   7.995   6.297   5.248 -0.5763  0.7085  0.5944
   11MOL   C232 7852   7.843   6.262   5.249 -0.8026  0.6617  0.3061
   11MOL   C233 7853   7.803   6.122   5.198  0.3655  0.0304  0.4938
   11MOL   C234 7854   7.797   6.289   5.388  0.3935 -0.2256 -0.5951
   11MOL   C235 7855   7.804   6.435   5.423  0.8767  0.1594 -0.2054
   11MOL   C236 7856   7.956   6.475   5.435  0.0308 -0.3039 -0.2711
   11MOL   C237 7857   7.980   6.618   5.484 -0.7443  0.1837  0.7044
   11MOL   O238 7858   7.920   6.697   5.385 -0.2241  0.2248  0.1080
   11MOL   C239 7859   7.945   6.830   5.390 -0.4201  0.4075 -0.7936
   11MOL   O240 7860   8.015   6.884   5.479 -0.6761  0.1646 -0.1294
   11MOL   C241 7861   7.874   6.904   5.297  0.4839 -0.3866 -0.5741
   11MOL   C242 7862   7.814   6.833   5.188  0.4138 -0.3388 -0.4648
   11MOL   C243 7863   7.749   6.908   5.089  0.5197  0.1202  0.7006
   11MOL   C244 7864   7.751   7.049   5.083 -0.1569  0.6703 -0.1312
   11MOL   C245 7865   7.695   7.120   4.962  0.0597  0.3965 -0.0120
   11MOL   O246 7866   7.678   7.240   4.949  0.2723  0.0925  0.4539
   11MOL   O247 7867   7.666   7.031   4.863  0.1078  0.1380  0.0554
   11MOL   C248 7868   7.812   7.118   5.187  0.1013 -1.2428 -0.1413
   11MOL   C249 7869   7.870   7.046   5.295  0.0394  0.7764 -0.6307
   11MOL   H250 7870   7.980   6.517   5.220 -0.3553  1.2416  0.6022
   11MOL   H251 7871   0.090   6.474   5.303  0.3859 -1.7611  0.1112
   11MOL   H252 7872   0.021   6.237   5.318  0.2977  0.9870  0.1187
   11MOL   H253 7873   0.002   6.282   5.147 -2.2330  0.9270 -0.0958
   11MOL   H254 7874   7.799   6.338   5.183 -0.2810  0.5748 -0.1439
   11MOL   H255 7875   7.694   6.114   5.203  0.3991  0.0111  1.3616
   11MOL   H256 7876   7.845   6.054   5.272 -1.8673 -0.8351  1.0035
   11MOL   H257 7877   7.846   6.226   5.462 -1.3491 -0.0729  0.6941
   11MOL   H258 7878   7.689   6.275   5.392  0.4329 -0.6106 -0.7667
   11MOL   H259 7879   7.765   6.495   5.340  1.0742 -1.8788 -1.8098
   11MOL   H260 7880   7.748   6.446   5.516 -1.0877  2.1076 -1.5842
   11MOL   H261 7881   8.008   6.406   5.502  0.6649 -0.7176 -1.1748
   11MOL   H262 7882   0.053   6.643   5.476 -0.5014 -0.5877  1.4179
   11MOL   H263 7883   7.956   6.652   5.584 -1.1110  1.5769  0.1662
   11MOL   H264 7884   7.820   6.726   5.181 -2.0006 -0.4587 -1.1039
   11MOL   H265 7885   7.684   6.858   5.019 -1.3132  0.8370  1.8578
   11MOL   H266 7886   7.825   7.225   5.182  0.2293 -1.1896  1.1099
   11MOL   H267 7887   7.916   7.102   5.376  0.3327 -1.4027  0.7378
   11MOL   C268 7888   7.690   7.047   4.366 -0.2927  0.3745  0.4843
   11MOL   C269 7889   7.606   7.078   4.491 -0.3033  0.5149  0.2910
   11MOL   C270 7890   7.685   7.054   4.624  0.5149  0.5794  0.0192
   11MOL   C271 7891   7.604   7.077   4.747  0.6528 -0.2938  0.5448
   11MOL   C272 7892   7.738   6.906   4.618  0.2565 -0.4214  0.0125
   11MOL   C273 7893   7.828   6.893   4.496 -0.3123 -0.1467  0.5366
   11MOL   C274 7894   7.753   6.906   4.362  0.2421  0.8791  0.7146
   11MOL   C275 7895   7.857   6.899   4.244 -0.0112  0.0952  0.4056
   11MOL   O276 7896   7.778   6.910   4.123  0.4943 -0.0036 -0.0577
   11MOL   C277 7897   7.755   6.798   4.042 -0.9740 -0.1705 -0.2250
   11MOL   O278 7898   7.807   6.686   4.064  0.0691  0.2070  0.6863
   11MOL   C279 7899   7.655   6.824   3.934 -0.7174  0.0434 -0.5573
   11MOL   C280 7900   7.643   6.728   3.827  0.4023  0.3867  0.1163
   11MOL   C281 7901   7.549   6.740   3.724  0.4124 -0.2833  0.3948
   11MOL   C282 7902   7.471   6.857   3.723 -0.3229  0.2349  0.1236
   11MOL   C283 7903   7.364   6.877   3.619 -0.5672  0.0100 -0.0704
   11MOL   O284 7904   7.346   6.795   3.530  0.0755  0.1445 -0.2139
   11MOL   O285 7905   7.290   6.992   3.627 -0.4822  0.5581  0.3865
   11MOL   C286 7906   7.482   6.948   3.829  0.3013  0.1380 -0.0590
   11MOL   C287 7907   7.570   6.934   3.934 -0.1675  0.9627 -0.0487
   11MOL   H288 7908   7.775   7.114   4.375  0.9569 -1.1387  0.0906
   11MOL   H289 7909   7.642   7.097   4.282  0.5912  3.6655  1.8856
   11MOL   H290 7910   7.521   7.009   4.493  0.4529 -0.4572 -0.6457
   11MOL   H291 7911   7.561   7.177   4.493 -0.0764  0.6693 -1.3673
   11MOL   H292 7912   7.772   7.119   4.625 -0.4764  1.9448 -0.7477
   11MOL   H293 7913   7.513   7.016   4.754 -0.9067  1.8683 -0.2691
   11MOL   H294 7914   7.586   7.184   4.759 -1.5651 -0.7938  1.9862
   11MOL   H295 7915   7.658   6.832   4.621  1.1325 -1.4151 -0.8251
   11MOL   H296 7916   7.790   6.892   4.713 -0.5155  3.3247  1.0578
   11MOL   H297 7917   7.907   6.968   4.495  0.0158 -0.4927  0.3398
   11MOL   H298 7918   7.872   6.794   4.493 -0.7451 -0.3243 -2.8921
   11MOL   H299 7919   7.680   6.826   4.357  2.0392 -0.6711 -2.0641
   11MOL   H300 7920   7.917   6.808   4.243 -0.1537  0.0111 -0.7241
   11MOL   H301 7921   7.925   6.983   4.238  0.4113 -0.3727 -1.6716
   11MOL   H302 7922   7.709   6.643   3.820 -1.7870 -1.5502  1.9728
   11MOL   H303 7923   7.538   6.659   3.653 -1.9560 -2.1412  2.8129
   11MOL   H304 7924   7.420   7.036   3.822 -0.1059 -0.1828 -0.5625
   11MOL   H305 7925   7.571   7.009   4.012  0.3535  1.0390 -0.1283
   11MOL   C306 7926   7.298   7.092   3.174 -0.0556 -0.1713  0.0956
   11MOL   C307 7927   7.287   7.022   3.312 -0.4569 -0.1315  0.4324
   11MOL   C308 7928   7.187   7.081   3.409  0.5125  0.9118 -0.1493
   11MOL   C309 7929   7.172   7.005   3.551 -0.1089  0.0589  0.0314
   11MOL   C310 7930   7.220   7.229   3.435 -0.4869 -0.1991  0.4109
   11MOL   C311 7931   7.232   7.315   3.301 -0.0360 -0.2183 -0.4549
   11MOL   C312 7932   7.323   7.239   3.204  0.0884  0.1531  0.2222
   11MOL   C313 7933   7.346   7.330   3.079 -0.6744  0.0367 -0.2319
   11MOL   O314 7934   7.220   7.375   3.029 -0.0810  0.6059  0.1983
   11MOL   C315 7935   7.196   7.383   2.900 -0.0807  0.3681 -0.3835
   11MOL   O316 7936   7.284   7.358   2.818  0.0426  0.5645 -0.1783
   11MOL   C317 7937   7.061   7.430   2.858  0.1701  1.0914  0.1456
   11MOL   C318 7938   7.026   7.459   2.725  0.6219  0.3155 -0.7493
   11MOL   C319 7939   6.904   7.510   2.682 -0.9681 -0.4326  0.2394
   11MOL   C320 7940   6.807   7.527   2.783  0.2834 -0.6022 -0.0745
   11MOL   C321 7941   6.684   7.594   2.745  0.5069  0.1011  0.3374
   11MOL   O322 7942   6.618   7.654   2.827  0.1791 -0.1190 -0.2146
   11MOL   O323 7943   6.654   7.588   2.617 -0.3213 -0.1082 -0.4085
   11MOL   C324 7944   6.835   7.504   2.917 -0.7698 -0.5457 -0.4583
   11MOL   C325 7945   6.959   7.442   2.956 -0.2925 -0.2526 -0.1403
   11MOL   H326 7946   7.206   7.075   3.117 -1.3113  1.8490  1.4302
   11MOL   H327 7947   7.383   7.043   3.127  0.7136 -0.5830  1.8907
   11MOL   H328 7948   7.392   7.014   3.340 -0.4638 -1.4283  0.1047
   11MOL   H329 7949   7.256   6.919   3.295 -0.3274 -0.1627  0.3851
   11MOL   H330 7950   7.087   7.079   3.365 -0.0685  2.8094  1.0377
   11MOL   H331 7951   7.135   6.907   3.519  1.9548 -1.6440  2.5700
   11MOL   H332 7952   7.093   7.050   3.611 -0.0284 -2.3806  2.0809
   11MOL   H333 7953   7.314   7.242   3.489  0.0775  3.0823 -1.2109
   11MOL   H334 7954   7.146   7.285   3.492  0.0075  0.5509  0.3208
   11MOL   H335 7955   7.133   7.333   3.260  0.3823  3.5098  0.0139
   11MOL   H336 7956   7.279   7.409   3.331 -1.7239 -0.2230  2.4242
   11MOL   H337 7957   7.425   7.232   3.243  0.6246  2.0730 -0.7668
   11MOL   H338 7958   7.400   7.277   3.000  1.0697  1.2284  0.1122
   11MOL   H339 7959   7.406   7.415   3.113  0.2359 -1.0254  0.8785
   11MOL   H340 7960   7.100   7.451   2.646  0.5819  1.3736 -0.9037
   11MOL   H341 7961   6.897   7.529   2.576 -2.0707  0.5133  0.4702
   11MOL   H342 7962   6.770   7.523   3.002 -0.8006 -0.1521 -0.5709
   11MOL   H343 7963   6.985   7.410   3.055 -1.3772 -1.8217 -0.3339
   11MOL   C344 7964   6.521   8.011   2.406  0.4661  0.1970  0.2083
   11MOL   C345 7965   6.478   7.870   2.449 -0.0374  0.9000 -0.3073
   11MOL   C346 7966   6.588   7.795   2.513 -0.8680 -0.4237 -0.0397
   11MOL   C347 7967   6.547   7.654   2.564  0.6853  0.3633  0.1101
   11MOL   C348 7968   6.706   7.779   2.414 -0.0708 -1.2688  0.0516
   11MOL   C349 7969   6.756   7.916   2.369 -0.9963 -0.3410 -0.1244
   11MOL   C350 7970   6.641   8.005   2.308 -0.1997  0.1410 -0.0893
   11MOL   C351 7971   6.700   0.109   2.264  0.8472  0.3199 -0.1683
   11MOL   O352 7972   6.599   0.168   2.181 -0.0608 -0.3767 -0.5629
   11MOL   C353 7973   6.617   0.183   2.052  0.2602 -0.6498  0.7699
   11MOL   O354 7974   6.705   0.123   1.992  0.2099  0.2302  0.1894
   11MOL   C355 7975   6.519   0.272   1.987 -0.0036  0.2888  0.4027
   11MOL   C356 7976   6.504   0.283   1.849 -0.1305  0.4718 -0.0736
   11MOL   C357 7977   6.404   0.358   1.790 -0.1188  0.1175  0.5060
   11MOL   C358 7978   6.315   0.433   1.872 -0.7076  0.0762  0.0774
   11MOL   C359 7979   6.197   0.499   1.812 -0.7709 -0.7163  0.8832
   11MOL   O360 7980   6.116   0.567   1.876  0.2169  0.1520  0.0121
   11MOL   O361 7981   6.192   0.490   1.679  0.3923 -0.2436  0.0514
   11MOL   C362 7982   6.336   0.432   2.012 -1.4925 -0.8195 -0.1145
   11MOL   C363 7983   6.432   0.347   2.073 -0.2375  0.6149  0.2048
   11MOL   H364 7984   6.541   0.042   2.493  2.6279 -0.4547  0.2133
   11MOL   H365 7985   6.441   0.035   2.358 -0.0035  0.1743  0.9536
   11MOL   H366 7986   6.457   7.818   2.356  0.4255 -0.5965  0.4169
   11MOL   H367 7987   6.389   7.866   2.513  0.4907  1.2245  0.4601
   11MOL   H368 7988   6.635   7.847   2.596  0.6205 -1.5702 -0.1476
   11MOL   H369 7989   6.493   7.595   2.490 -1.0666  0.3760  1.3389
   11MOL   H370 7990   6.480   7.671   2.648  0.5675 -2.0697  0.5377
   11MOL   H371 7991   6.670   7.721   2.329 -0.2934  0.2790 -0.9311
   11MOL   H372 7992   6.788   7.728   2.464  0.7068 -1.3670 -1.3060
   11MOL   H373 7993   6.798   7.971   2.454  0.3927 -1.4424 -0.0802
   11MOL   H374 7994   6.847   7.904   2.311 -0.0441 -0.4067  1.3451
   11MOL   H375 7995   6.617   7.948   2.218 -1.6563 -1.6737  1.4072
   11MOL   H376 7996   6.783   0.076   2.201  0.9614  4.5357 -2.4215
   11MOL   H377 7997   6.725   0.166   2.354 -0.6573 -3.2742  2.6448
   11MOL   H378 7998   6.571   0.216   1.797 -0.9400 -0.6849  0.3387
   11MOL   H379 7999   6.383   0.355   1.684  1.3386 -0.5516  0.2278
   11MOL   H380 8000   6.272   0.476   2.087  1.9546  1.1711  1.8242
   11MOL   H381 8001   6.447   0.344   2.180  0.0172 -2.9472  0.1229
   11MOL   C382 8002   6.049   0.703   1.251  0.1151  0.3387  0.1602
   11MOL   C383 8003   6.015   0.664   1.392  0.2170 -0.2113 -0.0336
   11MOL   C384 8004   6.133   0.605   1.468 -0.3252 -0.2866  0.7225
   11MOL   C385 8005   6.085   0.562   1.613  0.1730  0.0216 -0.0172
   11MOL   C386 8006   6.190   0.481   1.401 -0.6123  0.5067  0.2883
   11MOL   C387 8007   6.226   0.507   1.253 -0.2614  0.1162  0.3230
   11MOL   C388 8008   6.107   0.581   1.173 -0.7450  0.0661 -0.1260
   11MOL   C389 8009   6.139   0.637   1.034  0.1758 -0.2290  0.3042
   11MOL   O390 8010   6.172   0.549   0.930 -0.3315  0.4571 -0.4692
   11MOL   C391 8011   6.304   0.538   0.892  0.4473 -0.4433  0.7630
   11MOL   O392 8012   6.400   0.571   0.965 -0.2790 -0.8136 -0.2758
   11MOL   C393 8013   6.312   0.474   0.759  0.3897  0.1162  0.6027
   11MOL   C394 8014   6.433   0.412   0.723 -0.1158 -0.4969  0.5739
   11MOL   C395 8015   6.445   0.354   0.595  0.0109  0.7764  0.8176
   11MOL   C396 8016   6.347   0.366   0.496  0.5813  0.1166 -0.3109
   11MOL   C397 8017   6.377   0.314   0.359 -0.3956  0.0399  0.2604
   11MOL   O398 8018   6.470   0.238   0.321  0.8445 -0.4649  0.3544
   11MOL   O399 8019   6.293   0.370   0.268  0.5303  0.4300 -0.3277
   11MOL   C400 8020   6.223   0.424   0.539 -0.0552 -0.9151 -0.5266
   11MOL   C401 8021   6.210   0.485   0.662 -0.1350  0.6408 -0.5777
   11MOL   H402 8022   6.115   0.790   1.254  0.8528 -0.2008 -0.1138
   11MOL   H403 8023   5.963   0.741   1.197  0.8964 -0.2939 -1.5552
   11MOL   H404 8024   5.936   0.590   1.386  0.7321 -0.8326  0.8969
   11MOL   H405 8025   5.970   0.752   1.439 -0.4463  0.0481 -1.1222
   11MOL   H406 8026   6.207   0.684   1.474 -1.2803  0.8483 -1.5056
   11MOL   H407 8027   6.003   0.491   1.600 -1.6409  2.0531  0.1272
   11MOL   H408 8028   6.058   0.652   1.668 -2.8610 -0.1700 -1.1073
   11MOL   H409 8029   6.122   0.397   1.410  1.5303 -1.2312  0.7873
   11MOL   H410 8030   6.277   0.435   1.448  0.2821  1.9460  0.1085
   11MOL   H411 8031   6.315   0.569   1.247 -0.3531  0.1436 -0.7110
   11MOL   H412 8032   6.264   0.415   1.209  1.3536 -0.2511  2.3700
   11MOL   H413 8033   6.029   0.512   1.140  0.6347 -1.1553 -0.9090
   11MOL   H414 8034   6.216   0.710   1.059 -0.1598  0.5092 -0.7635
   11MOL   H415 8035   6.050   0.694   1.007  0.4171  0.6916  1.4270
   11MOL   H416 8036   6.506   0.404   0.802  1.0907  2.3410 -0.2115
   11MOL   H417 8037   6.545   0.318   0.573 -0.6714  0.0778 -1.2888
   11MOL   H418 8038   6.140   0.430   0.470  0.8071  1.2143 -1.4383
   11MOL   H419 8039   6.118   0.537   0.683 -0.5810  0.2555 -1.5854
   11MOL   C420 8040   6.230   0.680   7.984 -0.0042 -0.2252  0.2000
   11MOL   C421 8041   6.309   0.577   0.028 -0.5147  0.1702 -0.2993
   11MOL   C422 8042   6.233   0.438   0.043  0.2428 -0.1371  0.1278
   11MOL   C423 8043   6.304   0.335   0.127  0.6911  0.4305  0.1722
   11MOL   C424 8044   6.094   0.462   0.089  0.2619 -0.1248 -0.1350
   11MOL   C425 8045   6.018   0.559   0.008 -0.1249  0.4845  0.5447
   11MOL   C426 8046   6.090   0.695   0.010  0.4542  0.5906  0.3082
   11MOL   C427 8047   6.005   0.799   7.971  0.6564 -0.3177 -0.4797
   11MOL   O428 8048   5.884   0.818   0.014  0.0433 -0.4989 -0.0388
   11MOL   C429 8049   5.786   0.905   8.012  0.7341  0.7752  0.3019
   11MOL   O430 8050   5.761   0.947   7.900  0.0019 -0.2140 -0.3763
   11MOL   C431 8051   5.703   0.943   0.096 -0.2152  0.4798  0.1194
   11MOL   C432 8052   5.727   0.876   0.223 -0.1014  0.2801  0.2109
   11MOL   C433 8053   5.641   0.918   0.328 -0.4818  0.1531 -0.4488
   11MOL   C434 8054   5.544   1.020   0.314  0.3040  0.1533 -0.1370
   11MOL   C435 8055   5.471   1.051   0.430  1.2961  0.1878  0.5093
   11MOL   O436 8056   5.504   1.038   0.544  0.2371  0.6748 -0.6549
   11MOL   O437 8057   5.345   1.085   0.391 -0.2464  0.2343  0.2311
   11MOL   C438 8058   5.523   1.080   0.189  0.4392  0.3495 -0.2576
   11MOL   C439 8059   5.602   1.041   0.078  0.3406  0.1814 -0.4549
   11MOL   H440 8060   6.223   0.640   7.883 -0.6345 -1.4802  0.7287
   11MOL   H441 8061   6.280   0.777   7.977 -3.2238  1.5919  1.6142
   11MOL   H442 8062   6.348   0.615   0.122  2.1474 -2.3659 -0.3089
   11MOL   H443 8063   6.393   0.555   7.995 -0.4299 -0.2734 -0.0398
   11MOL   H444 8064   6.211   0.402   7.975  0.0580  2.0150 -0.6344
   11MOL   H445 8065   6.406   0.319   0.093  0.6202 -0.7787  0.5083
   11MOL   H446 8066   6.259   0.236   0.122  0.4351  0.4477  1.7577
   11MOL   H447 8067   6.085   0.504   0.189  2.6341 -1.5396  0.7039
   11MOL   H448 8068   6.047   0.364   0.097 -1.1800  0.5408 -0.3239
   11MOL   H449 8069   6.016   0.518   7.939  1.0485  1.5496  0.0686
   11MOL   H450 8070   5.913   0.570   0.036 -0.5946  0.3776 -1.1043
   11MOL   H451 8071   6.102   0.724   0.114 -0.5173 -0.2067  0.6420
   11MOL   H452 8072   5.971   0.772   7.872  0.7734 -1.4287 -0.2210
   11MOL   H453 8073   6.049   0.899   7.969 -0.6610  0.3669  2.0021
   11MOL   H454 8074   5.806   0.803   0.240 -2.3745 -2.1696  0.5186
   11MOL   H455 8075   5.661   0.875   0.425  0.8664 -0.1503 -0.8547
   11MOL   H456 8076   5.435   1.140   0.171 -0.2277 -0.2079  1.0839
   11MOL   H457 8077   5.570   1.083   8.015 -1.0508  0.5886  0.1786
   11MOL   C458 8078   4.979   1.315   0.284  0.5190 -0.0407 -0.0424
   11MOL   C459 8079   5.107   1.268   0.357 -0.0105 -0.4776  0.9597
   11MOL   C460 8080   5.102   1.119   0.404 -0.7270 -0.7235  0.1660
   11MOL   C461 8081   5.230   1.084   0.484  0.0883  0.3588 -0.9030
   11MOL   C462 8082   4.974   1.096   0.483  0.0502  0.3699 -0.0549
   11MOL   C463 8083   4.852   1.133   0.392 -0.1986 -0.1668 -0.3826
   11MOL   C464 8084   4.852   1.282   0.368 -0.2349  0.2332 -0.6719
   11MOL   C465 8085   4.734   1.326   0.293  0.2123  0.1250  0.1681
   11MOL   O466 8086   4.620   1.315   0.376  0.1181 -0.1645  0.4031
   11MOL   C467 8087   4.546   1.201   0.381 -0.1205 -0.1435 -0.0988
   11MOL   O468 8088   4.561   1.105   0.303  0.3477 -0.0373  0.1511
   11MOL   C469 8089   4.451   1.200   0.499 -0.2037  0.8351  0.1765
   11MOL   C470 8090   4.426   1.314   0.576 -0.0650 -0.0231  0.2399
   11MOL   C471 8091   4.330   1.303   0.681 -0.2731 -0.3255  0.5506
   11MOL   C472 8092   4.258   1.184   0.704 -0.1388 -0.1898  0.0962
   11MOL   C473 8093   4.161   1.171   0.815  0.4395  0.4174 -0.2381
   11MOL   O474 8094   4.142   1.260   0.899 -0.9076  0.1919  0.3306
   11MOL   O475 8095   4.094   1.050   0.817 -0.4092 -0.5315 -0.2201
   11MOL   C476 8096   4.289   1.071   0.623 -0.3851 -0.0615  0.1673
   11MOL   C477 8097   4.388   1.076   0.527 -0.2431  0.3392  0.2513
   11MOL   H478 8098   4.957   1.262   0.192 -3.6005  0.4097  0.5869
   11MOL   H479 8099   4.989   1.423   0.285  0.1234  0.0076  1.7648
   11MOL   H480 8100   5.127   1.335   0.440  0.5005 -0.0658  0.5033
   11MOL   H481 8101   5.195   1.290   0.297 -0.8492  0.1156 -0.0691
   11MOL   H482 8102   5.097   1.048   0.322  0.1027 -0.6384  0.0468
   11MOL   H483 8103   5.231   0.981   0.518 -2.9494  0.6985  0.3953
   11MOL   H484 8104   5.232   1.149   0.573 -0.3037  0.9481 -1.3180
   11MOL   H485 8105   4.983   1.155   0.574  0.3100 -0.0147  0.1714
   11MOL   H486 8106   4.965   0.994   0.520 -0.2150  0.3081 -0.2921
   11MOL   H487 8107   4.851   1.071   0.302 -1.1657 -1.0115  0.2009
   11MOL   H488 8108   4.764   1.098   0.446 -0.1402  1.3226  0.7026
   11MOL   H489 8109   4.848   1.344   0.458  1.3632 -0.3181 -0.1872
   11MOL   H490 8110   4.713   1.265   0.205 -0.2333  2.0462 -1.0785
   11MOL   H491 8111   4.742   1.427   0.254  1.8362 -0.4469 -1.0347
   11MOL   H492 8112   4.487   1.401   0.564  0.2050 -0.1100  0.9848
   11MOL   H493 8113   4.310   1.390   0.742  0.4616  0.0226  0.3074
   11MOL   H494 8114   4.238   0.978   0.640  2.1588 -1.2003  1.8750
   11MOL   H495 8115   4.421   0.990   0.472  1.7492 -0.0959  2.0761
   11MOL   C496 8116   4.196   0.715   1.095  0.7733 -0.3537  0.7216
   11MOL   C497 8117   4.112   0.799   1.004  0.2331  0.3472 -0.8997
   11MOL   C498 8118   4.104   0.945   1.045 -0.3505  0.3040 -0.1547
   11MOL   C499 8119   4.021   1.016   0.937 -0.2667  0.3209 -0.5674
   11MOL   C500 8120   4.054   0.955   1.186 -0.1428 -0.5429  0.5788
   11MOL   C501 8121   4.138   0.866   1.287 -1.1972 -0.3436 -0.2635
   11MOL   C502 8122   4.147   0.722   1.234  0.8169  0.4735 -0.0556
   11MOL   C503 8123   4.240   0.650   1.337 -0.1694  0.4005  0.3796
   11MOL   O504 8124   4.366   0.703   1.325  0.0133 -0.0231 -0.4842
   11MOL   C505 8125   4.470   0.673   1.413 -0.3228  0.1457  0.3118
   11MOL   O506 8126   4.446   0.606   1.512 -0.3139 -0.3060  0.7550
   11MOL   C507 8127   4.610   0.716   1.383  0.3574 -0.0576 -0.5577
   11MOL   C508 8128   4.653   0.797   1.277  0.3223  0.2052  0.3844
   11MOL   C509 8129   4.788   0.847   1.267 -0.1266 -0.1404 -0.1457
   11MOL   C510 8130   4.889   0.810   1.367 -0.0327 -0.7636  0.4753
   11MOL   C511 8131   5.030   0.854   1.345  0.5382 -0.7500 -0.2267
   11MOL   O512 8132   5.062   0.917   1.245 -0.2050  0.2217 -0.4572
   11MOL   O513 8133   5.113   0.819   1.441 -0.1792 -0.5213 -0.4745
   11MOL   C514 8134   4.845   0.735   1.478  0.0846  0.2418 -0.1696
   11MOL   C515 8135   4.713   0.682   1.478 -0.2862  0.0373  0.1082
   11MOL   H516 8136   4.300   0.745   1.092  0.4054  1.0187  1.4441
   11MOL   H517 8137   4.187   0.612   1.058 -1.0942  0.1514 -0.3054
   11MOL   H518 8138   4.009   0.763   1.007  0.3587 -0.1910 -2.2567
   11MOL   H519 8139   4.157   0.782   0.906  1.6244 -0.3879 -0.1443
   11MOL   H520 8140   4.202   0.991   1.051 -0.5705  0.5543  1.9670
   11MOL   H521 8141   3.980   1.103   0.988  1.1029  0.6863 -0.0675
   11MOL   H522 8142   3.935   0.958   0.903  0.8156 -1.2676 -0.6248
   11MOL   H523 8143   3.949   0.930   1.201 -0.3859 -0.9339 -1.6463
   11MOL   H524 8144   4.074   1.058   1.217 -0.4161 -0.3550  0.1402
   11MOL   H525 8145   4.233   0.920   1.292 -1.7468  0.7135 -0.9500
   11MOL   H526 8146   4.094   0.862   1.386 -1.9799 -0.2716 -0.6010
   11MOL   H527 8147   4.044   0.685   1.238  0.7081  0.4485 -2.3558
   11MOL   H528 8148   4.237   0.544   1.310  0.3448  0.3745  0.4077
   11MOL   H529 8149   4.207   0.656   1.440  0.3740  2.5845  0.4493
   11MOL   H530 8150   4.582   0.818   1.198  0.7617  0.7580  0.1397
   11MOL   H531 8151   4.823   0.905   1.183  0.5603 -0.2077  0.0927
   11MOL   H532 8152   4.916   0.713   1.556  0.2416  0.8960 -0.1267
   11MOL   H533 8153   4.687   0.608   1.552 -2.3643 -0.0561 -0.6664
   11MOL   C534 8154   5.399   1.183   1.587  0.4546 -0.4580  0.3791
   11MOL   C535 8155   5.395   1.038   1.545  0.4119  0.6020  0.1549
   11MOL   C536 8156   5.249   1.000   1.519  0.0620 -0.2866 -0.5104
   11MOL   C537 8157   5.248   0.860   1.464 -0.3091  0.6309  0.2738
   11MOL   C538 8158   5.167   1.018   1.645  0.7347  0.1605  0.3843
   11MOL   C539 8159   5.172   1.158   1.692  0.8214  0.3568 -0.5765
   11MOL   C540 8160   5.315   1.214   1.714  0.0357  0.0242  1.0376
   11MOL   C541 8161   5.307   1.365   1.736 -0.5637  0.0808 -0.0338
   11MOL   O542 8162   5.433   1.412   1.783 -0.3750 -0.5655  0.3073
   11MOL   C543 8163   5.443   1.542   1.834 -0.2211  0.4768 -0.8054
   11MOL   O544 8164   5.360   1.628   1.831  0.0130 -0.2862 -0.1856
   11MOL   C545 8165   5.579   1.575   1.887 -0.5525 -0.2705  0.1464
   11MOL   C546 8166   5.615   1.712   1.902 -0.5687  0.1591 -0.6741
   11MOL   C547 8167   5.745   1.747   1.957  0.2266 -0.3485 -0.1944
   11MOL   C548 8168   5.838   1.638   1.988 -0.0693  0.3972 -0.0712
   11MOL   C549 8169   5.973   1.669   2.039 -0.8386  0.0146  0.7520
   11MOL   O550 8170   6.067   1.588   2.033  0.5382  0.7152  0.0293
   11MOL   O551 8171   5.985   1.795   2.105 -0.1158  0.2060 -0.4902
   11MOL   C552 8172   5.801   1.502   1.978  1.2275  0.3618 -0.3045
   11MOL   C553 8173   5.669   1.472   1.927 -0.3434 -0.6717  1.0259
   11MOL   H554 8174   5.350   1.242   1.510 -1.4263 -2.5749 -0.1177
   11MOL   H555 8175   5.502   1.218   1.583  1.3388 -3.1183 -1.6851
   11MOL   H556 8176   5.431   0.972   1.625 -2.8784 -0.2841  0.9903
   11MOL   H557 8177   5.456   1.032   1.455  1.7693 -3.0542  1.2182
   11MOL   H558 8178   5.212   1.070   1.444  0.8592  1.1705  0.4231
   11MOL   H559 8179   5.290   0.789   1.536 -2.1870 -0.7499  0.0581
   11MOL   H560 8180   5.301   0.839   1.371 -3.6648  0.5283 -1.7060
   11MOL   H561 8181   5.211   0.954   1.722 -2.8316 -1.5910  1.0734
   11MOL   H562 8182   5.067   0.982   1.624 -0.1156  1.4984  1.9886
   11MOL   H563 8183   5.133   1.231   1.620  0.0986  0.2031 -0.3418
   11MOL   H564 8184   5.110   1.182   1.777  1.7242  2.6139 -0.5138
   11MOL   H565 8185   5.373   1.164   1.791 -1.6348 -2.3041  0.8237
   11MOL   H566 8186   5.237   1.387   1.816 -0.9918  1.1168 -0.6831
   11MOL   H567 8187   5.278   1.412   1.642 -0.9415  1.4131  0.7376
   11MOL   H568 8188   5.532   1.779   1.889 -1.2318 -0.7024 -0.9234
   11MOL   H569 8189   5.765   1.852   1.964 -1.0759 -0.2194  2.0065
   11MOL   H570 8190   5.867   1.418   1.996 -1.4198 -1.3068  1.9036
   11MOL   H571 8191   5.646   1.372   1.894  1.1609 -0.2314 -1.4616
   11MOL   C572 8192   6.265   1.956   1.810 -0.2874 -0.4011  0.0513
   11MOL   C573 8193   6.187   1.866   1.898  0.4200 -0.4909  0.3146
   11MOL   C574 8194   6.195   1.913   2.045 -0.0211  0.2051  0.2030
   11MOL   C575 8195   6.115   1.834   2.154  0.6700 -0.0064  0.0695
   11MOL   C576 8196   6.337   1.942   2.092 -0.5191 -0.7410  0.1191
   11MOL   C577 8197   6.409   2.043   2.004  0.0115 -0.0690  0.4312
   11MOL   C578 8198   6.409   1.990   1.862 -0.6533 -0.0925 -0.5607
   11MOL   C579 8199   6.494   2.085   1.778 -0.2263 -0.6156  0.1034
   11MOL   O580 8200   6.501   2.019   1.651  0.0380 -0.0614 -0.0282
   11MOL   C581 8201   6.554   2.090   1.547 -0.3998  0.4151  0.2744
   11MOL   O582 8202   6.634   2.183   1.564  0.4213  0.3866  0.0094
   11MOL   C583 8203   6.512   2.032   1.419 -0.2097  0.0401 -0.1961
   11MOL   C584 8204   6.427   1.919   1.412 -0.1129 -0.5352 -0.2823
   11MOL   C585 8205   6.387   1.868   1.285 -0.4680  0.4299 -0.1985
   11MOL   C586 8206   6.427   1.933   1.166 -0.6760 -0.7791 -0.3130
   11MOL   C587 8207   6.392   1.872   1.032 -0.0444  0.3859  0.2290
   11MOL   O588 8208   6.357   1.753   1.028 -0.6001  0.3491  0.0558
   11MOL   O589 8209   6.410   1.948   0.925  0.4349 -0.0170 -0.5534
   11MOL   C590 8210   6.521   2.043   1.173  0.2322  0.2114 -0.2907
   11MOL   C591 8211   6.559   2.089   1.298 -0.6716  0.3755 -0.3171
   11MOL   H592 8212   6.216   2.053   1.807  0.8971  0.2982  2.0876
   11MOL   H593 8213   6.263   1.924   1.706  2.1752  0.2824 -0.2304
   11MOL   H594 8214   6.223   1.763   1.895  0.4959 -0.4708  0.5859
   11MOL   H595 8215   6.084   1.856   1.863  0.2679  1.5371  0.1079
   11MOL   H596 8216   6.144   2.009   2.047 -0.6031 -0.1232  1.3537
   11MOL   H597 8217   6.105   1.892   2.246  0.7463 -1.0364  0.7279
   11MOL   H598 8218   6.167   1.744   2.185 -0.0004 -0.1009  0.9319
   11MOL   H599 8219   6.397   1.852   2.100  0.1386 -0.6002 -2.7602
   11MOL   H600 8220   6.319   1.986   2.190 -0.7064 -1.1262  0.2575
   11MOL   H601 8221   6.344   2.130   2.004 -0.9252 -0.7644  1.5112
   11MOL   H602 8222   6.509   2.066   2.041  0.1400 -1.4244  0.9369
   11MOL   H603 8223   6.463   1.896   1.875  1.5436  1.1038 -0.7487
   11MOL   H604 8224   6.595   2.101   1.816 -0.0083 -0.7057 -0.4302
   11MOL   H605 8225   6.449   2.184   1.772  0.2666 -0.3583  0.6654
   11MOL   H606 8226   6.405   1.872   1.507 -0.0275  0.3978  0.2115
   11MOL   H607 8227   6.341   1.771   1.280  1.2005 -0.3934  0.2614
   11MOL   H608 8228   6.551   2.105   1.089 -0.9359 -0.2280 -1.0503
   11MOL   H609 8229   6.619   2.178   1.286 -1.7396  1.3836  1.6365
   11MOL   C610 8230   6.292   2.092   0.467  0.5480 -0.0098 -0.0302
   11MOL   C611 8231   6.284   1.988   0.581 -0.5730 -0.4679 -0.1810
   11MOL   C612 8232   6.356   2.029   0.714 -0.0155 -0.0375  0.6409
   11MOL   C613 8233   6.366   1.899   0.802 -0.3928  0.7970 -0.2329
   11MOL   C614 8234   6.496   2.099   0.685 -0.2306  0.7003  0.3300
   11MOL   C615 8235   6.495   2.202   0.568  0.3003  0.8035  0.2400
   11MOL   C616 8236   6.438   2.142   0.437 -0.1643  0.5070  0.2746
   11MOL   C617 8237   6.433   2.241   0.321 -0.0360 -0.9772  0.8334
   11MOL   O618 8238   6.383   2.174   0.207  0.0197 -0.1284 -0.1930
   11MOL   C619 8239   6.452   2.153   0.095  0.7390 -0.2099 -0.3999
   11MOL   O620 8240   6.558   2.210   0.073  0.3153  0.0529 -0.0905
   11MOL   C621 8241   6.386   2.071   8.032 -0.1971  0.6857  0.4303
   11MOL   C622 8242   6.442   2.065   7.901  0.0971  0.2986 -0.3494
   11MOL   C623 8243   6.387   1.985   7.801 -0.9989  0.0304 -0.4481
   11MOL   C624 8244   6.273   1.907   7.837 -0.5902 -0.1566 -0.0939
   11MOL   C625 8245   6.207   1.830   7.728  0.0352 -0.0848 -0.0333
   11MOL   O626 8246   6.249   1.824   7.615 -0.1421  0.1473 -0.0399
   11MOL   O627 8247   6.088   1.772   7.763  0.2154 -0.7644  0.4797
   11MOL   C628 8248   6.219   1.910   7.964  0.4083  0.1062  0.1832
   11MOL   C629 8249   6.279   1.980   0.039 -0.1733  0.1582  0.3127
   11MOL   H630 8250   6.230   2.178   0.493  0.9241  0.0171  0.7774
   11MOL   H631 8251   6.251   2.047   0.377 -0.3738  1.5344 -0.4109
   11MOL   H632 8252   6.332   1.897   0.546  0.5512  0.2558 -0.5269
   11MOL   H633 8253   6.185   1.956   0.615 -1.7692  4.0335  0.8747
   11MOL   H634 8254   6.295   2.103   0.765  0.7038  2.3228 -1.8082
   11MOL   H635 8255   6.426   1.821   0.756  1.4812  0.4889  2.6008
   11MOL   H636 8256   6.271   1.847   0.816 -0.0712 -0.7308 -3.2735
   11MOL   H637 8257   6.566   2.024   0.649  0.1155  0.1957  1.9928
   11MOL   H638 8258   6.537   2.131   0.781 -1.6547 -0.7246  1.4433
   11MOL   H639 8259   6.441   2.294   0.590 -2.9480 -0.4470 -1.9246
   11MOL   H640 8260   6.597   2.221   0.535  1.0248 -0.5346  1.6538
   11MOL   H641 8261   6.493   2.052   0.409 -0.0400  1.2740 -1.9785
   11MOL   H642 8262   6.531   2.279   0.295 -1.7227  2.6857 -0.5023
   11MOL   H643 8263   6.369   2.325   0.350  1.4174 -0.3711  2.3177
   11MOL   H644 8264   6.526   2.130   7.882  0.7424  0.4311  2.7366
   11MOL   H645 8265   6.430   1.997   7.703  0.0277  0.2387  0.0237
   11MOL   H646 8266   6.132   1.853   7.994  0.9872 -0.5681  0.6141
   11MOL   H647 8267   6.235   1.983   0.138  3.4671 -1.2574  2.0476
   11MOL   C648 8268   5.632   1.846   7.752  1.2084 -0.1655  0.8548
   11MOL   C649 8269   5.773   1.786   7.775  0.1698  0.3530 -0.3442
   11MOL   C650 8270   5.865   1.804   7.651 -0.1915 -0.2295  0.6396
   11MOL   C651 8271   5.999   1.723   7.661 -0.3013  0.4948  0.0751
   11MOL   C652 8272   5.788   1.761   7.522  0.7488 -0.1119  0.3550
   11MOL   C653 8273   5.649   1.830   7.507 -0.1901 -0.2843  0.1164
   11MOL   C654 8274   5.562   1.794   7.624  0.5180  0.3409 -0.8550
   11MOL   C655 8275   5.427   1.856   7.605 -0.3523 -0.2392  0.6744
   11MOL   O656 8276   5.329   1.802   7.696 -0.2428  0.1642  0.2060
   11MOL   C657 8277   5.238   1.714   7.653 -0.1775  0.7583 -0.3793
   11MOL   O658 8278   5.256   1.634   7.557  0.2599  0.0647  0.1110
   11MOL   C659 8279   5.110   1.706   7.738  0.1134 -0.0973  0.5582
   11MOL   C660 8280   5.083   1.823   7.821 -1.0682 -0.2032  0.4177
   11MOL   C661 8281   4.952   1.832   7.865 -0.2011 -0.3989  0.1688
   11MOL   C662 8282   4.854   1.730   7.846  0.2272 -0.4002 -0.0601
   11MOL   C663 8283   4.710   1.750   7.896  0.4593 -0.5711 -0.1118
   11MOL   O664 8284   4.623   1.666   7.887 -0.1853  0.5757 -0.2297
   11MOL   O665 8285   4.683   1.873   7.938  0.1235 -0.4429  0.1567
   11MOL   C666 8286   4.893   1.618   7.770 -0.4879 -0.5145 -0.3190
   11MOL   C667 8287   5.019   1.600   7.711  1.2164  0.0073 -0.1715
   11MOL   H668 8288   5.640   1.954   7.751 -1.4031  0.0733  1.1595
   11MOL   H669 8289   5.576   1.826   7.844  2.6952 -0.6185  1.6816
   11MOL   H670 8290   5.744   1.681   7.789 -3.7010  1.1062 -2.0900
   11MOL   H671 8291   5.822   1.833   7.861  1.3844 -1.0450 -0.2331
   11MOL   H672 8292   5.893   1.908   7.637  1.8496 -0.6696  1.2986
   11MOL   H673 8293   6.043   1.705   7.563  0.8472 -0.4052  0.7461
   11MOL   H674 8294   5.980   1.621   7.694 -0.6763  1.2494  2.2302
   11MOL   H675 8295   5.776   1.652   7.529 -1.3345  0.1582  1.3801
   11MOL   H676 8296   5.846   1.789   7.434  1.6801 -1.5914  0.4694
   11MOL   H677 8297   5.669   1.936   7.495  1.0741 -0.7369 -2.0712
   11MOL   H678 8298   5.594   1.808   7.415 -1.0332  1.8870  0.0739
   11MOL   H679 8299   5.551   1.685   7.628 -0.1448  0.3909 -1.1212
   11MOL   H680 8300   5.397   1.845   7.501 -0.3314  1.2633  0.4977
   11MOL   H681 8301   5.447   1.963   7.612 -0.4282 -0.1398 -0.5034
   11MOL   H682 8302   5.154   1.904   7.825 -1.3196  0.2182 -2.5052
   11MOL   H683 8303   4.929   1.925   7.915  1.4056  0.7926 -1.2542
   11MOL   H684 8304   4.813   1.555   7.732 -0.8826  0.9620 -1.9930
   11MOL   H685 8305   5.047   1.528   7.636  0.7441  2.4069 -2.7373
   11MOL   C686 8306   4.459   1.933   0.337 -0.4965 -0.4478  0.4089
   11MOL   C687 8307   4.452   1.952   0.183  0.4305 -0.5790  0.7054
   11MOL   C688 8308   4.578   1.898   0.114  0.6819 -0.4707 -0.5889
   11MOL   C689 8309   4.558   1.910   7.995 -0.6245 -0.3291 -0.2678
   11MOL   C690 8310   4.709   1.952   0.168  0.3716  0.4261 -0.4775
   11MOL   C691 8311   4.718   1.933   0.329 -0.0955 -0.3905 -0.3421
   11MOL   C692 8312   4.589   2.000   0.386  0.1445  0.3454 -0.5243
   11MOL   C693 8313   4.599   2.028   0.534 -0.7631  0.0655 -1.0228
   11MOL   O694 8314   4.598   1.907   0.607 -0.0633  0.4110 -0.2310
   11MOL   C695 8315   4.628   1.909   0.738 -0.4363 -0.0942  0.7642
   11MOL   O696 8316   4.663   2.012   0.793  0.1200  0.2731 -0.1058
   11MOL   C697 8317   4.597   1.788   0.821 -0.2359  0.6110  0.4380
   11MOL   C698 8318   4.586   1.795   0.962  0.3767  1.0737  0.1502
   11MOL   C699 8319   4.548   1.681   1.040 -0.2786 -0.6127 -0.0923
   11MOL   C700 8320   4.539   1.554   0.973  0.3351  0.4566  0.0717
   11MOL   C701 8321   4.519   1.426   1.044  0.1199  0.6902  0.1643
   11MOL   O702 8322   4.476   1.418   1.163 -0.5008 -0.0060 -0.1677
   11MOL   O703 8323   4.549   1.315   0.964 -0.2631 -0.5873 -1.0533
   11MOL   C704 8324   4.557   1.548   0.832 -0.6016  0.5698 -0.6806
   11MOL   C705 8325   4.582   1.662   0.760 -0.0896 -0.7201  0.9579
   11MOL   H706 8326   4.455   1.834   0.382  0.9081  0.0134  1.6078
   11MOL   H707 8327   4.378   1.988   0.385 -1.5288 -1.1370 -0.5356
   11MOL   H708 8328   4.445   2.061   0.178 -2.4839 -0.7244  1.0158
   11MOL   H709 8329   4.365   1.911   0.133  0.9779  1.7542 -2.3834
   11MOL   H710 8330   4.574   1.789   0.122  0.1101 -0.4848 -0.9974
   11MOL   H711 8331   4.539   2.012   7.961 -1.7386 -0.0912  1.0300
   11MOL   H712 8332   4.475   1.845   7.969 -1.3710 -0.0308  1.2812
   11MOL   H713 8333   4.710   2.055   0.135  2.2418 -0.3498 -3.0455
   11MOL   H714 8334   4.793   1.910   0.112 -1.8538 -3.0625 -1.4031
   11MOL   H715 8335   4.719   1.825   0.344  3.8467 -0.4352 -0.3654
   11MOL   H716 8336   4.811   1.983   0.357 -1.4115  0.6340  2.2764
   11MOL   H717 8337   4.603   2.103   0.352 -1.6457  1.4412  1.9428
   11MOL   H718 8338   4.523   2.094   0.574  0.3245  0.3151  0.6828
   11MOL   H719 8339   4.694   2.079   0.551 -0.5659 -0.3244 -0.9468
   11MOL   H720 8340   4.595   1.891   1.010 -0.6698  1.7175 -0.9347
   11MOL   H721 8341   4.525   1.692   1.145 -0.9670 -0.0340 -0.3035
   11MOL   H722 8342   4.558   1.451   0.783  2.1917  0.6179 -0.7627
   11MOL   H723 8343   4.606   1.643   0.656 -1.0850  0.7441  0.4406
   11MOL   C724 8344   4.512   0.843   0.812  0.0577 -0.1793  0.0099
   11MOL   C725 8345   4.492   0.948   0.923 -0.6227  0.6700  0.2278
   11MOL   C726 8346   4.547   1.088   0.889 -0.0873 -0.0658  0.0665
   11MOL   C727 8347   4.531   1.186   1.007  0.1784  0.2651  0.6400
   11MOL   C728 8348   4.696   1.070   0.853 -0.5878  0.5547 -0.0167
   11MOL   C729 8349   4.723   0.980   0.727 -0.1766 -0.7184 -0.5593
   11MOL   C730 8350   4.659   0.840   0.754  0.2390  0.3663 -0.5405
   11MOL   C731 8351   4.664   0.751   0.632  0.0857  0.1419  0.3873
   11MOL   O732 8352   4.801   0.716   0.601 -0.4921  0.0772 -0.3414
   11MOL   C733 8353   4.820   0.635   0.499  0.4234  0.0699 -0.2453
   11MOL   O734 8354   4.730   0.575   0.437  0.5805 -0.8127 -0.2850
   11MOL   C735 8355   4.968   0.615   0.483  0.0201 -0.6253 -0.0168
   11MOL   C736 8356   5.022   0.486   0.484 -0.3975  0.5306  0.0024
   11MOL   C737 8357   5.162   0.468   0.462  0.1922  0.6551 -1.1180
   11MOL   C738 8358   5.245   0.575   0.415 -0.6379 -0.0447 -0.2374
   11MOL   C739 8359   5.391   0.551   0.381  0.3741 -0.1006  0.6774
   11MOL   O740 8360   5.448   0.445   0.410 -0.1849  0.2790 -0.3076
   11MOL   O741 8361   5.452   0.660   0.320 -0.5027  0.7163 -0.0679
   11MOL   C742 8362   5.186   0.698   0.398 -0.5531  0.3701 -0.5516
   11MOL   C743 8363   5.051   0.719   0.431 -0.3965  0.1338 -0.0988
   11MOL   H744 8364   4.440   0.865   0.733 -1.8541 -1.2687  1.4026
   11MOL   H745 8365   4.497   0.740   0.845  0.1829 -0.4603 -0.8070
   11MOL   H746 8366   4.540   0.908   1.012  0.9208 -0.7915 -1.2337
   11MOL   H747 8367   4.385   0.963   0.939 -0.6324  1.6091 -0.6816
   11MOL   H748 8368   4.489   1.129   0.806 -2.1997 -0.1815  1.4415
   11MOL   H749 8369   4.601   1.154   1.084 -1.3365 -2.7845  0.8227
   11MOL   H750 8370   4.432   1.158   1.042  0.5583 -0.8595  0.8741
   11MOL   H751 8371   4.753   1.029   0.937  0.2483 -2.3906 -1.9429
   11MOL   H752 8372   4.747   1.163   0.828  1.2886 -0.4627 -0.0709
   11MOL   H753 8373   4.684   1.021   0.633 -4.2071 -0.1722  1.2742
   11MOL   H754 8374   4.832   0.977   0.715 -0.1642  0.7482 -0.9124
   11MOL   H755 8375   4.718   0.794   0.832  1.5441 -0.8112 -2.2013
   11MOL   H756 8376   4.625   0.806   0.547 -0.6122 -0.1669  0.5072
   11MOL   H757 8377   4.605   0.659   0.637 -0.7265  0.5872 -1.0520
   11MOL   H758 8378   4.962   0.400   0.510  1.6552 -0.6187  1.0315
   11MOL   H759 8379   5.207   0.370   0.456  0.7857  0.9300 -1.1830
   11MOL   H760 8380   5.247   0.781   0.367  0.6095 -0.6082 -0.9063
   11MOL   H761 8381   5.009   0.818   0.421  1.1533  1.0193  1.8114
   11MOL   H762 8382   5.542   0.657   0.346 -0.4415 -0.3464 -0.4119
   12MOL     C1 8383   2.611   7.627   1.551 -0.2432 -0.1245 -0.5945
   12MOL     C2 8384   2.517   7.554   1.450  0.3348 -0.0911  0.2970
   12MOL     C3 8385   2.594   7.528   1.321 -0.1778 -0.0777  0.2651
   12MOL     C4 8386   2.504   7.458   1.220  0.0150 -0.0180 -0.2569
   12MOL     C5 8387   2.655   7.651   1.261 -0.0670  0.4573 -0.2675
   12MOL     C6 8388   2.734   7.732   1.362 -0.3225  0.1492  0.2220
   12MOL     C7 8389   2.673   7.756   1.496  1.1451  0.7422 -0.0101
   12MOL     C8 8390   2.777   7.814   1.595  0.2180  0.0014  0.1451
   12MOL     O9 8391   2.731   7.808   1.726 -0.5967 -0.5185  0.3076
   12MOL    C10 8392   2.816   7.812   1.833 -0.5507 -0.1997  0.1616
   12MOL    O11 8393   2.934   7.851   1.819 -0.2897  0.3242 -0.1079
   12MOL    C12 8394   2.754   7.773   1.964 -0.0870 -0.0521  0.3260
   12MOL    C13 8395   2.815   7.812   2.087 -1.2927  0.1793 -0.6303
   12MOL    C14 8396   2.762   7.777   2.212 -0.4045 -0.2795 -0.2483
   12MOL    C15 8397   2.637   7.712   2.212  0.6752 -0.7182 -0.4037
   12MOL    C16 8398   2.569   7.686   2.341 -0.3500 -0.1158 -0.8646
   12MOL    O17 8399   2.453   7.653   2.351  0.3651 -0.1430 -0.4905
   12MOL    O18 8400   2.658   7.682   2.436 -0.8906  0.0129  0.3641
   12MOL    C19 8401   2.572   7.677   2.090  0.6798 -0.9226  0.5374
   12MOL    C20 8402   2.625   7.711   1.966  0.4676 -0.7263  0.6531
   12MOL    H21 8403   2.691   7.559   1.580  1.4604  1.7673 -0.7911
   12MOL    H22 8404   2.544   7.645   1.635 -0.3002  0.7012 -0.8152
   12MOL    H23 8405   2.432   7.621   1.443  1.6289  1.6835  1.1043
   12MOL    H24 8406   2.477   7.460   1.490  1.8750 -1.2133 -0.7050
   12MOL    H25 8407   2.670   7.454   1.349 -1.3703 -1.3515  0.2009
   12MOL    H26 8408   2.427   7.531   1.197  0.6642  0.5045 -0.8356
   12MOL    H27 8409   2.472   7.360   1.255 -0.5257 -0.1217 -1.0251
   12MOL    H28 8410   2.570   7.711   1.228 -1.6388 -1.2493  0.5348
   12MOL    H29 8411   2.704   7.637   1.165 -1.2692 -0.8223 -0.7188
   12MOL    H30 8412   2.825   7.673   1.363 -0.0082  0.6385  1.1377
   12MOL    H31 8413   2.765   7.821   1.307 -0.4812  0.1168  0.0805
   12MOL    H32 8414   2.598   7.833   1.480  1.3626  0.8556 -0.4843
   12MOL    H33 8415   2.799   7.920   1.581 -1.2110  0.4411  1.0853
   12MOL    H34 8416   2.869   7.756   1.596  1.0123  1.2571  0.8286
   12MOL    H35 8417   2.898   7.878   2.069 -1.2827  0.5456  0.6794
   12MOL    H36 8418   2.811   7.801   2.305 -0.9896  0.9218 -0.2490
   12MOL    H37 8419   2.471   7.640   2.091 -0.0871  0.6598 -3.8870
   12MOL    H38 8420   2.571   7.697   1.874 -0.5601  1.0053  0.9702
   12MOL    H39 8421   2.554   7.436   1.125 -1.0271  1.7780 -1.2453
   12MOL    C40 8422   2.869   7.834   2.796  0.8420 -0.4914 -0.3288
   12MOL    C41 8423   2.763   7.813   2.689  0.1565  0.1828  0.1205
   12MOL    C42 8424   2.720   7.664   2.673  0.9856  0.0044 -0.0398
   12MOL    C43 8425   2.612   7.640   2.566 -0.2940  0.2498 -0.0512
   12MOL    C44 8426   2.844   7.578   2.646 -0.5642  0.2544 -0.3348
   12MOL    C45 8427   2.944   7.598   2.762 -0.5609 -0.1682 -0.2947
   12MOL    C46 8428   2.996   7.743   2.781  0.6034 -0.0964 -0.1221
   12MOL    C47 8429   3.095   7.743   2.901 -0.3701  0.4623 -0.0168
   12MOL    O48 8430   3.199   7.647   2.894 -0.6803 -0.3932 -0.7863
   12MOL    C49 8431   3.334   7.687   2.880 -0.5740 -0.2843 -0.5850
   12MOL    O50 8432   3.368   7.806   2.870  0.5326  0.2690  0.3126
   12MOL    C51 8433   3.432   7.580   2.880 -0.6734  0.0353 -0.2574
   12MOL    C52 8434   3.396   7.454   2.842  0.3932  0.3724 -0.6315
   12MOL    C53 8435   3.488   7.351   2.841 -0.0245 -0.0052  0.7733
   12MOL    C54 8436   3.622   7.377   2.881  0.2297 -0.0268 -0.1461
   12MOL    C55 8437   3.716   7.260   2.901  0.1673 -0.6690 -0.6656
   12MOL    O56 8438   3.837   7.266   2.873  0.3260  0.3002  0.4047
   12MOL    O57 8439   3.652   7.153   2.951 -0.1629 -0.5691  0.2010
   12MOL    C58 8440   3.660   7.505   2.936 -0.2985 -0.4519  0.0498
   12MOL    C59 8441   3.568   7.607   2.919 -0.4166  0.0619  0.3423
   12MOL    H60 8442   2.823   7.831   2.895  0.9003 -0.5853 -0.3038
   12MOL    H61 8443   2.905   7.936   2.798  2.7954 -1.1874  1.3784
   12MOL    H62 8444   2.812   7.837   2.594 -0.6816 -3.6337 -1.3832
   12MOL    H63 8445   2.683   7.882   2.713 -0.6495 -0.3320 -1.0309
   12MOL    H64 8446   2.676   7.636   2.769 -0.6604  0.8318 -0.5400
   12MOL    H65 8447   2.530   7.699   2.604 -1.0976 -0.2498 -0.9750
   12MOL    H66 8448   2.580   7.535   2.567 -0.4293  0.3013  1.1660
   12MOL    H67 8449   2.878   7.616   2.550 -1.0867  0.5481 -0.4089
   12MOL    H68 8450   2.814   7.475   2.627  0.9019  0.1832 -2.3174
   12MOL    H69 8451   2.901   7.581   2.861 -0.7672 -1.2528 -0.5635
   12MOL    H70 8452   3.031   7.535   2.744 -0.1829 -0.3334  1.8974
   12MOL    H71 8453   3.047   7.779   2.692 -0.9249  0.1339 -0.9223
   12MOL    H72 8454   3.033   7.728   2.989  0.2032 -2.3363 -0.0659
   12MOL    H73 8455   3.124   7.847   2.916  0.3879  0.4822 -1.5179
   12MOL    H74 8456   3.294   7.433   2.814  0.3038  1.1611 -0.8980
   12MOL    H75 8457   3.467   7.254   2.800  2.9036  0.4957 -2.1917
   12MOL    H76 8458   3.756   7.523   2.982 -0.6061  1.4493 -0.0291
   12MOL    H77 8459   3.600   7.708   2.942 -1.0236  0.4738 -0.6271
   12MOL    C78 8460   3.883   7.110   3.328  0.3590  0.1865  0.4249
   12MOL    C79 8461   3.869   7.110   3.178 -0.2444  0.0158 -0.1990
   12MOL    C80 8462   3.756   7.016   3.134 -0.2330 -0.6767  1.0056
   12MOL    C81 8463   3.722   7.033   2.985  0.2728 -0.1164  0.5743
   12MOL    C82 8464   3.777   6.871   3.174 -0.4985  0.5752 -0.4754
   12MOL    C83 8465   3.801   6.876   3.325 -1.0066 -0.0393 -0.3447
   12MOL    C84 8466   3.911   6.968   3.376 -0.8550 -0.3740  0.2608
   12MOL    C85 8467   3.926   6.973   3.534 -0.1341 -0.6752  0.0519
   12MOL    O86 8468   3.826   7.055   3.599 -0.4741 -0.1395  0.2966
   12MOL    C87 8469   3.736   7.008   3.683  0.0021  0.3366  0.1076
   12MOL    O88 8470   3.706   6.888   3.700  0.0450 -0.4875  0.0034
   12MOL    C89 8471   3.676   7.114   3.768 -0.1712  0.7708  0.6541
   12MOL    C90 8472   3.686   7.250   3.730 -0.1354 -0.1997 -1.0349
   12MOL    C91 8473   3.628   7.352   3.813 -0.2912 -0.3093 -0.5364
   12MOL    C92 8474   3.564   7.316   3.935  0.3051 -0.0404  0.9040
   12MOL    C93 8475   3.517   7.413   4.035  0.1067  0.1154 -0.0861
   12MOL    O94 8476   3.491   7.529   4.007 -0.3745  0.0406  0.1142
   12MOL    O95 8477   3.512   7.363   4.156  0.4220  0.0394  0.0303
   12MOL    C96 8478   3.553   7.179   3.966  0.3657  0.0713  0.0160
   12MOL    C97 8479   3.607   7.081   3.885 -0.7976  0.7569  0.4964
   12MOL    H98 8480   3.790   7.140   3.378 -1.2243 -1.8292 -1.1906
   12MOL    H99 8481   3.953   7.192   3.345  0.8919 -0.3597  0.8583
   12MOL   H100 8482   3.964   7.088   3.131 -0.3626  1.0178 -0.9281
   12MOL   H101 8483   3.831   7.206   3.142  0.7660  0.5625  0.1619
   12MOL   H102 8484   3.671   7.053   3.192  0.9678  1.8020  1.2712
   12MOL   H103 8485   3.666   6.951   2.941  0.6422  0.4042 -0.8999
   12MOL   H104 8486   3.821   7.016   2.941 -0.0894  1.7263 -1.0113
   12MOL   H105 8487   3.861   6.836   3.115 -1.4681 -0.1515 -1.4299
   12MOL   H106 8488   3.684   6.817   3.155 -0.6562  0.9624 -0.8271
   12MOL   H107 8489   3.712   6.877   3.389  1.0954 -1.8988  2.7033
   12MOL   H108 8490   3.824   6.770   3.338  1.3788  0.4244 -0.6205
   12MOL   H109 8491   4.003   6.934   3.328 -0.3985  0.6018  0.4197
   12MOL   H110 8492   4.015   7.029   3.564 -0.8199  1.4111 -1.7106
   12MOL   H111 8493   3.938   6.876   3.583  0.4604 -0.6744 -0.0839
   12MOL   H112 8494   3.739   7.283   3.641 -0.3129  0.2084 -0.9917
   12MOL   H113 8495   3.627   7.456   3.782 -0.3384 -0.1185  0.0997
   12MOL   H114 8496   3.508   7.156   4.061  1.1178  1.4947  0.7368
   12MOL   H115 8497   3.598   6.980   3.921  0.0666  0.9360  1.2331
   12MOL   C116 8498   3.390   7.145   4.493 -0.3263 -0.1357  0.0136
   12MOL   C117 8499   3.378   7.230   4.368  0.3315  0.3896  0.1987
   12MOL   C118 8500   3.460   7.356   4.391 -0.6336  0.3246  0.0695
   12MOL   C119 8501   3.457   7.441   4.263  0.8571  0.0570 -0.1438
   12MOL   C120 8502   3.418   7.430   4.514  0.4872 -0.2365  0.1204
   12MOL   C121 8503   3.423   7.347   4.639  0.2981 -0.0618 -0.0400
   12MOL   C122 8504   3.342   7.213   4.624  0.1489  0.3330  0.6124
   12MOL   C123 8505   3.378   7.132   4.754 -0.5937 -0.3617  0.4048
   12MOL   O124 8506   3.304   7.010   4.770 -0.2704 -0.1259  0.3146
   12MOL   C125 8507   3.293   6.944   4.890 -0.4088 -0.0787  0.3718
   12MOL   O126 8508   3.374   6.975   4.980 -0.3343  0.3663 -0.6437
   12MOL   C127 8509   3.174   6.850   4.900 -0.6503  0.9018  0.6240
   12MOL   C128 8510   3.155   6.782   5.022 -0.8318 -0.8215 -0.7102
   12MOL   C129 8511   3.047   6.689   5.042 -0.4399 -0.0764  0.2465
   12MOL   C130 8512   2.963   6.657   4.932  0.0794  0.7836 -0.5479
   12MOL   C131 8513   2.853   6.557   4.943 -1.2197  0.0717 -0.6084
   12MOL   O132 8514   2.820   6.497   5.050 -0.4705 -0.3796 -0.1941
   12MOL   O133 8515   2.797   6.536   4.819  0.1456 -0.2953 -0.0194
   12MOL   C134 8516   2.984   6.736   4.814  1.1149  0.2688  0.3597
   12MOL   C135 8517   3.085   6.831   4.798 -0.0688  0.4794 -0.3099
   12MOL   H136 8518   3.493   7.109   4.496 -0.1997  0.2976  1.6682
   12MOL   H137 8519   3.338   7.049   4.486  0.9421 -0.6328 -3.3288
   12MOL   H138 8520   3.273   7.238   4.339  0.7787 -1.0885 -1.9858
   12MOL   H139 8521   3.431   7.176   4.290  0.3914 -0.8014  1.0443
   12MOL   H140 8522   3.565   7.332   4.412 -1.2438 -1.3544  1.3436
   12MOL   H141 8523   3.517   7.531   4.273 -2.1395  2.0020  0.7662
   12MOL   H142 8524   3.353   7.471   4.255  0.1302 -1.6361  2.4164
   12MOL   H143 8525   3.312   7.456   4.513  0.0432 -1.9629 -0.9039
   12MOL   H144 8526   3.483   7.518   4.513 -0.7522  0.6909 -1.6840
   12MOL   H145 8527   3.529   7.324   4.653 -0.0818 -2.6468 -1.0472
   12MOL   H146 8528   3.399   7.411   4.723 -0.7675 -0.8400  0.2613
   12MOL   H147 8529   3.235   7.235   4.620 -0.0222 -0.7523 -1.4406
   12MOL   H148 8530   3.361   7.193   4.843 -0.3307 -0.4699  0.5303
   12MOL   H149 8531   3.485   7.110   4.757 -0.0693  2.0819  1.3850
   12MOL   H150 8532   3.218   6.807   5.107 -0.0583 -0.6213 -1.3394
   12MOL   H151 8533   3.022   6.650   5.140  1.9328  1.6171  1.5778
   12MOL   H152 8534   2.923   6.708   4.730 -0.7120  1.5498  1.2255
   12MOL   H153 8535   3.105   6.884   4.706  1.0709 -1.0880 -0.9792
   12MOL   C154 8536   2.536   6.620   4.467  0.0527 -0.1695  0.0298
   12MOL   C155 8537   2.601   6.619   4.609 -0.3477 -0.1984 -1.1776
   12MOL   C156 8538   2.609   6.478   4.667  0.0647  0.0930  0.2662
   12MOL   C157 8539   2.669   6.473   4.810 -0.1464  0.2332  0.1724
   12MOL   C158 8540   2.476   6.404   4.656 -0.2050  0.1356  0.0300
   12MOL   C159 8541   2.421   6.405   4.516 -0.2913 -0.5240  0.4088
   12MOL   C160 8542   2.407   6.547   4.457 -0.1375  0.4848  0.6985
   12MOL   C161 8543   2.374   6.547   4.300  0.4228 -0.7970 -0.2545
   12MOL   O162 8544   2.240   6.511   4.274 -0.0328  0.4345  0.9211
   12MOL   C163 8545   2.183   6.521   4.150  0.2620 -0.3670  0.4342
   12MOL   O164 8546   2.241   6.573   4.056  0.0865 -0.0563  0.3947
   12MOL   C165 8547   2.042   6.480   4.148  0.1789  0.0376  0.4508
   12MOL   C166 8548   1.966   6.485   4.269  0.0083 -0.1545  1.0237
   12MOL   C167 8549   1.840   6.431   4.279 -0.0646  0.2584  0.1567
   12MOL   C168 8550   1.784   6.369   4.166 -0.1980  0.0102  0.2363
   12MOL   C169 8551   1.641   6.313   4.173 -0.1173 -0.6082 -0.2895
   12MOL   O170 8552   1.562   6.331   4.264 -0.1653 -0.3061 -0.1370
   12MOL   O171 8553   1.612   6.243   4.068  0.6686 -0.0637  0.4243
   12MOL   C172 8554   1.854   6.371   4.043 -0.1855  0.2931 -0.9465
   12MOL   C173 8555   1.984   6.424   4.033  0.5111 -0.1002  0.0746
   12MOL   H174 8556   2.605   6.572   4.398 -0.3579 -0.3420 -0.2584
   12MOL   H175 8557   2.533   6.725   4.438  2.6205  0.6117  2.3853
   12MOL   H176 8558   2.538   6.684   4.670 -1.5615 -1.3946 -1.1302
   12MOL   H177 8559   2.702   6.658   4.609 -1.6099  3.2188 -1.2822
   12MOL   H178 8560   2.665   6.407   4.606 -0.5488  0.4610 -0.7452
   12MOL   H179 8561   2.672   6.369   4.844  0.3503 -0.2373 -1.2845
   12MOL   H180 8562   2.608   6.534   4.876 -0.0483  1.6794 -1.0730
   12MOL   H181 8563   2.392   6.441   4.716  0.2961 -1.6020  1.8349
   12MOL   H182 8564   2.496   6.301   4.684 -1.5837 -0.2506 -0.3482
   12MOL   H183 8565   2.489   6.351   4.450 -0.8960 -0.1548 -0.5124
   12MOL   H184 8566   2.325   6.353   4.508 -0.6054  0.0974  0.1457
   12MOL   H185 8567   2.337   6.603   4.520 -2.7602 -3.0185  1.0883
   12MOL   H186 8568   2.444   6.478   4.251  1.3459  1.4914 -2.2436
   12MOL   H187 8569   2.387   6.648   4.261 -1.5919 -0.0864  0.8279
   12MOL   H188 8570   2.013   6.527   4.356  2.6180 -1.1794  0.1818
   12MOL   H189 8571   1.789   6.426   4.374 -0.2551  2.4690  0.1803
   12MOL   H190 8572   1.815   6.321   3.956  0.8122  0.9597 -1.7942
   12MOL   H191 8573   2.039   6.410   3.941 -0.2161 -0.8175 -0.2574
   12MOL   C192 8574   1.159   6.269   3.872  0.0396 -1.0184  0.7521
   12MOL   C193 8575   1.252   6.181   3.948  0.5581 -0.8844  0.6421
   12MOL   C194 8576   1.378   6.260   3.989  0.5158 -0.2683  0.6607
   12MOL   C195 8577   1.483   6.175   4.061  0.0757 -0.8091  0.1998
   12MOL   C196 8578   1.443   6.321   3.863 -0.3593  0.1187 -0.7277
   12MOL   C197 8579   1.347   6.411   3.789 -0.9534  0.1630 -1.0640
   12MOL   C198 8580   1.222   6.332   3.742 -0.0174  0.3547 -0.1471
   12MOL   C199 8581   1.122   6.410   3.662 -0.4112  0.1067 -0.4525
   12MOL   O200 8582   1.186   6.463   3.547 -0.1869  0.3432  0.4874
   12MOL   C201 8583   1.113   6.502   3.448  0.3448  0.0686  0.2335
   12MOL   O202 8584   0.993   6.528   3.455  0.9260 -0.1377 -0.0069
   12MOL   C203 8585   1.189   6.516   3.323  0.1330  0.7186  0.1319
   12MOL   C204 8586   1.327   6.496   3.308 -0.6255 -0.2572 -0.1592
   12MOL   C205 8587   1.394   6.536   3.192 -0.4096 -0.1481 -0.0295
   12MOL   C206 8588   1.319   6.579   3.082 -0.0684 -0.9902 -0.4824
   12MOL   C207 8589   1.381   6.626   2.955  1.1095  0.4995  0.0660
   12MOL   O208 8590   1.317   6.641   2.854 -0.0958 -0.4738  0.0488
   12MOL   O209 8591   1.513   6.652   2.974  0.3974  0.0079 -0.2546
   12MOL   C210 8592   1.179   6.577   3.086 -0.0698  0.5687 -0.0364
   12MOL   C211 8593   1.116   6.542   3.203 -0.1576 -0.2800  0.1073
   12MOL   H212 8594   1.132   6.352   3.936 -0.8866 -0.0926 -0.7953
   12MOL   H213 8595   1.064   6.221   3.846 -0.5639  1.1930 -1.3441
   12MOL   H214 8596   1.291   6.112   3.873 -3.0518 -0.5304 -1.7081
   12MOL   H215 8597   1.201   6.138   4.035 -1.3204  0.6200  0.3234
   12MOL   H216 8598   1.339   6.340   4.052 -1.9947 -2.8750  2.5645
   12MOL   H217 8599   1.489   6.074   4.021  2.0230 -1.2024  1.4061
   12MOL   H218 8600   1.445   6.148   4.160  0.7753 -3.7696 -0.2900
   12MOL   H219 8601   1.494   6.246   3.803 -0.9102 -2.1181  1.4952
   12MOL   H220 8602   1.519   6.390   3.901 -0.4139  1.1768 -2.4910
   12MOL   H221 8603   1.327   6.503   3.846  1.1903  1.1132 -1.7907
   12MOL   H222 8604   1.397   6.474   3.715  2.9359 -1.1129  0.3482
   12MOL   H223 8605   1.255   6.256   3.672  1.4310  0.9102 -0.0742
   12MOL   H224 8606   1.088   6.495   3.719  2.5606  1.2297 -0.2858
   12MOL   H225 8607   1.029   6.356   3.645 -0.6663 -0.5739  2.8725
   12MOL   H226 8608   1.392   6.472   3.391  2.1229  0.5906 -1.9717
   12MOL   H227 8609   1.501   6.527   3.180 -0.7714 -3.5348 -1.3141
   12MOL   H228 8610   1.119   6.611   3.003  0.9880  1.6452 -0.3793
   12MOL   H229 8611   1.009   6.554   3.211 -0.1098 -1.9162  4.7127
   12MOL   C230 8612   1.732   6.335   2.761  0.0650 -0.3154  0.8006
   12MOL   C231 8613   1.634   6.455   2.788 -0.9000 -0.2309 -0.2769
   12MOL   C232 8614   1.697   6.573   2.851  0.8163  0.2977  0.0002
   12MOL   C233 8615   1.601   6.691   2.876 -0.8730 -0.0256 -0.0650
   12MOL   C234 8616   1.779   6.535   2.978 -0.0488 -0.3663 -0.1100
   12MOL   C235 8617   1.894   6.446   2.939 -0.9417  0.0490 -0.0410
   12MOL   C236 8618   1.820   6.310   2.884 -0.3728 -0.4063 -0.5652
   12MOL   C237 8619   1.912   6.198   2.866 -0.1584 -1.3705  0.4757
   12MOL   O238 8620   1.956   6.161   2.993 -0.4302 -0.2444  0.0335
   12MOL   C239 8621   2.028   6.053   3.014  1.2023  0.5492  0.6670
   12MOL   O240 8622   2.066   5.979   2.919 -0.0120  0.2449 -0.2333
   12MOL   C241 8623   2.037   6.018   3.160  0.2869 -0.1801  0.2315
   12MOL   C242 8624   1.988   6.100   3.262 -0.2679 -0.8706 -0.0991
   12MOL   C243 8625   2.014   6.056   3.395  0.1553  0.8308 -0.0276
   12MOL   C244 8626   2.088   5.940   3.423 -0.4680 -0.1454 -0.4407
   12MOL   C245 8627   2.130   5.908   3.559 -0.3479  0.7964  0.1229
   12MOL   O246 8628   2.226   5.828   3.580 -0.1869  0.0845  0.0969
   12MOL   O247 8629   2.058   5.963   3.656 -0.6657 -0.6683 -0.1357
   12MOL   C248 8630   2.132   5.853   3.320  0.4776 -0.0848  0.0806
   12MOL   C249 8631   2.108   5.895   3.187  0.3807  0.6314  0.8793
   12MOL   H250 8632   1.791   6.356   2.672 -0.8351 -0.7059  0.1022
   12MOL   H251 8633   1.671   6.246   2.745 -2.6987  1.4399  1.0768
   12MOL   H252 8634   1.559   6.412   2.854 -1.3849  0.2393 -0.5186
   12MOL   H253 8635   1.585   6.473   2.693  1.5450  1.2661 -1.2997
   12MOL   H254 8636   1.775   6.602   2.781  2.7608 -2.9208  0.7218
   12MOL   H255 8637   1.542   6.724   2.790 -0.5648 -0.0781 -0.2962
   12MOL   H256 8638   1.671   6.772   2.893 -0.0031 -1.2905  2.5676
   12MOL   H257 8639   1.717   6.488   3.055  2.4999  0.3781  2.5018
   12MOL   H258 8640   1.815   6.630   3.019 -0.5424 -0.1434 -0.1879
   12MOL   H259 8641   1.966   6.479   2.865 -0.5317  1.6035  1.0157
   12MOL   H260 8642   1.954   6.423   3.027 -0.4562 -0.3708 -0.4811
   12MOL   H261 8643   1.744   6.276   2.955 -1.9166 -1.7452 -2.8071
   12MOL   H262 8644   2.000   6.223   2.805 -0.0142 -2.1548  0.3497
   12MOL   H263 8645   1.860   6.114   2.819  0.8245 -1.3934 -0.6113
   12MOL   H264 8646   1.942   6.195   3.242  0.9201 -0.1942  0.3700
   12MOL   H265 8647   1.966   6.111   3.475 -1.6498 -1.0816  0.2644
   12MOL   H266 8648   2.186   5.761   3.337  1.4321  0.6236  1.0183
   12MOL   H267 8649   2.141   5.822   3.113 -0.2356  0.5198  0.7102
   12MOL   C268 8650   1.777   5.949   4.014  0.5412  0.1493  0.1034
   12MOL   C269 8651   1.877   6.002   3.910 -0.0840  0.5275 -0.4329
   12MOL   C270 8652   1.993   5.904   3.888 -0.3058 -0.0973  0.0607
   12MOL   C271 8653   2.103   5.949   3.793 -0.0618  0.2281  0.1066
   12MOL   C272 8654   2.051   5.883   4.028  0.2749 -0.1221  0.0837
   12MOL   C273 8655   1.948   5.820   4.125 -0.1161  0.3643  0.1570
   12MOL   C274 8656   1.837   5.918   4.147 -0.4420 -0.8595 -0.2692
   12MOL   C275 8657   1.740   5.882   4.263 -0.1466  0.1295 -0.2201
   12MOL   O276 8658   1.816   5.855   4.382  0.3506  0.4735 -0.1677
   12MOL   C277 8659   1.746   5.825   4.494  0.4105  0.2792  0.4066
   12MOL   O278 8660   1.625   5.810   4.488 -0.0928  0.1701 -0.1621
   12MOL   C279 8661   1.829   5.821   4.621 -0.2776 -0.0837  0.4046
   12MOL   C280 8662   1.971   5.839   4.620  0.2335  0.7651  0.0975
   12MOL   C281 8663   2.047   5.841   4.739 -0.2163  0.2521 -0.5340
   12MOL   C282 8664   1.986   5.852   4.862 -0.8618  0.7167 -0.0122
   12MOL   C283 8665   2.064   5.862   4.984  0.1547  0.1568 -0.2125
   12MOL   O284 8666   2.019   5.833   5.094 -0.2025  0.4405  0.0041
   12MOL   O285 8667   2.189   5.902   4.963  0.4150  0.4896  0.4159
   12MOL   C286 8668   1.846   5.838   4.863  0.7084  0.0511 -0.7057
   12MOL   C287 8669   1.769   5.816   4.747 -0.1539 -0.2852 -0.1505
   12MOL   H288 8670   1.719   5.864   3.978  0.5452 -0.3621  1.3004
   12MOL   H289 8671   1.710   6.030   4.043  1.7270  0.2987  2.5143
   12MOL   H290 8672   1.910   6.101   3.943  0.7429 -0.4225  1.6997
   12MOL   H291 8673   1.824   6.006   3.815 -0.9315  2.1242  0.0765
   12MOL   H292 8674   1.959   5.810   3.845  0.4956 -1.0156  1.4035
   12MOL   H293 8675   2.195   5.890   3.796 -1.0690 -1.4194 -0.8477
   12MOL   H294 8676   2.141   6.045   3.828  1.1631 -0.9981  2.2685
   12MOL   H295 8677   2.096   5.976   4.065  0.5624 -0.4428  0.5445
   12MOL   H296 8678   2.137   5.816   4.027 -0.2328 -0.7550 -1.4041
   12MOL   H297 8679   1.907   5.731   4.075  1.5678 -1.7898  2.4992
   12MOL   H298 8680   1.998   5.791   4.217 -0.2259  0.5895  0.2850
   12MOL   H299 8681   1.884   6.010   4.181 -1.8276 -0.3393  0.2643
   12MOL   H300 8682   1.674   5.800   4.234 -0.2163  0.4768 -1.0848
   12MOL   H301 8683   1.683   5.971   4.292 -1.1977 -0.4763 -0.4067
   12MOL   H302 8684   2.023   5.851   4.526  1.4827 -1.4231  0.4789
   12MOL   H303 8685   2.154   5.855   4.732  0.1809 -1.7562  1.2878
   12MOL   H304 8686   1.802   5.837   4.961  1.5144  0.8556 -0.3338
   12MOL   H305 8687   1.662   5.801   4.744 -0.2784  0.3170  1.0516
   12MOL   C306 8688   2.678   5.868   5.052  0.2635  0.2014 -0.3648
   12MOL   C307 8689   2.541   5.879   5.124 -0.8348  0.1620 -0.0242
   12MOL   C308 8690   2.429   5.902   5.014 -0.2061  0.1063  0.1804
   12MOL   C309 8691   2.284   5.906   5.072 -0.1347 -0.2498 -0.4697
   12MOL   C310 8692   2.459   6.023   4.918 -0.0417  0.4452 -0.3076
   12MOL   C311 8693   2.598   6.010   4.859  0.1232  0.3345  0.2525
   12MOL   C312 8694   2.709   6.003   4.965  0.7749  0.5915 -0.0366
   12MOL   C313 8695   2.844   6.009   4.889  0.2687  1.0346  0.9742
   12MOL   O314 8696   2.940   6.033   4.991  0.1385 -0.4683  0.3181
   12MOL   C315 8697   3.054   5.944   5.019 -0.0930  0.1480 -1.0259
   12MOL   O316 8698   3.099   5.872   4.930 -0.1514  0.4798 -0.3475
   12MOL   C317 8699   3.112   5.971   5.152  0.0298 -0.5282  0.1702
   12MOL   C318 8700   3.248   5.940   5.181 -1.2527  0.3953 -1.2557
   12MOL   C319 8701   3.302   5.932   5.311 -0.3585 -0.0237 -0.1825
   12MOL   C320 8702   3.233   5.992   5.415 -0.0077 -0.6532  0.1654
   12MOL   C321 8703   3.293   6.004   5.555 -0.7987  0.0371 -0.4232
   12MOL   O322 8704   3.416   5.999   5.576  0.7830 -0.0950  0.1088
   12MOL   O323 8705   3.199   6.022   5.648 -0.5806  0.2057  0.2308
   12MOL   C324 8706   3.100   6.034   5.394 -0.1695 -0.0394  0.0997
   12MOL   C325 8707   3.039   6.016   5.266  0.0092 -0.5446 -0.2666
   12MOL   H326 8708   2.674   5.783   4.985 -2.0179 -0.2331  0.3087
   12MOL   H327 8709   2.762   5.851   5.120  0.3122 -0.8254 -0.6863
   12MOL   H328 8710   2.552   5.959   5.197  4.8414 -0.9713  0.6412
   12MOL   H329 8711   2.523   5.783   5.172  1.8921 -0.8379 -0.9071
   12MOL   H330 8712   2.437   5.808   4.959  1.6165 -0.6504  1.6495
   12MOL   H331 8713   2.274   5.992   5.139 -1.8982 -1.8415  1.3692
   12MOL   H332 8714   2.271   5.814   5.129  0.8507 -0.8607 -1.2309
   12MOL   H333 8715   2.458   6.118   4.971 -1.8840 -0.4358  1.3432
   12MOL   H334 8716   2.383   6.031   4.841 -2.0361 -1.3751  1.3976
   12MOL   H335 8717   2.602   5.920   4.798  1.3263  1.5499 -1.5091
   12MOL   H336 8718   2.609   6.093   4.789  3.0618  0.3735  0.6776
   12MOL   H337 8719   2.703   6.085   5.037  0.3772 -0.0257  0.6409
   12MOL   H338 8720   2.851   6.099   4.828 -0.2400 -0.4647 -1.3517
   12MOL   H339 8721   2.878   5.919   4.840 -1.5323  2.0110 -2.1669
   12MOL   H340 8722   3.297   5.912   5.090 -0.7849 -1.6004 -0.4271
   12MOL   H341 8723   3.407   5.908   5.324 -0.1097 -1.0221 -3.6442
   12MOL   H342 8724   3.050   6.091   5.471  0.8933 -0.9000  1.4635
   12MOL   H343 8725   2.939   6.057   5.262  0.2989  0.4841  2.0686
   12MOL   C344 8726   3.062   6.400   5.787 -0.5498 -0.1098  0.1162
   12MOL   C345 8727   3.085   6.251   5.750 -1.0222 -0.0450  0.5203
   12MOL   C346 8728   3.220   6.194   5.805  0.2277  0.0334  0.3257
   12MOL   C347 8729   3.241   6.049   5.777  0.3928  0.2594  0.1686
   12MOL   C348 8730   3.343   6.280   5.770  0.1586 -0.0499 -0.1828
   12MOL   C349 8731   3.318   6.431   5.801  0.6496 -0.4516 -0.5075
   12MOL   C350 8732   3.188   6.490   5.749  0.0811 -0.4241 -0.0121
   12MOL   C351 8733   3.164   6.642   5.797  0.3007  0.4176  0.3921
   12MOL   O352 8734   3.276   6.715   5.750  0.1762  0.1877  0.2174
   12MOL   C353 8735   3.281   6.845   5.786 -1.2120 -0.4523 -0.1019
   12MOL   O354 8736   3.195   6.911   5.838  0.3895 -0.1725 -0.4213
   12MOL   C355 8737   3.408   6.910   5.744 -0.1310 -0.0228  0.4924
   12MOL   C356 8738   3.427   7.050   5.764 -0.0393 -1.2488  0.2102
   12MOL   C357 8739   3.548   7.114   5.722 -0.0723  0.8327 -0.0037
   12MOL   C358 8740   3.654   7.041   5.669  0.0533  0.2467  0.1561
   12MOL   C359 8741   3.781   7.106   5.624  0.3502 -0.2130 -0.6604
   12MOL   O360 8742   3.896   7.061   5.633 -0.3188  0.1399 -0.3010
   12MOL   O361 8743   3.746   7.232   5.592  0.5405  0.3121  0.3264
   12MOL   C362 8744   3.642   6.898   5.670 -0.0534 -1.0910 -0.3112
   12MOL   C363 8745   3.522   6.834   5.707  0.0268  0.1471  0.8586
   12MOL   H364 8746   3.034   6.412   5.892 -0.2803 -1.8729  0.3968
   12MOL   H365 8747   2.971   6.428   5.735 -0.6003 -0.7989 -0.1698
   12MOL   H366 8748   3.097   6.241   5.642 -0.9238  0.4453  0.4845
   12MOL   H367 8749   3.009   6.181   5.784 -0.4017 -0.5781  0.8236
   12MOL   H368 8750   3.226   6.201   5.913  1.1657  0.2781  0.2624
   12MOL   H369 8751   3.177   5.984   5.837 -0.8156 -1.8984 -3.2948
   12MOL   H370 8752   3.343   6.016   5.797 -0.1409 -0.4931  1.7917
   12MOL   H371 8753   3.356   6.266   5.663 -0.5216 -2.7865  0.0726
   12MOL   H372 8754   3.435   6.245   5.816 -0.7617 -1.2079  0.7903
   12MOL   H373 8755   3.302   6.449   5.907 -0.1987  0.4389 -0.7811
   12MOL   H374 8756   3.400   6.493   5.762  0.3000  0.1409 -0.3013
   12MOL   H375 8757   3.202   6.481   5.641  1.1789  1.2445 -0.0346
   12MOL   H376 8758   3.160   6.636   5.906  1.9490 -1.6688  0.3683
   12MOL   H377 8759   3.068   6.675   5.757 -0.3395 -2.7294 -0.7943
   12MOL   H378 8760   3.354   7.101   5.825  0.6106  1.0225 -0.8523
   12MOL   H379 8761   3.555   7.222   5.730  2.9724  1.0406 -3.9533
   12MOL   H380 8762   3.719   6.831   5.635 -0.5111 -2.1888  0.7647
   12MOL   H381 8763   3.510   6.727   5.710  1.4707 -0.0098  1.8282
   12MOL   C382 8764   3.925   7.499   5.922  0.2811 -0.3732 -0.1186
   12MOL   C383 8765   3.899   7.381   5.824 -0.5026  0.0517  0.2910
   12MOL   C384 8766   3.864   7.437   5.678  0.1986 -0.4458 -0.0161
   12MOL   C385 8767   3.851   7.324   5.572 -0.0746 -0.6498 -0.1413
   12MOL   C386 8768   3.735   7.524   5.690 -0.5634 -0.2396  0.3827
   12MOL   C387 8769   3.758   7.640   5.785  0.0345 -1.2158 -0.0525
   12MOL   C388 8770   3.802   7.590   5.925  0.1729  0.8409 -0.2168
   12MOL   C389 8771   3.821   7.710   6.013  0.0541 -0.3203 -0.0819
   12MOL   O390 8772   3.834   7.668   6.149  0.2984 -0.2525 -0.0609
   12MOL   C391 8773   3.945   7.689   6.218 -0.5552 -0.1834  1.1588
   12MOL   O392 8774   4.038   7.759   6.170 -0.3008  0.0198 -0.4355
   12MOL   C393 8775   3.961   7.621   6.348  0.4198 -0.0353 -1.0399
   12MOL   C394 8776   3.858   7.535   6.396 -0.6012  0.2387  0.1696
   12MOL   C395 8777   3.881   7.471   6.517  0.5096  0.2762  0.2509
   12MOL   C396 8778   3.992   7.494   6.597  0.1867 -0.0746 -0.1114
   12MOL   C397 8779   4.016   7.423   6.730 -0.3083 -0.5110  0.2324
   12MOL   O398 8780   3.928   7.362   6.790 -0.5486  0.6952 -0.8687
   12MOL   O399 8781   4.137   7.445   6.774 -0.6917 -0.1491  0.0539
   12MOL   C400 8782   4.099   7.575   6.544  0.9608  0.4798 -0.9272
   12MOL   C401 8783   4.075   7.642   6.424 -0.3724 -0.5375 -0.1636
   12MOL   H402 8784   4.009   7.558   5.885  0.8896 -0.9129  0.4091
   12MOL   H403 8785   3.940   7.451   6.018  0.3104  0.8626  0.5141
   12MOL   H404 8786   3.824   7.312   5.862  0.4979 -0.4988  1.2898
   12MOL   H405 8787   3.979   7.308   5.827 -1.1164 -0.6444 -0.1872
   12MOL   H406 8788   3.945   7.505   5.650 -0.4655  0.1476 -0.5212
   12MOL   H407 8789   3.946   7.273   5.561  0.0103 -0.3596 -0.7866
   12MOL   H408 8790   3.843   7.366   5.471  1.9727 -0.0711 -0.0910
   12MOL   H409 8791   3.654   7.462   5.729 -2.0405  1.2727 -0.2341
   12MOL   H410 8792   3.706   7.569   5.595 -1.4531  0.1233  0.8198
   12MOL   H411 8793   3.817   7.720   5.741 -2.8412  1.3345  0.5706
   12MOL   H412 8794   3.662   7.690   5.798  0.9691  0.4435  0.5901
   12MOL   H413 8795   3.713   7.538   5.962  0.0349  1.5104  0.4108
   12MOL   H414 8796   3.727   7.763   6.006  0.5424  0.4436 -1.0457
   12MOL   H415 8797   3.907   7.771   5.985 -0.4868  0.8029  0.7156
   12MOL   H416 8798   3.766   7.516   6.344 -0.5397  1.1412 -0.2734
   12MOL   H417 8799   3.808   7.398   6.548  1.9298 -1.2650 -0.0041
   12MOL   H418 8800   4.192   7.601   6.594  1.6924 -1.9739 -0.9520
   12MOL   H419 8801   4.149   7.711   6.388 -0.8129  0.1959  0.3123
   12MOL   C420 8802   4.539   7.273   7.010  0.2141 -0.1885  0.1143
   12MOL   C421 8803   4.388   7.323   7.028 -0.1593  0.1206  0.3017
   12MOL   C422 8804   4.334   7.352   6.888  0.2407 -0.0140 -0.2766
   12MOL   C423 8805   4.181   7.384   6.896 -0.4076  0.5862  0.7912
   12MOL   C424 8806   4.410   7.463   6.821 -0.5118 -0.2659 -0.9149
   12MOL   C425 8807   4.562   7.427   6.810  0.3722 -0.2289 -0.1269
   12MOL   C426 8808   4.623   7.390   6.944 -0.3988 -0.2350  0.5754
   12MOL   C427 8809   4.767   7.359   6.932 -0.0508  0.4924 -0.6779
   12MOL   O428 8810   4.792   7.266   6.834  0.0959  0.4600  0.3870
   12MOL   C429 8811   4.859   7.146   6.854  0.1961 -0.2609 -0.4613
   12MOL   O430 8812   4.902   7.120   6.964 -0.2695 -0.3416  0.4693
   12MOL   C431 8813   4.879   7.049   6.735  0.2013 -0.1123 -0.0378
   12MOL   C432 8814   4.956   6.928   6.748 -0.2960  0.0534  0.0946
   12MOL   C433 8815   4.983   6.857   6.628  0.8636 -0.2074  0.9293
   12MOL   C434 8816   4.922   6.882   6.506  0.1907  0.1130  0.1379
   12MOL   C435 8817   4.938   6.782   6.394 -0.2140  0.1986  0.5542
   12MOL   O436 8818   4.985   6.666   6.406 -0.2161 -0.4440  0.0989
   12MOL   O437 8819   4.912   6.832   6.280  0.3876 -0.3465  0.0278
   12MOL   C438 8820   4.834   6.993   6.500  0.2209  0.5723 -0.3159
   12MOL   C439 8821   4.821   7.076   6.611  0.5065 -0.1882 -0.3398
   12MOL   H440 8822   4.547   7.181   6.952 -2.1791 -0.5420  0.2836
   12MOL   H441 8823   4.571   7.252   7.112  1.7514  1.6007  0.0119
   12MOL   H442 8824   4.376   7.413   7.088 -0.9606 -0.1783  0.5950
   12MOL   H443 8825   4.338   7.240   7.077  0.8438 -1.2311 -0.9041
   12MOL   H444 8826   4.331   7.267   6.819  0.3880 -0.1675 -0.0955
   12MOL   H445 8827   4.153   7.453   6.976 -4.0051  1.5286 -1.1483
   12MOL   H446 8828   4.130   7.289   6.910  0.4019 -0.0431 -0.4659
   12MOL   H447 8829   4.391   7.559   6.869 -1.5491  0.1092 -2.0422
   12MOL   H448 8830   4.382   7.482   6.717  0.5863 -0.7629 -1.3115
   12MOL   H449 8831   4.563   7.344   6.739 -0.1168 -0.6276  0.3273
   12MOL   H450 8832   4.626   7.507   6.773 -0.2056  1.2028  1.9122
   12MOL   H451 8833   4.602   7.476   7.008 -4.0499 -0.0992 -0.6446
   12MOL   H452 8834   4.793   7.323   7.031 -1.2135  0.2751 -0.4547
   12MOL   H453 8835   4.812   7.457   6.916 -1.1015  0.6005 -3.1457
   12MOL   H454 8836   5.014   6.908   6.837  1.7264  0.3875 -1.1110
   12MOL   H455 8837   5.058   6.780   6.637  1.0591 -0.0383  0.7450
   12MOL   H456 8838   4.761   7.002   6.422 -2.6863  1.1946  2.3789
   12MOL   H457 8839   4.754   7.161   6.603  0.5170 -0.2260 -0.8042
   12MOL   C458 8840   4.641   6.884   5.933  0.5469 -0.2057 -0.2959
   12MOL   C459 8841   4.712   6.835   6.056  0.2358  0.5658 -0.4145
   12MOL   C460 8842   4.867   6.830   6.033 -0.1740 -0.2997  0.8586
   12MOL   C461 8843   4.937   6.762   6.159  0.0001 -0.9232  0.6382
   12MOL   C462 8844   4.900   6.746   5.906 -0.1094 -0.4850  0.1288
   12MOL   C463 8845   4.825   6.796   5.782  0.0888 -0.4525  0.3013
   12MOL   C464 8846   4.679   6.813   5.805  0.2435 -0.2725  0.3592
   12MOL   C465 8847   4.626   6.873   5.672 -0.3862 -0.0092  0.1361
   12MOL   O466 8848   4.642   7.015   5.679 -0.3615  0.1727  0.2046
   12MOL   C467 8849   4.639   7.097   5.570 -0.8124  0.6467  0.2506
   12MOL   O468 8850   4.630   7.047   5.453  0.1701 -0.3218  0.8271
   12MOL   C469 8851   4.642   7.244   5.600  0.3025 -0.0374 -0.5607
   12MOL   C470 8852   4.618   7.331   5.492  0.0761 -0.8221  0.1093
   12MOL   C471 8853   4.602   7.467   5.521  0.2890 -0.3724 -0.1415
   12MOL   C472 8854   4.626   7.524   5.649  0.3962 -0.1258  0.0286
   12MOL   C473 8855   4.595   7.663   5.675 -0.3205  0.5117  1.0320
   12MOL   O474 8856   4.634   7.724   5.776 -0.2384  0.2229 -0.5381
   12MOL   O475 8857   4.525   7.719   5.585 -0.1223  0.5519 -0.5262
   12MOL   C476 8858   4.650   7.432   5.753 -0.4694  0.1032 -0.5806
   12MOL   C477 8859   4.661   7.295   5.735  0.5007  0.3302 -0.0491
   12MOL   H478 8860   4.667   6.988   5.913  0.1399 -0.0912 -0.2271
   12MOL   H479 8861   4.534   6.882   5.954  0.7763 -1.0388  0.8163
   12MOL   H480 8862   4.686   6.735   6.089  0.9194  0.5371  0.0461
   12MOL   H481 8863   4.681   6.903   6.135 -0.2797 -1.4197  1.1434
   12MOL   H482 8864   4.899   6.934   6.028 -0.6354 -0.2594 -2.6947
   12MOL   H483 8865   5.043   6.787   6.151 -0.6092  1.0417 -2.4967
   12MOL   H484 8866   4.900   6.660   6.163  2.2231 -1.6976  2.8107
   12MOL   H485 8867   4.872   6.641   5.918 -2.1137  0.2886  2.7947
   12MOL   H486 8868   5.006   6.748   5.884 -0.3636  0.0290 -1.0963
   12MOL   H487 8869   4.861   6.893   5.749  1.0906 -0.7929  0.3645
   12MOL   H488 8870   4.852   6.727   5.702 -0.0351  0.4585 -0.5337
   12MOL   H489 8871   4.641   6.713   5.827 -0.2421 -0.0597  0.4952
   12MOL   H490 8872   4.521   6.854   5.651  0.0598 -2.2723 -0.1334
   12MOL   H491 8873   4.679   6.822   5.592 -0.9824 -1.5796  0.7326
   12MOL   H492 8874   4.605   7.302   5.389  1.3666 -2.4398  0.3752
   12MOL   H493 8875   4.566   7.531   5.442  1.6808  1.1157  0.4252
   12MOL   H494 8876   4.644   7.477   5.851 -0.3351  1.2082 -1.0692
   12MOL   H495 8877   4.688   7.231   5.818 -3.7604  1.4831  2.3138
   12MOL   C496 8878   4.293   7.917   5.272 -0.8468 -0.2904  0.5110
   12MOL   C497 8879   4.399   7.861   5.367  0.8884  0.6565 -0.2137
   12MOL   C498 8880   4.356   7.879   5.505  0.3369  0.5405 -0.4498
   12MOL   C499 8881   4.484   7.856   5.593  0.2572  0.7334  0.3470
   12MOL   C500 8882   4.301   8.018   5.539 -0.5575 -0.4134  0.0525
   12MOL   C501 8883   4.182   0.011   5.445 -0.4858 -0.4403 -0.4863
   12MOL   C502 8884   4.229   0.024   5.304  0.6052 -0.2085 -0.2575
   12MOL   C503 8885   4.119   0.068   5.195  0.2063  0.4161 -0.6736
   12MOL   O504 8886   4.105   0.209   5.195 -0.3296 -0.0223 -0.4142
   12MOL   C505 8887   3.991   0.272   5.244  0.1368 -0.4827 -0.2393
   12MOL   O506 8888   3.883   0.221   5.273 -0.1518 -0.0654 -0.3678
   12MOL   C507 8889   4.019   0.413   5.259  0.9163 -0.4359  0.4231
   12MOL   C508 8890   3.910   0.507   5.279 -0.1819  0.1359  0.0301
   12MOL   C509 8891   3.932   0.648   5.268 -0.2776 -0.3598 -0.1895
   12MOL   C510 8892   4.061   0.699   5.246  0.3531 -0.0259  0.7401
   12MOL   C511 8893   4.087   0.845   5.216 -0.0307  1.3145  0.3722
   12MOL   O512 8894   3.994   0.929   5.205 -0.6938 -0.4601 -0.3586
   12MOL   O513 8895   4.212   0.878   5.211 -0.1076  0.3797  0.1519
   12MOL   C514 8896   4.169   0.609   5.232  0.9845  0.9108  0.0274
   12MOL   C515 8897   4.144   0.472   5.242 -0.0900  0.1620 -0.1462
   12MOL   H516 8898   4.210   7.848   5.262 -0.8886 -0.0185 -1.1741
   12MOL   H517 8899   4.330   7.908   5.170  0.7536  2.9456  0.7516
   12MOL   H518 8900   4.493   7.910   5.341  1.4248 -1.7770 -3.2793
   12MOL   H519 8901   4.408   7.754   5.348 -0.5218  0.1135  1.9989
   12MOL   H520 8902   4.281   7.804   5.529  0.5050  0.4446 -0.2210
   12MOL   H521 8903   4.448   7.874   5.694  0.0143 -2.2370  0.8218
   12MOL   H522 8904   4.561   7.929   5.569  0.0101  1.5028  1.8525
   12MOL   H523 8905   4.374   0.066   5.530 -0.7945 -0.4610 -2.6169
   12MOL   H524 8906   4.267   8.020   5.642 -0.5647  0.0401  0.0433
   12MOL   H525 8907   4.108   7.964   5.457 -0.4288 -0.4254 -0.0092
   12MOL   H526 8908   4.145   0.109   5.476 -0.9862 -1.4504  2.2742
   12MOL   H527 8909   4.311   0.095   5.299 -0.0107  0.5903  0.8513
   12MOL   H528 8910   4.025   0.021   5.227  0.4579  0.5098  0.2316
   12MOL   H529 8911   4.147   0.044   5.093 -0.1638 -2.7353 -0.1148
   12MOL   H530 8912   3.809   0.470   5.284 -0.4674  0.9041 -0.0191
   12MOL   H531 8913   3.856   0.722   5.286  0.3350  0.9037 -2.5433
   12MOL   H532 8914   4.269   0.640   5.205 -0.1205  3.4254 -1.3240
   12MOL   H533 8915   4.232   0.412   5.227  2.5057  3.6068  0.8161
   12MOL   C534 8916   4.280   1.203   5.494 -0.6278  1.4212  0.0003
   12MOL   C535 8917   4.222   1.114   5.385  0.2125  0.1540  1.2600
   12MOL   C536 8918   4.318   1.101   5.270  0.2843  1.0787  0.3752
   12MOL   C537 8919   4.263   1.003   5.160 -0.0553 -0.6988 -0.3303
   12MOL   C538 8920   4.325   1.247   5.211 -0.4142 -0.1769 -0.1180
   12MOL   C539 8921   4.387   1.343   5.318  0.3236  0.6780 -0.2441
   12MOL   C540 8922   4.304   1.348   5.445  0.5162  0.5489 -0.9027
   12MOL   C541 8923   4.371   1.447   5.541 -0.3375  0.4478 -0.1536
   12MOL   O542 8924   4.508   1.413   5.562 -0.2553  0.5772 -0.7168
   12MOL   C543 8925   4.597   1.504   5.593  0.5786  0.2964 -0.5602
   12MOL   O544 8926   4.569   1.621   5.609 -0.1579 -0.3455  0.0225
   12MOL   C545 8927   4.734   1.452   5.608  0.3347  0.3578 -0.0287
   12MOL   C546 8928   4.778   1.328   5.559  0.0605 -0.0714 -0.5693
   12MOL   C547 8929   4.907   1.274   5.582 -0.7433  0.3671 -0.4903
   12MOL   C548 8930   4.996   1.349   5.654  0.0751  0.2190  1.0829
   12MOL   C549 8931   5.140   1.311   5.662  0.2281  0.0335  0.0241
   12MOL   O550 8932   5.229   1.372   5.715 -0.1846  0.4933 -0.1107
   12MOL   O551 8933   5.164   1.196   5.584  0.0149 -0.1134  0.1975
   12MOL   C552 8934   4.961   1.473   5.705  0.5037  0.0312  1.2529
   12MOL   C553 8935   4.833   1.525   5.684 -0.1144 -1.1271  0.5168
   12MOL   H554 8936   4.376   1.165   5.528 -0.1756  2.2395 -0.3653
   12MOL   H555 8937   4.224   1.198   5.587 -0.0141 -3.8018  0.2413
   12MOL   H556 8938   4.124   1.153   5.358  0.1793 -0.7624  0.0305
   12MOL   H557 8939   4.214   1.014   5.426  1.7022 -0.0715  1.0434
   12MOL   H558 8940   4.412   1.063   5.309 -0.8738 -1.5990  0.6602
   12MOL   H559 8941   4.358   0.991   5.108 -0.4023 -1.5200 -0.7778
   12MOL   H560 8942   4.197   1.040   5.081  0.3200 -1.3660 -0.9577
   12MOL   H561 8943   4.227   1.289   5.188 -0.9155 -0.8268  0.8036
   12MOL   H562 8944   4.378   1.253   5.116 -1.3642  0.4147 -0.6140
   12MOL   H563 8945   4.489   1.311   5.336  0.2269  1.2761  1.4458
   12MOL   H564 8946   4.402   1.443   5.277  0.5828  0.5684 -0.4188
   12MOL   H565 8947   4.207   1.390   5.420  0.9203  2.3672  0.4945
   12MOL   H566 8948   4.321   1.444   5.638  0.4222 -0.4186  0.2176
   12MOL   H567 8949   4.368   1.548   5.500  4.4262  1.0300  0.6232
   12MOL   H568 8950   4.709   1.273   5.496  0.1671 -2.3102  1.1955
   12MOL   H569 8951   4.933   1.179   5.538 -0.2062  1.2469 -2.1217
   12MOL   H570 8952   5.030   1.542   5.751 -2.3180  3.9915 -0.1243
   12MOL   H571 8953   4.803   1.616   5.733  2.8663 -0.6728  1.5796
   12MOL   C572 8954   5.258   0.722   5.695 -0.1195  0.5270 -0.6053
   12MOL   C573 8955   5.322   0.861   5.669  0.1633 -0.4881  0.0277
   12MOL   C574 8956   5.205   0.960   5.639 -0.4788  0.5762  0.8934
   12MOL   C575 8957   5.262   1.099   5.609  0.6334 -0.5392 -0.1152
   12MOL   C576 8958   5.124   0.909   5.520 -0.0339  0.6793  0.1362
   12MOL   C577 8959   5.061   0.776   5.552 -0.0150 -0.1259 -0.7687
   12MOL   C578 8960   5.164   0.668   5.586  0.0268 -0.2929  0.4783
   12MOL   C579 8961   5.099   0.533   5.611 -0.2054 -0.4197 -0.5640
   12MOL   O580 8962   5.077   0.473   5.487  0.3832  0.2342  1.1373
   12MOL   C581 8963   5.019   0.363   5.475  0.4916 -0.0700  1.3038
   12MOL   O582 8964   4.988   0.288   5.564  0.2275  0.3615  0.2363
   12MOL   C583 8965   4.976   0.331   5.333 -0.3794 -0.1427 -0.8574
   12MOL   C584 8966   5.011   0.423   5.234 -0.1142 -0.1747  0.0869
   12MOL   C585 8967   4.995   0.404   5.097 -0.1734 -0.8951  0.3821
   12MOL   C586 8968   4.926   0.289   5.061  0.1821 -0.4380 -0.2288
   12MOL   C587 8969   4.916   0.262   4.914  0.0984  0.2762 -0.0591
   12MOL   O588 8970   4.969   0.325   4.818  0.9281  0.1153  0.0847
   12MOL   O589 8971   4.833   0.159   4.892  0.0579 -0.3063 -0.1654
   12MOL   C590 8972   4.887   0.198   5.157  0.8637 -0.4858  0.0579
   12MOL   C591 8973   4.918   0.210   5.292  0.2658 -0.2480  0.4163
   12MOL   H592 8974   5.205   0.732   5.790  2.2468  3.3422  0.5011
   12MOL   H593 8975   5.339   0.649   5.701 -0.9154 -0.4234 -1.2806
   12MOL   H594 8976   5.399   0.851   5.592 -1.7569 -0.7131 -1.9360
   12MOL   H595 8977   5.376   0.903   5.753 -1.2429  1.0929  0.1807
   12MOL   H596 8978   5.137   0.980   5.722 -0.8140  1.5262  0.4010
   12MOL   H597 8979   5.325   1.087   5.520 -0.1762 -1.9810 -0.5083
   12MOL   H598 8980   5.334   1.125   5.688  1.0875  0.6210 -0.8889
   12MOL   H599 8981   5.191   0.883   5.438  1.2974  1.3313  1.0070
   12MOL   H600 8982   5.044   0.969   5.478 -2.4146 -2.0978  0.5168
   12MOL   H601 8983   4.991   0.788   5.634  1.8748  0.9613  0.7418
   12MOL   H602 8984   4.999   0.753   5.465 -0.2861 -0.7014 -0.4217
   12MOL   H603 8985   5.226   0.655   5.497 -0.8826  0.0476 -0.2186
   12MOL   H604 8986   5.005   0.552   5.664 -0.7305  0.1358 -1.6708
   12MOL   H605 8987   5.158   0.469   5.676 -1.5386 -1.5193 -0.4097
   12MOL   H606 8988   5.062   0.512   5.268 -1.9356  1.2338 -0.7811
   12MOL   H607 8989   5.030   0.478   5.026 -0.6903 -1.7050 -0.7407
   12MOL   H608 8990   4.814   0.125   5.127  0.4797 -0.5205  1.0510
   12MOL   H609 8991   4.891   0.144   5.373  0.1480 -0.2694  0.3604
   12MOL   C610 8992   4.771   7.772   4.867 -0.2653  0.1239 -0.2660
   12MOL   C611 8993   4.836   7.902   4.853 -0.2417  0.1191  0.3569
   12MOL   C612 8994   4.756   8.001   4.763  0.4712  0.0320  0.2943
   12MOL   C613 8995   4.820   0.107   4.760 -0.4873 -0.7777  0.0741
   12MOL   C614 8996   4.717   7.931   4.636 -0.2905 -0.1303  0.0596
   12MOL   C615 8997   4.647   7.796   4.661 -0.5085 -0.5338 -0.4167
   12MOL   C616 8998   4.737   7.701   4.740  0.1587  0.0565 -0.3341
   12MOL   C617 8999   4.668   7.568   4.772 -0.6515 -0.6951 -0.1760
   12MOL   O618 9000   4.538   7.590   4.816 -0.2029 -0.2480  0.2204
   12MOL   C619 9001   4.463   7.478   4.824 -0.3051  0.1181  0.4429
   12MOL   O620 9002   4.491   7.367   4.785 -0.3336  0.1365  0.3914
   12MOL   C621 9003   4.328   7.507   4.877  0.7245  0.1019  0.3743
   12MOL   C622 9004   4.210   7.437   4.833 -0.2723  0.0527 -0.4031
   12MOL   C623 9005   4.082   7.466   4.887 -0.0205 -0.3961  0.3568
   12MOL   C624 9006   4.066   7.586   4.954  0.3404  0.9787 -0.5002
   12MOL   C625 9007   3.937   7.632   4.995  0.1864  1.0580 -0.4913
   12MOL   O626 9008   3.843   7.552   5.000  0.0648  0.1087  0.0284
   12MOL   O627 9009   3.934   7.764   5.028 -0.2164  0.4881 -0.3554
   12MOL   C628 9010   4.179   7.664   4.987 -0.0614 -0.3283 -0.0017
   12MOL   C629 9011   4.314   7.619   4.962  0.1606  0.2200  0.5153
   12MOL   H630 9012   4.684   7.787   4.931  1.0777  0.8891  1.4049
   12MOL   H631 9013   4.834   7.705   4.925  0.8510  1.0037 -0.4376
   12MOL   H632 9014   4.931   7.884   4.801  0.5686  2.4873  0.9764
   12MOL   H633 9015   4.872   7.954   4.941 -0.0054 -1.0951  0.9924
   12MOL   H634 9016   4.666   8.011   4.825  0.5968 -1.2950  0.6983
   12MOL   H635 9017   4.768   0.181   4.700 -1.6085 -2.9029 -1.6249
   12MOL   H636 9018   4.911   0.099   4.700 -1.0876 -0.7217 -0.8478
   12MOL   H637 9019   4.797   7.914   4.565  0.7379  0.0568  1.1675
   12MOL   H638 9020   4.649   7.990   4.574 -0.8794  0.8485  1.5955
   12MOL   H639 9021   4.555   7.818   4.716 -0.5194 -0.6251 -0.3975
   12MOL   H640 9022   4.613   7.748   4.570 -0.0637 -0.2735 -0.7188
   12MOL   H641 9023   4.817   7.673   4.670 -0.6937  1.3310 -1.8578
   12MOL   H642 9024   4.715   7.520   4.857  2.4214 -1.0054 -1.9757
   12MOL   H643 9025   4.669   7.496   4.690 -0.7722  0.1136 -0.9025
   12MOL   H644 9026   4.221   7.352   4.767  0.4145  0.3172 -0.6355
   12MOL   H645 9027   3.994   7.412   4.854  0.5973 -1.8803  1.1016
   12MOL   H646 9028   4.166   7.763   5.028  1.0717 -0.5350  0.8979
   12MOL   H647 9029   4.399   7.684   4.972  0.2192  0.4682 -1.2872
   12MOL   C648 9030   3.707   0.153   5.035 -0.6557  0.3291 -0.0092
   12MOL   C649 9031   3.718   0.009   5.089 -0.1063 -0.6072 -0.3447
   12MOL   C650 9032   3.799   7.954   4.996 -0.1509 -0.1473 -0.1043
   12MOL   C651 9033   3.813   7.821   5.067 -0.8335 -0.8037  0.5233
   12MOL   C652 9034   3.736   7.948   4.856 -0.3780 -0.0166  0.1880
   12MOL   C653 9035   3.729   0.061   4.789 -0.0744  0.0034  0.5353
   12MOL   C654 9036   3.650   0.155   4.888  0.2968 -1.0663  0.2186
   12MOL   C655 9037   3.640   0.298   4.830  0.7368  0.1169  0.5998
   12MOL   O656 9038   3.776   0.358   4.831 -0.1959 -0.9160  0.3951
   12MOL   C657 9039   3.858   0.361   4.728 -0.2382  0.0750  0.1552
   12MOL   O658 9040   3.829   0.319   4.616  0.6852  0.0306 -0.2567
   12MOL   C659 9041   3.993   0.425   4.760 -0.4020 -0.4331 -0.1992
   12MOL   C660 9042   4.070   0.444   4.645 -0.5365 -0.6320  0.1020
   12MOL   C661 9043   4.189   0.509   4.659 -0.5329  0.2908  0.1526
   12MOL   C662 9044   4.233   0.565   4.782 -0.3157  0.1914  0.3897
   12MOL   C663 9045   4.359   0.640   4.792 -0.0807  0.0996  0.2329
   12MOL   O664 9046   4.397   0.690   4.895  0.1342  0.2245 -0.1912
   12MOL   O665 9047   4.417   0.659   4.670 -0.0850  0.3495 -0.2994
   12MOL   C666 9048   4.151   0.553   4.895 -0.2711  0.1710 -0.0670
   12MOL   C667 9049   4.033   0.479   4.883 -0.5595  0.1093 -0.3928
   12MOL   H668 9050   3.809   0.188   5.021  0.6019 -2.9468  0.4971
   12MOL   H669 9051   3.659   0.220   5.107  1.7862 -1.1428  3.1387
   12MOL   H670 9052   3.618   7.998   5.102 -0.3219 -0.4724 -1.5199
   12MOL   H671 9053   3.761   0.016   5.189 -0.1272 -1.1037 -0.2989
   12MOL   H672 9054   3.898   7.996   4.979 -0.2301 -0.3683 -1.1437
   12MOL   H673 9055   3.724   7.763   5.043 -1.0612 -0.8633  1.4885
   12MOL   H674 9056   3.820   7.837   5.175  0.8776 -0.2773  0.3499
   12MOL   H675 9057   3.632   7.917   4.867 -0.8007  1.2178 -0.2387
   12MOL   H676 9058   3.783   7.881   4.784  1.3625  1.7367 -0.3724
   12MOL   H677 9059   3.824   0.105   4.761  0.8607 -2.1352  0.2586
   12MOL   H678 9060   3.673   0.054   4.695 -1.0742 -0.9549  1.1966
   12MOL   H679 9061   3.553   0.106   4.879  0.8290 -2.0582 -0.2681
   12MOL   H680 9062   3.584   0.360   4.900  1.0894  0.7111  0.3568
   12MOL   H681 9063   3.590   0.294   4.734 -0.4360 -3.7467  1.3017
   12MOL   H682 9064   4.040   0.399   4.551  2.5249 -1.8012 -0.3645
   12MOL   H683 9065   4.241   0.510   4.564 -1.5023 -1.4048 -0.4305
   12MOL   H684 9066   4.184   0.592   4.990  0.4951 -0.1608 -0.1926
   12MOL   H685 9067   3.976   0.461   4.973 -0.1264  0.5544 -0.0262
   12MOL   C686 9068   4.911   0.690   4.715  0.6511  0.5057 -0.0694
   12MOL   C687 9069   4.774   0.758   4.700  0.0657  0.2591  0.3182
   12MOL   C688 9070   4.661   0.659   4.672  0.2707  0.6494 -0.1244
   12MOL   C689 9071   4.533   0.736   4.658  0.4780  0.0564  0.4666
   12MOL   C690 9072   4.704   0.582   4.544 -0.2319 -0.2005  0.0757
   12MOL   C691 9073   4.835   0.507   4.561 -0.1937  0.9786 -0.0986
   12MOL   C692 9074   4.946   0.612   4.584  0.3895  0.1036  0.3011
   12MOL   C693 9075   5.087   0.539   4.594  0.0213 -0.1952 -0.5637
   12MOL   O694 9076   5.125   0.473   4.466 -0.8153 -0.2488 -0.0776
   12MOL   C695 9077   5.255   0.421   4.454 -0.3249  0.8582 -0.0257
   12MOL   O696 9078   5.332   0.409   4.554 -0.0113 -0.0555  0.2908
   12MOL   C697 9079   5.287   0.376   4.321  0.2749  0.3892 -0.3690
   12MOL   C698 9080   5.396   0.283   4.305 -0.2141  0.2612  0.8868
   12MOL   C699 9081   5.433   0.237   4.173  0.2279 -0.7573  0.3758
   12MOL   C700 9082   5.352   0.270   4.064 -0.2643  0.4040  0.0689
   12MOL   C701 9083   5.383   0.230   3.926 -0.2756  0.6197 -0.0512
   12MOL   O702 9084   5.313   0.269   3.824  0.1474  0.1816  0.1255
   12MOL   O703 9085   5.489   0.149   3.917 -0.3338  0.1940  0.2619
   12MOL   C704 9086   5.253   0.368   4.077  0.0144  0.6944 -0.1940
   12MOL   C705 9087   5.213   0.411   4.205 -0.1656  0.7181 -0.5826
   12MOL   H706 9088   4.915   0.615   4.794  2.4156  0.2672 -0.3594
   12MOL   H707 9089   4.991   0.763   4.732 -0.1591  1.0814  1.3684
   12MOL   H708 9090   4.777   0.842   4.631 -0.5185 -0.6369 -0.8222
   12MOL   H709 9091   4.752   0.809   4.794 -0.3710  1.0292 -0.2017
   12MOL   H710 9092   4.663   0.595   4.760  0.9356 -0.8303 -1.1918
   12MOL   H711 9093   4.523   0.790   4.564  2.8642 -0.5621 -0.1713
   12MOL   H712 9094   4.527   0.814   4.734  0.5384  1.3630 -0.8504
   12MOL   H713 9095   4.715   0.658   4.467  1.3178 -0.0269  0.4534
   12MOL   H714 9096   4.623   0.522   4.501  0.0008 -1.1120  0.8886
   12MOL   H715 9097   4.815   0.431   4.637 -0.8008  1.3563  0.1310
   12MOL   H716 9098   4.863   0.455   4.470 -1.5500  1.5652 -0.8656
   12MOL   H717 9099   4.954   0.685   4.503 -0.4346 -1.3591 -1.1357
   12MOL   H718 9100   5.095   0.458   4.667  0.1930  0.8915  0.6341
   12MOL   H719 9101   5.163   0.613   4.618  0.1122 -0.3368 -0.4120
   12MOL   H720 9102   5.464   0.259   4.386  1.3361 -0.8186 -0.7037
   12MOL   H721 9103   5.522   0.178   4.155 -0.6936 -1.2186 -2.9919
   12MOL   H722 9104   5.187   0.397   3.996  0.4082  1.2086 -0.3273
   12MOL   H723 9105   5.125   0.472   4.223 -0.7921 -0.1807 -0.5283
   12MOL   C724 9106   5.821   7.902   3.680  0.6475 -0.9087  0.3220
   12MOL   C725 9107   5.677   7.961   3.669 -0.5405  0.0447 -0.0409
   12MOL   C726 9108   5.651   0.015   3.789 -0.0986  0.3259 -0.4612
   12MOL   C727 9109   5.515   0.081   3.790 -0.2322  0.1621 -0.6440
   12MOL   C728 9110   5.664   7.963   3.919 -0.2232 -0.3159  0.6347
   12MOL   C729 9111   5.801   7.895   3.918 -0.8934 -0.2596 -0.1508
   12MOL   C730 9112   5.827   7.809   3.800  0.0259 -0.2960 -0.0814
   12MOL   C731 9113   5.947   7.718   3.795  0.2281 -0.5222 -0.3674
   12MOL   O732 9114   5.943   7.642   3.916 -0.5814 -0.7711 -0.6110
   12MOL   C733 9115   6.032   7.553   3.942  0.5080 -0.4352  0.1045
   12MOL   O734 9116   6.128   7.521   3.868  0.7721 -0.1669 -0.0416
   12MOL   C735 9117   6.010   7.492   4.080  0.8280  0.1130 -0.8413
   12MOL   C736 9118   6.104   7.396   4.127 -0.1510 -0.8718  0.1776
   12MOL   C737 9119   6.080   7.340   4.256  0.2157  0.0496  0.1669
   12MOL   C738 9120   5.978   7.383   4.338 -0.7642  0.2837 -0.1814
   12MOL   C739 9121   5.957   7.322   4.472 -0.4599 -0.1446 -0.6904
   12MOL   O740 9122   6.011   7.220   4.505 -0.4305  0.1316 -0.0423
   12MOL   O741 9123   5.876   7.392   4.558 -0.0488 -0.0473  0.2857
   12MOL   C742 9124   5.885   7.469   4.291 -0.6638 -0.3139 -0.1859
   12MOL   C743 9125   5.905   7.538   4.168 -0.0657  0.7024 -0.2259
   12MOL   H744 9126   5.909   7.964   3.695  1.7857 -2.1142 -1.2553
   12MOL   H745 9127   5.832   7.847   3.587  0.7864  2.6985 -1.8821
   12MOL   H746 9128   5.599   7.887   3.652 -2.1973  1.9150 -0.7319
   12MOL   H747 9129   5.675   8.017   3.575 -1.8710  2.2369  1.2681
   12MOL   H748 9130   5.732   0.086   3.799  1.3649 -1.4225  0.4908
   12MOL   H749 9131   5.438   0.005   3.773 -0.1466  0.0792 -0.6671
   12MOL   H750 9132   5.517   0.148   3.705  1.0080  1.4007  0.3485
   12MOL   H751 9133   5.587   7.886   3.915  1.0724 -1.5918 -3.1984
   12MOL   H752 9134   5.663   8.029   4.005  0.1137 -1.2781  1.3905
   12MOL   H753 9135   5.876   7.973   3.931 -0.2039 -0.7261 -1.2114
   12MOL   H754 9136   5.825   7.845   4.011 -0.4969 -1.0202 -0.6503
   12MOL   H755 9137   5.741   7.742   3.789 -0.7570  0.7575 -0.5201
   12MOL   H756 9138   6.043   7.766   3.775  0.3625 -0.3831  0.5819
   12MOL   H757 9139   5.948   7.654   3.707 -2.9003  0.1590 -0.9816
   12MOL   H758 9140   6.187   7.357   4.071  0.5983 -1.6051  1.7773
   12MOL   H759 9141   6.132   7.252   4.292  0.5593 -0.8017 -2.3037
   12MOL   H760 9142   5.799   7.496   4.351 -0.4079 -0.9480  0.4584
   12MOL   H761 9143   5.833   7.608   4.128  0.5952  0.2233 -2.2955
   12MOL   H762 9144   5.872   7.352   4.644 -2.5293  0.2533  0.3610
   13MOL     C1 9145   6.883   1.707   2.648 -0.7175 -0.5152  0.1325
   13MOL     C2 9146   6.942   1.680   2.507 -0.0414 -0.3399 -0.0170
   13MOL     C3 9147   6.850   1.589   2.421 -0.0118  0.0696  0.1537
   13MOL     C4 9148   6.901   1.565   2.280  0.5352  0.5378 -0.2063
   13MOL     C5 9149   6.835   1.456   2.501 -0.3208  0.5838 -0.2256
   13MOL     C6 9150   6.795   1.469   2.643  0.0630 -0.1346 -0.2141
   13MOL     C7 9151   6.881   1.567   2.717  0.7104 -0.0536 -0.3213
   13MOL     C8 9152   6.836   1.577   2.863 -0.7399 -0.2033 -0.1065
   13MOL     O9 9153   6.925   1.665   2.939 -0.2285 -0.0152 -0.0465
   13MOL    C10 9154   6.952   1.634   3.061 -0.8003  0.0838  0.0729
   13MOL    O11 9155   6.895   1.547   3.128 -0.3024 -0.2685  0.6819
   13MOL    C12 9156   7.072   1.711   3.102  0.2205 -0.0572  0.0777
   13MOL    C13 9157   7.163   1.655   3.194  0.2362  0.5493 -0.0095
   13MOL    C14 9158   7.289   1.713   3.224  0.3934  0.1855  0.2170
   13MOL    C15 9159   7.328   1.829   3.147  0.7415  0.6504 -0.1515
   13MOL    C16 9160   7.460   1.886   3.158 -0.3901  0.0038 -0.0615
   13MOL    O17 9161   7.512   1.970   3.083  0.4809 -0.3200  0.5257
   13MOL    O18 9162   7.524   1.830   3.263 -0.0931 -0.1413 -0.1392
   13MOL    C19 9163   7.233   1.891   3.066 -0.0137 -0.4306 -0.3733
   13MOL    C20 9164   7.103   1.840   3.052  0.1930 -0.1791  0.1642
   13MOL    H21 9165   6.783   1.751   2.649 -0.4172  0.2083  2.9210
   13MOL    H22 9166   6.952   1.775   2.699 -1.2937  1.1284 -1.2197
   13MOL    H23 9167   7.045   1.644   2.508  0.0076 -0.2105 -0.3242
   13MOL    H24 9168   6.947   1.773   2.451  0.4736 -0.2926  0.1052
   13MOL    H25 9169   6.750   1.632   2.417  0.2666  0.6357 -1.0268
   13MOL    H26 9170   6.933   1.656   2.229  1.6869  0.9120  1.1615
   13MOL    H27 9171   6.851   1.493   2.216  1.2541  1.9750 -2.4186
   13MOL    H28 9172   6.927   1.398   2.498  0.9497  2.6103 -1.6918
   13MOL    H29 9173   6.770   1.384   2.451 -0.5152 -1.0739  2.2949
   13MOL    H30 9174   6.695   1.510   2.654 -0.4592 -1.2050 -0.8887
   13MOL    H31 9175   6.790   1.370   2.690  0.9724 -0.4603 -0.7916
   13MOL    H32 9176   6.984   1.533   2.703  0.9446  0.8333 -0.7708
   13MOL    H33 9177   6.821   1.478   2.905 -1.9307  0.6453  1.5454
   13MOL    H34 9178   6.735   1.618   2.870 -1.1517 -0.9425 -1.6610
   13MOL    H35 9179   7.140   1.556   3.230 -0.0962  0.5968 -0.0930
   13MOL    H36 9180   7.356   1.654   3.285 -2.4724 -2.9459  0.5157
   13MOL    H37 9181   7.260   1.968   2.996  0.4777  0.1791  0.4736
   13MOL    H38 9182   7.041   1.881   2.975  0.1771 -1.0942 -0.3146
   13MOL    H39 9183   6.992   1.508   2.299 -0.9617 -2.0635 -0.5932
   13MOL    C40 9184   7.749   1.661   3.607 -0.9120 -0.6989  0.3192
   13MOL    C41 9185   7.701   1.688   3.466  0.6015 -0.4472  0.4162
   13MOL    C42 9186   7.684   1.838   3.447  0.1022  0.0287 -0.4165
   13MOL    C43 9187   7.644   1.883   3.304  0.3121  0.6034  0.4088
   13MOL    C44 9188   7.594   1.905   3.555 -0.4133  0.2481 -0.4611
   13MOL    C45 9189   7.653   1.869   3.695  0.0478 -0.2048  0.5456
   13MOL    C46 9190   7.657   1.716   3.715 -0.6563 -0.2229  0.2866
   13MOL    C47 9191   7.704   1.678   3.859  0.7491  0.1050 -0.7091
   13MOL    O48 9192   7.608   1.699   3.963  0.7029  0.1690 -0.1106
   13MOL    C49 9193   7.603   1.811   4.040 -0.3325  1.3629 -0.6716
   13MOL    O50 9194   7.684   1.902   4.029 -0.5390  0.1086 -0.0935
   13MOL    C51 9195   7.490   1.815   4.136  1.0473  0.2246  1.0195
   13MOL    C52 9196   7.467   1.932   4.215 -0.4225  0.8126 -0.1164
   13MOL    C53 9197   7.353   1.936   4.303  0.3093  0.2138  0.7535
   13MOL    C54 9198   7.270   1.819   4.324 -0.3565  0.0070  0.0140
   13MOL    C55 9199   7.152   1.826   4.414  0.2811  0.3419 -0.3996
   13MOL    O56 9200   7.143   1.911   4.501 -0.5429 -0.5629  0.3670
   13MOL    O57 9201   7.050   1.751   4.371 -0.3023  0.0252 -0.5769
   13MOL    C58 9202   7.286   1.707   4.235  0.2445 -0.3603 -0.1770
   13MOL    C59 9203   7.395   1.707   4.142 -0.3534  0.0665 -0.4125
   13MOL    H60 9204   7.849   1.706   3.615 -0.8876 -0.4261 -1.4263
   13MOL    H61 9205   7.765   1.554   3.617  1.2143 -0.5475 -1.0011
   13MOL    H62 9206   7.601   1.646   3.465  0.7467 -0.8238  1.3438
   13MOL    H63 9207   7.776   1.638   3.405  1.1174 -0.4819  1.0664
   13MOL    H64 9208   7.783   1.882   3.461  0.7366 -1.8689  1.3649
   13MOL    H65 9209   7.727   1.857   3.237 -0.6958  1.0998 -1.0517
   13MOL    H66 9210   7.648   1.992   3.305 -0.9881  0.6710 -0.5142
   13MOL    H67 9211   7.493   1.867   3.544 -0.7717  0.4575  1.8669
   13MOL    H68 9212   7.587   2.011   3.528 -0.4883  0.7749  1.5733
   13MOL    H69 9213   7.754   1.911   3.699  0.7241 -1.5123 -1.9807
   13MOL    H70 9214   7.593   1.919   3.771 -0.7976  1.0435 -0.9138
   13MOL    H71 9215   7.561   1.664   3.709 -0.7717 -0.0518  0.6341
   13MOL    H72 9216   7.791   1.737   3.885  1.0053 -1.6089  2.5578
   13MOL    H73 9217   7.734   1.573   3.860 -1.8549 -0.6752 -0.8627
   13MOL    H74 9218   7.538   2.013   4.207  0.2547  0.4185  1.5553
   13MOL    H75 9219   7.335   2.035   4.343 -0.3941  0.7272 -0.8171
   13MOL    H76 9220   7.230   1.615   4.238  0.0072 -0.2215 -0.3563
   13MOL    H77 9221   7.412   1.624   4.077  0.6163 -0.8079  0.9255
   13MOL    C78 9222   6.702   1.651   4.129  0.1828  0.0958  0.0837
   13MOL    C79 9223   6.801   1.742   4.200  0.2885  0.0719  0.9302
   13MOL    C80 9224   6.813   1.701   4.350 -0.4135 -0.8897 -0.3445
   13MOL    C81 9225   6.926   1.780   4.427 -0.7029 -0.5534  0.3465
   13MOL    C82 9226   6.680   1.715   4.428  0.3793 -0.1065  0.6631
   13MOL    C83 9227   6.575   1.625   4.350  0.3528 -0.1631 -0.0866
   13MOL    C84 9228   6.565   1.670   4.204  0.4493 -0.1213  1.3050
   13MOL    C85 9229   6.452   1.606   4.123  0.3081 -0.6380  1.2664
   13MOL    O86 9230   6.453   1.467   4.121 -0.4346  0.2357 -0.7798
   13MOL    C87 9231   6.368   1.399   4.035 -0.3616 -0.2346  0.4296
   13MOL    O88 9232   6.298   1.455   3.955  0.3112 -0.2955 -0.5039
   13MOL    C89 9233   6.363   1.250   4.059 -0.6015 -0.4414 -0.5297
   13MOL    C90 9234   6.424   1.193   4.174  0.1297 -0.2714  0.5353
   13MOL    C91 9235   6.401   1.059   4.205  0.2714 -1.0671  0.7026
   13MOL    C92 9236   6.319   0.973   4.129 -0.4232 -0.2923 -0.2318
   13MOL    C93 9237   6.288   0.831   4.168 -0.4757  0.1554  0.1542
   13MOL    O94 9238   6.233   0.757   4.088 -0.2217 -0.1384 -0.5501
   13MOL    O95 9239   6.324   0.803   4.289 -0.2727 -0.1663  0.0829
   13MOL    C96 9240   6.271   1.036   4.009 -0.1460 -0.1290  0.1775
   13MOL    C97 9241   6.292   1.171   3.975 -0.1199 -0.5004 -0.6140
   13MOL    H98 9242   6.740   1.549   4.127  0.9201  0.3324  1.3290
   13MOL    H99 9243   6.693   1.675   4.023  2.1200  1.8973  0.2850
   13MOL   H100 9244   6.784   1.849   4.193  2.4554  0.3975  0.2705
   13MOL   H101 9245   6.893   1.722   4.146  1.5079  2.0343  2.2242
   13MOL   H102 9246   6.840   1.595   4.351  0.8353 -0.5934 -1.3624
   13MOL   H103 9247   6.929   1.745   4.530 -0.0277 -1.3907  0.0520
   13MOL   H104 9248   6.912   1.887   4.437  0.5062 -0.2492 -1.1193
   13MOL   H105 9249   6.647   1.818   4.434 -1.0132 -0.5095 -0.0071
   13MOL   H106 9250   6.697   1.682   4.530 -0.6743 -1.5317  0.3836
   13MOL   H107 9251   6.609   1.521   4.356 -1.6990 -1.0410 -2.4257
   13MOL   H108 9252   6.479   1.608   4.399  0.1357  1.7268  0.1807
   13MOL   H109 9253   6.541   1.776   4.205  1.9041  0.2832 -1.6944
   13MOL   H110 9254   6.460   1.632   4.017 -3.0766 -1.6571  0.7146
   13MOL   H111 9255   6.350   1.633   4.151 -0.0469 -0.1989 -0.3395
   13MOL   H112 9256   6.478   1.239   4.255  2.4441 -1.3855 -0.3230
   13MOL   H113 9257   6.442   1.015   4.295  1.6631 -0.2403  0.4825
   13MOL   H114 9258   6.219   0.970   3.941  0.8030 -2.5308  1.7166
   13MOL   H115 9259   6.244   1.211   3.887 -0.3411 -1.0273 -0.7326
   13MOL   C116 9260   5.939   0.822   4.514 -0.2687  0.3901  0.3362
   13MOL   C117 9261   6.039   0.790   4.401 -0.1983  0.4656  1.1315
   13MOL   C118 9262   6.165   0.715   4.456  0.1289 -0.4222  0.1278
   13MOL   C119 9263   6.273   0.677   4.347  0.5171  0.1626  0.9286
   13MOL   C120 9264   6.221   0.798   4.567  0.3725 -0.1641  0.0353
   13MOL   C121 9265   6.122   0.819   4.681  0.3262 -0.2174 -0.2747
   13MOL   C122 9266   6.010   0.902   4.630  0.1401 -0.5426 -0.5084
   13MOL   C123 9267   5.913   0.942   4.739  0.3738 -0.5291 -0.2485
   13MOL   O124 9268   5.806   1.019   4.679  0.3285  0.6733  0.7207
   13MOL   C125 9269   5.711   1.078   4.753 -0.0504  0.2858 -0.1301
   13MOL   O126 9270   5.717   1.076   4.877 -0.2632 -0.6216  0.0431
   13MOL   C127 9271   5.615   1.160   4.675 -0.1164  0.1857 -0.2173
   13MOL   C128 9272   5.526   1.233   4.753  0.0486  0.3237 -0.5583
   13MOL   C129 9273   5.424   1.308   4.692  0.2522  0.4280 -0.9759
   13MOL   C130 9274   5.412   1.308   4.549  0.1088  0.3307  0.4258
   13MOL   C131 9275   5.324   1.402   4.473 -0.0695  0.1130  0.0631
   13MOL   O132 9276   5.317   1.396   4.349  0.5055  0.1677  0.2975
   13MOL   O133 9277   5.261   1.495   4.554 -0.5853  0.5195 -0.3552
   13MOL   C134 9278   5.502   1.230   4.474  0.7260 -0.7038 -0.2130
   13MOL   C135 9279   5.604   1.148   4.533 -0.8746 -0.3656  0.0298
   13MOL   H136 9280   5.898   0.730   4.557  0.2775 -1.0626 -2.1305
   13MOL   H137 9281   5.856   0.872   4.465  0.1666 -0.4401 -1.2706
   13MOL   H138 9282   6.055   0.883   4.346  0.1579  0.7589  1.7276
   13MOL   H139 9283   5.987   0.719   4.337  1.0459 -0.2898  0.9572
   13MOL   H140 9284   6.132   0.617   4.492  0.6152 -0.2211  1.1360
   13MOL   H141 9285   6.232   0.605   4.277  0.5083  0.0172  1.0838
   13MOL   H142 9286   6.347   0.624   4.408  0.9196 -2.4860 -1.7632
   13MOL   H143 9287   6.269   0.889   4.531  1.3745 -1.1728 -1.2657
   13MOL   H144 9288   6.302   0.742   4.615 -1.3207 -1.3026  1.6418
   13MOL   H145 9289   6.084   0.720   4.706 -1.7412  0.1798 -1.7874
   13MOL   H146 9290   6.160   0.862   4.774 -1.8848 -2.5326  1.7549
   13MOL   H147 9291   6.048   0.995   4.588  3.0022 -2.1776 -1.6771
   13MOL   H148 9292   5.961   1.011   4.809 -1.4718 -0.9992  1.5430
   13MOL   H149 9293   5.878   0.856   4.795  0.1575  0.4248  1.1248
   13MOL   H150 9294   5.537   1.243   4.860  1.3361  1.0042 -0.7481
   13MOL   H151 9295   5.358   1.374   4.747 -0.4914  0.8872 -2.3741
   13MOL   H152 9296   5.497   1.224   4.367  0.1312 -3.2806 -0.0808
   13MOL   H153 9297   5.668   1.085   4.474  0.8697  1.4710 -0.1117
   13MOL   C154 9298   5.311   1.922   4.734  0.2194  0.3863 -0.3185
   13MOL   C155 9299   5.333   1.795   4.651  0.2148 -0.0521  0.5091
   13MOL   C156 9300   5.207   1.734   4.584 -0.1699 -0.5064 -0.3983
   13MOL   C157 9301   5.216   1.615   4.490  0.3855  0.4761  0.1680
   13MOL   C158 9302   5.090   1.717   4.683 -0.1956  0.7324  0.1689
   13MOL   C159 9303   5.065   1.854   4.751  0.0523 -0.0625  0.1548
   13MOL   C160 9304   5.187   1.902   4.835  0.2899  0.6932  0.1538
   13MOL   C161 9305   5.160   2.032   4.920 -0.7138 -0.0121  0.6615
   13MOL   O162 9306   5.163   2.153   4.838  0.2476  0.3518 -0.4835
   13MOL   C163 9307   5.271   2.240   4.844 -0.4182 -0.5191 -0.0006
   13MOL   O164 9308   5.370   2.234   4.919  0.5785  0.6189  0.6205
   13MOL   C165 9309   5.255   2.356   4.741 -0.1201  0.0570 -0.5061
   13MOL   C166 9310   5.329   2.476   4.755 -0.7192  0.3992  0.0631
   13MOL   C167 9311   5.283   2.590   4.683  0.4148  0.4077  0.3410
   13MOL   C168 9312   5.179   2.580   4.584 -0.2542  1.1474 -0.6124
   13MOL   C169 9313   5.120   2.697   4.515 -0.7390 -0.6133 -0.3794
   13MOL   O170 9314   5.067   2.694   4.405  0.2623 -0.1343  0.0400
   13MOL   O171 9315   5.131   2.802   4.591 -0.3150  0.1898  0.1774
   13MOL   C172 9316   5.122   2.452   4.557 -0.7792 -0.3555 -0.1826
   13MOL   C173 9317   5.161   2.344   4.636  0.0618 -0.4614 -0.1394
   13MOL   H174 9318   5.290   2.006   4.669 -0.6161  0.5739  0.1854
   13MOL   H175 9319   5.396   1.952   4.796  0.1432 -1.6060  0.8152
   13MOL   H176 9320   5.380   1.726   4.721  2.5652  0.9897  0.0003
   13MOL   H177 9321   5.394   1.828   4.567  1.3719  1.0129  1.7342
   13MOL   H178 9322   5.172   1.815   4.519 -1.9623 -1.8157 -1.1192
   13MOL   H179 9323   5.292   1.637   4.414 -0.6708 -1.3776 -1.4588
   13MOL   H180 9324   5.120   1.600   4.440 -1.1314  0.9763  2.8725
   13MOL   H181 9325   5.091   1.633   4.752 -0.2408 -1.2365 -2.1633
   13MOL   H182 9326   5.002   1.703   4.620 -1.7766  0.9436  2.2716
   13MOL   H183 9327   5.048   1.937   4.682 -0.3744  1.9416  2.5766
   13MOL   H184 9328   4.976   1.844   4.812 -0.8073 -0.7402 -1.1903
   13MOL   H185 9329   5.200   1.815   4.899 -0.1762  1.1867  0.9229
   13MOL   H186 9330   5.249   2.036   4.982  0.3422 -3.1481 -0.5640
   13MOL   H187 9331   5.078   2.026   4.991 -0.3751 -1.9520  0.9144
   13MOL   H188 9332   5.403   2.493   4.832 -0.5593  1.4015 -0.3186
   13MOL   H189 9333   5.327   2.686   4.704 -2.0534  1.5799  0.2197
   13MOL   H190 9334   5.052   2.447   4.474 -0.2001 -0.1929 -0.6891
   13MOL   H191 9335   5.104   2.253   4.621  0.5262 -1.3760  3.1784
   13MOL   C192 9336   5.182   3.153   4.855  0.5068 -0.3156  0.0853
   13MOL   C193 9337   5.125   3.041   4.763 -0.1109  0.3055 -0.5814
   13MOL   C194 9338   5.174   3.044   4.618  0.6398  0.2691 -0.2834
   13MOL   C195 9339   5.112   2.929   4.532  0.7408 -0.4076 -0.2170
   13MOL   C196 9340   5.159   3.191   4.568 -0.5288  0.4107  0.6705
   13MOL   C197 9341   5.215   3.297   4.656 -0.4209  0.5371  0.0973
   13MOL   C198 9342   5.151   3.294   4.796 -0.3448  0.2926 -0.1918
   13MOL   C199 9343   5.208   3.404   4.889  0.3209 -0.1594 -0.2075
   13MOL   O200 9344   5.141   3.411   5.016 -0.3980  0.6968  0.0672
   13MOL   C201 9345   5.209   3.463   5.124  0.2643  0.2494 -0.7785
   13MOL   O202 9346   5.314   3.518   5.120  0.0519 -0.3467 -0.3838
   13MOL   C203 9347   5.137   3.429   5.248  0.7433 -0.8373 -0.2420
   13MOL   C204 9348   5.004   3.380   5.253  0.0909  0.3232 -0.0689
   13MOL   C205 9349   4.944   3.354   5.376  0.1106  0.2941  0.0725
   13MOL   C206 9350   5.003   3.388   5.496 -0.0193 -0.0045 -0.0843
   13MOL   C207 9351   4.922   3.375   5.623  1.2112  0.0553  0.3216
   13MOL   O208 9352   4.801   3.353   5.627 -0.0385 -0.1334 -0.1716
   13MOL   O209 9353   5.004   3.379   5.733  0.0137  0.6339  0.2803
   13MOL   C210 9354   5.131   3.451   5.499  0.1010  0.1107  0.5211
   13MOL   C211 9355   5.196   3.464   5.372 -0.0586  0.7444  0.1965
   13MOL   H212 9356   5.290   3.151   4.866  0.5740 -2.0082 -0.7556
   13MOL   H213 9357   5.142   3.142   4.956 -1.0741  0.0582 -0.4739
   13MOL   H214 9358   5.017   3.043   4.748 -0.1709  2.3780 -0.0306
   13MOL   H215 9359   5.158   2.947   4.807  0.4654  1.1079  0.7222
   13MOL   H216 9360   5.281   3.025   4.613  0.5110 -0.8823  1.0812
   13MOL   H217 9361   5.163   2.928   4.435 -0.9189  0.5158 -1.1261
   13MOL   H218 9362   5.005   2.946   4.520  0.2445 -2.3685  1.2235
   13MOL   H219 9363   5.057   3.222   4.545 -1.0348 -2.4383 -1.2784
   13MOL   H220 9364   5.218   3.189   4.476 -0.2099  0.0188  0.8852
   13MOL   H221 9365   5.323   3.288   4.663 -0.1695  1.1226 -2.7540
   13MOL   H222 9366   5.189   3.391   4.609  1.5788  1.5994  1.0454
   13MOL   H223 9367   5.044   3.314   4.791 -0.6074 -0.9162  0.4682
   13MOL   H224 9368   5.202   3.494   4.827 -4.1897 -1.6160 -2.1255
   13MOL   H225 9369   5.316   3.400   4.893  0.3361  0.5271  0.2481
   13MOL   H226 9370   4.951   3.347   5.165  1.2625  2.3331 -1.5806
   13MOL   H227 9371   4.845   3.310   5.377  0.8566 -1.3953  1.0523
   13MOL   H228 9372   5.177   3.477   5.594 -0.6552 -0.1532  0.9583
   13MOL   H229 9373   5.298   3.500   5.377 -0.0049  0.2365  4.6115
   13MOL   C230 9374   4.978   3.769   5.923 -1.1768  0.0028 -0.4645
   13MOL   C231 9375   4.936   3.638   5.853 -0.4684 -0.5651  0.2836
   13MOL   C232 9376   4.982   3.517   5.925  0.2439 -0.1373 -0.5704
   13MOL   C233 9377   4.945   3.383   5.860  0.2220  0.2517  0.1886
   13MOL   C234 9378   5.136   3.521   5.960  0.0050 -0.1773 -0.5505
   13MOL   C235 9379   5.154   3.641   6.048  0.2910 -1.6464 -0.3803
   13MOL   C236 9380   5.128   3.774   5.968 -0.3340 -0.4115 -0.2179
   13MOL   C237 9381   5.144   3.898   6.070  0.1382 -0.7428 -0.3581
   13MOL   O238 9382   5.122   4.025   6.007 -0.7034  0.0168  0.2177
   13MOL   C239 9383   5.231   4.106   5.974  0.0865 -0.1593  0.0496
   13MOL   O240 9384   5.348   4.066   5.972  0.3694  0.5442  0.1360
   13MOL   C241 9385   5.197   4.240   5.917 -0.5415  0.5999 -0.1570
   13MOL   C242 9386   5.062   4.275   5.899  0.5851  0.0811  0.3643
   13MOL   C243 9387   5.025   4.400   5.849  1.0502  0.1566 -0.0516
   13MOL   C244 9388   5.123   4.497   5.828  0.0177  0.0348 -0.1443
   13MOL   C245 9389   5.091   4.644   5.787 -0.3154 -0.3563  0.9176
   13MOL   O246 9390   5.174   4.738   5.813  0.4874  0.8644 -0.3361
   13MOL   O247 9391   4.967   4.659   5.733 -0.1254 -0.3627  0.8113
   13MOL   C248 9392   5.258   4.467   5.860 -0.5715  0.9817 -0.4636
   13MOL   C249 9393   5.298   4.338   5.893 -0.2841  0.1118 -0.1791
   13MOL   H250 9394   4.911   3.774   6.008 -0.4931 -0.2876  0.0945
   13MOL   H251 9395   4.958   3.863   5.872  0.2145  0.4694 -0.1875
   13MOL   H252 9396   4.973   3.646   5.751  1.3653  0.2982  0.9981
   13MOL   H253 9397   4.828   3.626   5.843 -0.2904 -2.3848  0.4149
   13MOL   H254 9398   4.929   3.519   6.020  1.8912  3.9676  0.3552
   13MOL   H255 9399   4.836   3.377   5.861  0.2546 -0.3858  0.9484
   13MOL   H256 9400   4.980   3.291   5.905 -1.9317 -1.0155 -0.6538
   13MOL   H257 9401   5.199   3.510   5.871  2.9777 -1.1277  1.6149
   13MOL   H258 9402   5.155   3.429   6.015  0.0742 -0.0420 -0.3507
   13MOL   H259 9403   5.091   3.639   6.137  0.3452  0.5545 -0.2597
   13MOL   H260 9404   5.251   3.636   6.098  0.3941 -0.2115 -0.4224
   13MOL   H261 9405   5.201   3.773   5.888  0.2575 -0.5204  0.3247
   13MOL   H262 9406   5.243   3.903   6.116  0.4749  0.6001 -1.2075
   13MOL   H263 9407   5.066   3.877   6.143 -0.3766 -1.1391 -1.0163
   13MOL   H264 9408   4.981   4.207   5.924  0.1359  0.8890  1.1625
   13MOL   H265 9409   4.921   4.427   5.842  0.6927 -0.8614  1.1629
   13MOL   H266 9410   5.333   4.542   5.842 -0.1486  0.8571  0.7033
   13MOL   H267 9411   5.405   4.323   5.896 -0.5537 -2.0328 -0.1790
   13MOL   C268 9412   4.576   4.872   5.518  0.4456  0.2012 -0.0700
   13MOL   C269 9413   4.719   4.887   5.562  0.4938  0.7078  0.4377
   13MOL   C270 9414   4.779   4.759   5.629 -0.0290 -0.7938 -0.1409
   13MOL   C271 9415   4.915   4.789   5.689  0.1449  0.7080  0.1739
   13MOL   C272 9416   4.686   4.692   5.724  0.2779 -0.6853 -0.0810
   13MOL   C273 9417   4.542   4.689   5.668  1.0163 -0.4767  0.4277
   13MOL   C274 9418   4.486   4.825   5.631  0.2309  0.2502 -0.1908
   13MOL   C275 9419   4.348   4.794   5.561  0.3685  0.1831  0.1982
   13MOL   O276 9420   4.252   4.740   5.650 -0.2077  0.2502 -0.4090
   13MOL   C277 9421   4.198   4.816   5.745 -0.5904  0.1746 -0.1488
   13MOL   O278 9422   4.206   4.937   5.743 -0.1345  0.3016 -0.5445
   13MOL   C279 9423   4.140   4.737   5.854 -1.0985 -1.1215  0.8420
   13MOL   C280 9424   4.174   4.601   5.868  0.3541 -0.0710 -0.0685
   13MOL   C281 9425   4.111   4.523   5.972  0.5011 -0.1959 -0.1549
   13MOL   C282 9426   4.004   4.575   6.051  0.1835 -0.6096  0.0646
   13MOL   C283 9427   3.922   4.491   6.143  0.1300 -0.3942 -0.6498
   13MOL   O284 9428   3.916   4.371   6.136  0.3989  0.2886 -0.5597
   13MOL   O285 9429   3.864   4.563   6.236 -0.0040 -0.0639  0.2273
   13MOL   C286 9430   3.961   4.712   6.025  0.6818  0.1625 -0.7763
   13MOL   C287 9431   4.027   4.784   5.925  0.4060 -0.0500 -0.2112
   13MOL   H288 9432   4.564   4.793   5.443 -1.0763  0.5423 -0.1998
   13MOL   H289 9433   4.537   4.967   5.484  1.4077  0.5898 -0.1135
   13MOL   H290 9434   4.740   4.962   5.639 -0.2706  1.0940  0.2698
   13MOL   H291 9435   4.783   4.909   5.476  0.8781  1.8194  0.9937
   13MOL   H292 9436   4.790   4.689   5.546 -0.3693 -0.1868 -0.7072
   13MOL   H293 9437   4.900   4.853   5.775 -2.8963  0.0279  0.2016
   13MOL   H294 9438   4.985   4.829   5.615  3.3626 -1.8623  1.6714
   13MOL   H295 9439   4.693   4.744   5.819 -0.3145 -0.8552  0.0585
   13MOL   H296 9440   4.719   4.589   5.739  0.7394 -0.8094 -1.8406
   13MOL   H297 9441   4.545   4.632   5.575  1.4474  0.5858 -0.2212
   13MOL   H298 9442   4.480   4.640   5.743  1.6232 -0.2032  1.1134
   13MOL   H299 9443   4.488   4.893   5.717  0.1359 -0.7228  0.5909
   13MOL   H300 9444   4.358   4.720   5.481 -0.4173  0.9005 -0.5828
   13MOL   H301 9445   4.310   4.879   5.504  1.2668 -0.0050 -0.6963
   13MOL   H302 9446   4.247   4.558   5.802  2.2161  0.0181  1.8828
   13MOL   H303 9447   4.123   4.416   5.976 -0.8646 -0.3358  0.5342
   13MOL   H304 9448   3.878   4.752   6.081 -0.8478 -2.0082 -1.4476
   13MOL   H305 9449   3.993   4.887   5.923  0.4787 -0.0416 -1.4684
   13MOL   C306 9450   3.912   4.396   6.713 -0.7620  0.4409  1.2297
   13MOL   C307 9451   3.822   4.407   6.589  0.4188  0.8496 -0.1768
   13MOL   C308 9452   3.881   4.497   6.478  0.2593 -0.2796  0.4799
   13MOL   C309 9453   3.793   4.500   6.348  0.1850  0.5519 -0.3455
   13MOL   C310 9454   3.918   4.640   6.533 -0.4390 -0.2931  0.0643
   13MOL   C311 9455   4.011   4.625   6.650  0.6222 -0.2053 -0.3988
   13MOL   C312 9456   3.968   4.530   6.763 -0.3104  0.5849  0.1710
   13MOL   C313 9457   4.078   4.503   6.874 -0.2672 -0.1505 -0.0938
   13MOL   O314 9458   4.024   4.433   6.989  0.6749 -0.4610  0.4999
   13MOL   C315 9459   4.114   4.366   7.061 -0.1884 -0.1780  0.5090
   13MOL   O316 9460   4.238   4.371   7.045  0.3734 -0.4047  0.3541
   13MOL   C317 9461   4.048   4.264   7.148  0.0571 -0.2577 -0.6987
   13MOL   C318 9462   3.912   4.250   7.140  0.2236 -0.2197 -0.0444
   13MOL   C319 9463   3.844   4.168   7.236  0.5881 -0.2956  0.0226
   13MOL   C320 9464   3.919   4.087   7.323  0.1331 -0.5818  0.4894
   13MOL   C321 9465   3.846   3.997   7.419  0.1085  0.2704  0.0571
   13MOL   O322 9466   3.742   4.031   7.476  0.1244  0.0854  0.3688
   13MOL   O323 9467   3.904   3.877   7.447  0.2167 -0.3037  0.0442
   13MOL   C324 9468   4.061   4.082   7.312 -0.3335 -0.4068 -0.7326
   13MOL   C325 9469   4.126   4.171   7.224  0.5294  0.2746 -0.4391
   13MOL   H326 9470   3.989   4.327   6.678 -0.8991  0.7083  0.3999
   13MOL   H327 9471   3.861   4.336   6.789 -0.3495 -1.0754  0.3421
   13MOL   H328 9472   3.724   4.443   6.619 -0.5926 -0.9212 -1.2258
   13MOL   H329 9473   3.795   4.305   6.559 -0.9817  0.5193  2.1408
   13MOL   H330 9474   3.973   4.448   6.448  1.6668 -1.0039  5.4986
   13MOL   H331 9475   3.705   4.562   6.364  1.2255  1.7577  0.8845
   13MOL   H332 9476   3.772   4.397   6.318 -1.9340 -0.1443  3.2022
   13MOL   H333 9477   3.823   4.686   6.558 -0.7750 -0.1859 -1.4021
   13MOL   H334 9478   3.976   4.702   6.465  3.1367 -1.9688  1.4313
   13MOL   H335 9479   4.101   4.576   6.613  0.9481 -0.3164  0.5347
   13MOL   H336 9480   4.037   4.716   6.704  0.1878 -0.5607  0.4211
   13MOL   H337 9481   3.889   4.574   6.824 -1.0742 -1.2361  0.4995
   13MOL   H338 9482   4.109   4.596   6.921  0.9049 -0.6756  0.1807
   13MOL   H339 9483   4.161   4.446   6.832 -0.7356 -0.7283 -0.2412
   13MOL   H340 9484   3.861   4.298   7.058 -2.0641 -2.7281 -0.1436
   13MOL   H341 9485   3.737   4.174   7.224  0.7124  2.7799  0.1059
   13MOL   H342 9486   4.128   4.018   7.368  0.2149  0.6806 -0.1216
   13MOL   H343 9487   4.234   4.172   7.224  0.5429 -0.3290 -1.4683
   13MOL   C344 9488   3.924   3.456   7.368  0.2630  0.0691 -0.9683
   13MOL   C345 9489   3.948   3.594   7.422  0.0204  0.4281  0.1501
   13MOL   C346 9490   3.816   3.647   7.467 -0.0272  0.6718  0.2511
   13MOL   C347 9491   3.837   3.782   7.527 -0.2044  0.2378 -0.3479
   13MOL   C348 9492   3.719   3.659   7.349 -0.2605 -0.0420 -0.1664
   13MOL   C349 9493   3.703   3.527   7.281 -0.0940 -0.9521 -0.4247
   13MOL   C350 9494   3.840   3.464   7.240  0.3814  0.3576 -0.6791
   13MOL   C351 9495   3.814   3.329   7.175 -0.4859 -0.4262  0.7371
   13MOL   O352 9496   3.747   3.344   7.057  0.5802  0.4703 -0.8600
   13MOL   C353 9497   3.684   3.245   6.999 -0.1166 -0.2060 -0.2530
   13MOL   O354 9498   3.670   3.131   7.042 -0.1612  0.0638 -0.1706
   13MOL   C355 9499   3.613   3.291   6.878 -0.0580 -0.2504 -0.1691
   13MOL   C356 9500   3.515   3.202   6.827 -0.1219  0.6236  0.3506
   13MOL   C357 9501   3.454   3.227   6.704 -0.1145  0.9911  0.0861
   13MOL   C358 9502   3.489   3.348   6.631 -0.3746  0.3920 -0.3778
   13MOL   C359 9503   3.416   3.373   6.501 -0.4408  0.0293  0.8575
   13MOL   O360 9504   3.394   3.486   6.443 -0.0193  0.8178 -0.3317
   13MOL   O361 9505   3.370   3.266   6.447  0.6238 -0.4520  0.9386
   13MOL   C362 9506   3.581   3.440   6.684  0.2001  0.0037  0.3524
   13MOL   C363 9507   3.639   3.414   6.810  0.2029  0.0147  0.0415
   13MOL   H364 9508   3.876   3.394   7.443 -0.9859 -0.3135 -2.0632
   13MOL   H365 9509   4.021   3.410   7.352  0.7910  1.0296 -0.6189
   13MOL   H366 9510   3.993   3.665   7.352  0.6160 -3.0483 -3.1586
   13MOL   H367 9511   4.009   3.585   7.512 -0.0013  0.5456  0.1767
   13MOL   H368 9512   3.773   3.575   7.536 -1.9061  1.1619 -0.3731
   13MOL   H369 9513   3.881   3.769   7.626 -0.2071 -1.7148 -0.5831
   13MOL   H370 9514   3.745   3.829   7.563  0.0123  1.7724 -1.7368
   13MOL   H371 9515   3.766   3.731   7.282  0.6543  0.0809  0.5835
   13MOL   H372 9516   3.620   3.699   7.367  0.2636  1.5999 -0.8746
   13MOL   H373 9517   3.626   3.467   7.331 -1.5743  0.0076 -1.5107
   13MOL   H374 9518   3.640   3.531   7.191  0.8475 -0.7068 -1.0760
   13MOL   H375 9519   3.889   3.540   7.179  1.0002  0.4177 -0.1087
   13MOL   H376 9520   3.767   3.258   7.243  0.6746 -1.8370  0.0864
   13MOL   H377 9521   3.911   3.280   7.162 -1.4355 -2.0671 -0.2569
   13MOL   H378 9522   3.486   3.108   6.874  1.2972 -0.1391 -0.2749
   13MOL   H379 9523   3.371   3.165   6.675  0.6094 -0.1137  0.3592
   13MOL   H380 9524   3.599   3.537   6.641  0.8195 -0.4071 -0.3192
   13MOL   H381 9525   3.688   3.490   6.869 -0.2822  0.2777  0.1052
   13MOL   C382 9526   3.035   2.979   6.419  0.1204  0.3981 -0.2801
   13MOL   C383 9527   3.116   3.103   6.445 -0.5635  0.0544 -0.3328
   13MOL   C384 9528   3.186   3.158   6.318 -0.5972 -0.0991  0.1916
   13MOL   C385 9529   3.268   3.282   6.345 -0.6035  0.6629 -0.0662
   13MOL   C386 9530   3.267   3.047   6.251 -0.6189  0.3212 -0.2990
   13MOL   C387 9531   3.177   2.928   6.221 -0.3017 -0.6204  0.3638
   13MOL   C388 9532   3.119   2.864   6.348 -0.5129  0.1315 -0.2786
   13MOL   C389 9533   3.047   2.733   6.313 -0.2909  0.4070  0.3406
   13MOL   O390 9534   2.927   2.754   6.234  0.3151  0.8249 -0.3250
   13MOL   C391 9535   2.813   2.791   6.288  0.3804 -0.1330 -0.1326
   13MOL   O392 9536   2.790   2.796   6.409 -0.8175 -0.2286  0.4355
   13MOL   C393 9537   2.704   2.820   6.188  0.6698  0.1317  0.0158
   13MOL   C394 9538   2.567   2.802   6.227 -0.8809 -0.8075  0.0019
   13MOL   C395 9539   2.458   2.835   6.147  0.3099  0.1032 -0.2756
   13MOL   C396 9540   2.484   2.882   6.014  0.1434  0.2442 -0.1602
   13MOL   C397 9541   2.367   2.931   5.934  0.0187  0.5947 -0.4428
   13MOL   O398 9542   2.256   2.959   5.987 -0.0250 -0.0009  0.6546
   13MOL   O399 9543   2.392   2.929   5.796  0.1952  0.4303  0.5826
   13MOL   C400 9544   2.614   2.883   5.965 -0.6194 -0.5423  0.3209
   13MOL   C401 9545   2.726   2.859   6.049 -0.6918 -0.2223  0.3214
   13MOL   H402 9546   2.951   3.011   6.358  0.2051 -0.9904 -1.1503
   13MOL   H403 9547   2.989   2.943   6.510  0.0699 -3.0545 -1.6109
   13MOL   H404 9548   3.183   3.074   6.525 -0.1321  1.4943 -0.1713
   13MOL   H405 9549   3.045   3.180   6.475  0.2641  0.6366  0.1417
   13MOL   H406 9550   3.106   3.187   6.249 -3.1099 -0.2394  2.9359
   13MOL   H407 9551   3.191   3.347   6.386  0.3102  1.1737  0.8656
   13MOL   H408 9552   3.301   3.326   6.251 -0.8143 -0.8381 -0.8535
   13MOL   H409 9553   3.359   3.007   6.294 -0.2356  0.1685 -1.2480
   13MOL   H410 9554   3.305   3.073   6.152  0.2187  1.1650  0.2263
   13MOL   H411 9555   3.107   2.963   6.145  3.5112  1.2295 -2.4491
   13MOL   H412 9556   3.235   2.852   6.169  1.4299  1.0336 -0.1648
   13MOL   H413 9557   3.194   2.838   6.422 -1.0009 -1.6068 -0.3845
   13MOL   H414 9558   3.021   2.684   6.407  1.3542  2.4726  1.9280
   13MOL   H415 9559   3.099   2.661   6.248 -2.5045 -1.9357  1.0830
   13MOL   H416 9560   2.541   2.775   6.329 -2.4120  0.8185  0.0778
   13MOL   H417 9561   2.359   2.825   6.187  1.2236  0.2579  2.1030
   13MOL   H418 9562   2.631   2.907   5.861  0.6088 -0.6298  0.4842
   13MOL   H419 9563   2.824   2.852   6.004 -0.5544  1.1653  0.3769
   13MOL   C420 9564   2.180   2.552   5.696  0.3031  0.8106  0.4371
   13MOL   C421 9565   2.209   2.685   5.757  0.3501 -0.5038  0.6012
   13MOL   C422 9566   2.248   2.794   5.650 -0.3336 -0.3203 -0.4768
   13MOL   C423 9567   2.283   2.930   5.699  0.2614 -0.1252 -0.4366
   13MOL   C424 9568   2.362   2.745   5.559 -0.0967 -0.0639  0.2143
   13MOL   C425 9569   2.328   2.609   5.499 -0.2302  0.2894 -0.9101
   13MOL   C426 9570   2.289   2.500   5.601 -0.4711 -0.0311 -0.1916
   13MOL   C427 9571   2.252   2.370   5.529 -0.0073  0.2839  0.2611
   13MOL   O428 9572   2.128   2.380   5.452 -0.1576  0.1009 -0.8007
   13MOL   C429 9573   2.128   2.416   5.322 -0.7211 -0.4251 -0.4787
   13MOL   O430 9574   2.229   2.406   5.250  0.0969  0.1961 -0.4555
   13MOL   C431 9575   1.997   2.447   5.264  0.3323 -0.3537  0.7138
   13MOL   C432 9576   1.898   2.500   5.351 -0.4444 -0.1472 -0.0738
   13MOL   C433 9577   1.769   2.531   5.299 -0.4635  0.6593  0.4021
   13MOL   C434 9578   1.740   2.511   5.162 -0.3595 -0.4079 -0.8590
   13MOL   C435 9579   1.605   2.556   5.106 -0.1077  0.0677 -0.1739
   13MOL   O436 9580   1.568   2.534   4.993 -0.1518 -0.2074 -0.5567
   13MOL   O437 9581   1.531   2.615   5.208 -0.1815  0.2971  0.3785
   13MOL   C438 9582   1.839   2.464   5.079 -0.3151  0.0220  0.0149
   13MOL   C439 9583   1.971   2.431   5.130 -0.1889  0.5738  0.3420
   13MOL   H440 9584   2.087   2.561   5.640  0.0842  1.9279  0.9703
   13MOL   H441 9585   2.160   2.481   5.776  0.2333  0.5635  0.2027
   13MOL   H442 9586   2.303   2.664   5.808  0.6222 -1.7392 -0.4070
   13MOL   H443 9587   2.142   2.725   5.833  0.3868 -0.8157  0.7953
   13MOL   H444 9588   2.157   2.809   5.593 -0.5851 -0.7649 -0.1975
   13MOL   H445 9589   2.187   2.955   5.743  0.2987 -0.1431 -0.3447
   13MOL   H446 9590   2.301   2.996   5.614  0.5693  0.0521 -0.2326
   13MOL   H447 9591   2.463   2.742   5.599  0.6566  0.7596 -1.5441
   13MOL   H448 9592   2.374   2.820   5.481  1.3620 -1.1933 -0.6688
   13MOL   H449 9593   2.247   2.636   5.432 -1.1262  1.3102  0.5610
   13MOL   H450 9594   2.416   2.577   5.442  1.8330  1.5137  1.4684
   13MOL   H451 9595   2.380   2.479   5.657  0.9156  0.4243 -2.2208
   13MOL   H452 9596   2.239   2.288   5.600 -1.6040  0.6074  0.3426
   13MOL   H453 9597   2.331   2.353   5.456  0.2572  0.9114  0.3996
   13MOL   H454 9598   1.929   2.508   5.454  0.3439 -3.7537  0.0182
   13MOL   H455 9599   1.691   2.562   5.367 -1.4483 -0.3585 -0.2515
   13MOL   H456 9600   1.826   2.472   4.972  0.0643  1.2471  0.0547
   13MOL   H457 9601   2.050   2.402   5.062  0.8634  0.1012  1.7335
   13MOL   C458 9602   1.548   3.031   5.245  0.3458  0.6144  0.2995
   13MOL   C459 9603   1.516   2.884   5.255  0.5996 -0.0628 -0.3920
   13MOL   C460 9604   1.459   2.824   5.125 -0.4280 -0.5566  0.5301
   13MOL   C461 9605   1.418   2.684   5.168 -0.0313  0.6832 -0.1383
   13MOL   C462 9606   1.339   2.905   5.079  0.3014 -0.4479 -0.4310
   13MOL   C463 9607   1.370   3.058   5.060 -0.2435 -0.6000 -0.2969
   13MOL   C464 9608   1.436   3.117   5.186 -0.1088 -0.0915  0.1562
   13MOL   C465 9609   1.487   3.264   5.156  0.0272  0.0263 -0.5293
   13MOL   O466 9610   1.598   3.264   5.076 -0.4013  0.0408  0.0329
   13MOL   C467 9611   1.589   3.294   4.946  0.0175 -0.5184 -0.7370
   13MOL   O468 9612   1.488   3.335   4.892 -0.1068  0.5648  0.8775
   13MOL   C469 9613   1.720   3.287   4.875  0.6073  0.6187 -0.1369
   13MOL   C470 9614   1.727   3.299   4.737  0.3573 -0.3005 -0.2384
   13MOL   C471 9615   1.842   3.276   4.666 -0.0327 -0.0537 -0.3640
   13MOL   C472 9616   1.966   3.250   4.736 -0.1694  1.0285  0.2912
   13MOL   C473 9617   2.093   3.237   4.662 -0.3491  0.4476 -0.8493
   13MOL   O474 9618   2.195   3.198   4.715  0.6240  0.6449  0.5060
   13MOL   O475 9619   2.086   3.274   4.532 -0.3166 -0.1541  0.3882
   13MOL   C476 9620   1.962   3.239   4.877 -0.1348 -0.0007 -0.5441
   13MOL   C477 9621   1.837   3.243   4.945 -0.4645 -0.0499 -0.8272
   13MOL   H478 9622   1.634   3.038   5.178 -1.6920 -2.4734 -2.8247
   13MOL   H479 9623   1.576   3.078   5.339  0.4223 -3.4767  2.4240
   13MOL   H480 9624   1.447   2.885   5.339  0.1487 -0.5300 -0.7561
   13MOL   H481 9625   1.604   2.831   5.292 -0.8856 -2.9393 -0.8544
   13MOL   H482 9626   1.541   2.827   5.053 -1.2285  1.4743 -0.3089
   13MOL   H483 9627   1.372   2.624   5.090 -1.3702 -0.5200  1.5272
   13MOL   H484 9628   1.348   2.687   5.252 -2.7651 -0.3045 -2.2951
   13MOL   H485 9629   1.255   2.902   5.149  0.7464  0.9081  0.1778
   13MOL   H486 9630   1.308   2.871   4.980 -1.2830  1.8609 -0.7699
   13MOL   H487 9631   1.433   3.064   4.972 -0.9553 -0.1654 -0.7819
   13MOL   H488 9632   1.274   3.102   5.033 -0.4909 -1.1337 -0.2988
   13MOL   H489 9633   1.350   3.130   5.251  0.4625 -2.2158  1.3796
   13MOL   H490 9634   1.516   3.312   5.249  2.5923 -1.0616 -0.7310
   13MOL   H491 9635   1.407   3.332   5.124 -2.6871 -1.7769  2.1565
   13MOL   H492 9636   1.632   3.323   4.692 -0.4126 -1.5187  0.6906
   13MOL   H493 9637   1.845   3.281   4.558 -0.1905  1.7804 -0.2847
   13MOL   H494 9638   2.052   3.213   4.930 -0.4428 -0.5174 -0.2701
   13MOL   H495 9639   1.831   3.218   5.049 -1.2012  0.5534 -0.7189
   13MOL   C496 9640   2.264   3.511   4.121 -1.0048  1.0535  0.5485
   13MOL   C497 9641   2.303   3.425   4.250  0.3909 -0.0242  0.1612
   13MOL   C498 9642   2.171   3.386   4.329  0.6848  0.3781  0.2093
   13MOL   C499 9643   2.204   3.301   4.458  0.1202 -0.4339  0.2141
   13MOL   C500 9644   2.097   3.517   4.366 -0.2436  0.3739  0.8143
   13MOL   C501 9645   2.070   3.611   4.246  1.0770 -0.4291  0.3189
   13MOL   C502 9646   2.199   3.643   4.168 -0.2338 -0.5250  0.4494
   13MOL   C503 9647   2.177   3.735   4.045  0.3022  0.3679 -0.3262
   13MOL   O504 9648   2.119   3.854   4.089 -0.3531 -0.0054  0.2069
   13MOL   C505 9649   2.073   3.954   3.998 -0.1799  0.3634 -0.5684
   13MOL   O506 9650   2.081   3.943   3.876 -0.3485 -0.1031  0.4882
   13MOL   C507 9651   2.025   4.074   4.075  0.2509 -0.0713  1.5124
   13MOL   C508 9652   2.008   4.072   4.213  0.6492  0.0009 -0.3199
   13MOL   C509 9653   1.952   4.174   4.290 -0.0967  0.0702  0.2914
   13MOL   C510 9654   1.926   4.296   4.222 -0.0811  0.4511 -0.3710
   13MOL   C511 9655   1.865   4.417   4.293 -0.1845  0.2011  0.0972
   13MOL   O512 9656   1.871   4.440   4.414  0.6462  0.1953  0.0487
   13MOL   O513 9657   1.800   4.497   4.203  0.6487  0.3161 -0.4363
   13MOL   C514 9658   1.966   4.309   4.087  0.4503  0.1821  0.0395
   13MOL   C515 9659   2.011   4.198   4.009  0.2649 -0.1264 -0.1706
   13MOL   H516 9660   2.193   3.456   4.060  2.0355 -0.2118 -2.0031
   13MOL   H517 9661   2.356   3.514   4.063 -0.3395 -1.4528  1.4061
   13MOL   H518 9662   2.347   3.488   4.328  0.3867 -0.1975  0.3059
   13MOL   H519 9663   2.372   3.340   4.242 -0.9556 -0.8455 -3.9932
   13MOL   H520 9664   2.114   3.325   4.258 -1.3834  1.5895  0.8103
   13MOL   H521 9665   2.277   3.362   4.510  1.0851 -0.4351 -1.1004
   13MOL   H522 9666   2.258   3.209   4.434 -1.2518 -1.5059  1.1085
   13MOL   H523 9667   2.167   3.577   4.424 -0.1101  0.1541  0.8846
   13MOL   H524 9668   2.007   3.501   4.426  0.2713  3.1748  2.4168
   13MOL   H525 9669   2.002   3.556   4.180 -0.4416 -1.4266  2.6146
   13MOL   H526 9670   2.027   3.706   4.275  0.9582 -0.9548  1.9147
   13MOL   H527 9671   2.266   3.695   4.236 -0.3610 -0.3252  0.4219
   13MOL   H528 9672   2.109   3.687   3.976  0.2730  0.0741 -0.0940
   13MOL   H529 9673   2.259   3.749   3.974  2.2007 -0.6968  1.5648
   13MOL   H530 9674   2.034   3.985   4.271 -0.6853  0.3294  0.8067
   13MOL   H531 9675   1.940   4.166   4.397 -3.1834 -2.0332 -0.1307
   13MOL   H532 9676   1.964   4.405   4.037  1.9475 -1.1467 -2.6970
   13MOL   H533 9677   2.037   4.215   3.906 -0.7531 -0.6208 -0.5135
   13MOL   C534 9678   1.377   4.579   4.190  0.0564  0.2189 -0.0830
   13MOL   C535 9679   1.526   4.546   4.173  0.6632  0.1632 -0.0022
   13MOL   C536 9680   1.612   4.632   4.275  0.2888  0.4320  0.6171
   13MOL   C537 9681   1.756   4.625   4.237  0.5309  0.8244 -0.7018
   13MOL   C538 9682   1.571   4.787   4.271 -0.0551  0.6426 -0.0088
   13MOL   C539 9683   1.419   4.804   4.289  0.2089 -0.5170  0.1961
   13MOL   C540 9684   1.342   4.728   4.180 -0.2622 -0.3541 -0.7213
   13MOL   C541 9685   1.187   4.744   4.203 -0.1235  0.1950  0.5929
   13MOL   O542 9686   1.155   4.694   4.328  0.9001 -0.3035 -0.2785
   13MOL   C543 9687   1.036   4.640   4.356 -0.0766  0.4693  0.0764
   13MOL   O544 9688   0.941   4.637   4.276 -0.3520  0.1963 -0.3285
   13MOL   C545 9689   1.026   4.585   4.495  0.1740 -0.4809 -0.2115
   13MOL   C546 9690   1.116   4.627   4.599 -0.2399 -0.1855  0.8674
   13MOL   C547 9691   1.108   4.564   4.724 -0.4383 -0.6711  0.8259
   13MOL   C548 9692   1.000   4.473   4.749 -1.3089  0.0958  0.0818
   13MOL   C549 9693   0.997   4.413   4.886 -0.2649  0.9923  1.0872
   13MOL   O550 9694   1.045   4.472   4.983 -0.5431 -0.0450 -0.1457
   13MOL   O551 9695   0.927   4.296   4.890  0.0264  0.0055  0.0407
   13MOL   C552 9696   0.900   4.445   4.656  0.1103  0.4031  0.1278
   13MOL   C553 9697   0.924   4.492   4.525 -0.1326 -0.4655  0.5012
   13MOL   H554 9698   1.327   4.541   4.278 -1.4475  1.0813 -0.5393
   13MOL   H555 9699   1.322   4.543   4.102  0.0112  1.1580 -0.4488
   13MOL   H556 9700   1.557   4.562   4.070  0.1261 -0.6335 -0.2918
   13MOL   H557 9701   1.539   4.441   4.198  0.4550 -0.4555 -2.3837
   13MOL   H558 9702   1.603   4.587   4.374 -0.5321  0.1369  0.4126
   13MOL   H559 9703   1.815   4.659   4.322  0.0909 -0.4525  0.1204
   13MOL   H560 9704   1.778   4.688   4.150  1.9588 -0.1060 -1.0282
   13MOL   H561 9705   1.592   4.826   4.171 -0.1783 -2.8214 -1.4641
   13MOL   H562 9706   1.628   4.840   4.348  3.6345 -2.6186 -0.3437
   13MOL   H563 9707   1.388   4.767   4.387 -1.6462 -2.4931 -1.0977
   13MOL   H564 9708   1.381   4.905   4.272  0.1495 -0.4958  0.4503
   13MOL   H565 9709   1.362   4.768   4.081 -1.2865  0.2064 -0.7161
   13MOL   H566 9710   1.133   4.693   4.124  6.2169 -3.2415 -1.9417
   13MOL   H567 9711   1.157   4.848   4.194 -0.3054  0.0001 -1.2058
   13MOL   H568 9712   1.189   4.698   4.563 -0.2183 -1.2449 -1.2787
   13MOL   H569 9713   1.177   4.596   4.800 -2.2237  2.5571  1.1661
   13MOL   H570 9714   0.821   4.376   4.682 -2.2162  2.9341  0.0514
   13MOL   H571 9715   0.852   4.477   4.445 -1.9885  1.6358  1.7174
   13MOL   C572 9716   0.504   4.175   5.011 -0.2538  0.4731 -0.0572
   13MOL   C573 9717   0.652   4.158   4.962  0.0354  0.5233 -0.1108
   13MOL   C574 9718   0.747   4.245   5.041  0.7132  0.1903  0.0411
   13MOL   C575 9719   0.898   4.235   5.014 -0.4981  0.0115 -0.0767
   13MOL   C576 9720   0.700   4.384   5.028 -0.0149 -0.1215 -0.4667
   13MOL   C577 9721   0.561   4.411   5.084 -0.7448  0.6556  0.6999
   13MOL   C578 9722   0.462   4.325   5.001 -0.2745  0.3567 -0.4252
   13MOL   C579 9723   0.320   4.346   5.058  0.1392 -0.0562 -0.0513
   13MOL   O580 9724   0.228   4.285   4.967 -0.1876 -0.4985  0.4590
   13MOL   C581 9725   0.152   4.360   4.883 -0.2099 -0.5974 -0.3343
   13MOL   O582 9726   0.186   4.477   4.860 -0.2857 -0.3852 -0.6167
   13MOL   C583 9727   0.032   4.287   4.833  0.8156 -0.0739 -0.3378
   13MOL   C584 9728   7.969   4.367   4.767 -0.5158 -0.2315  0.1538
   13MOL   C585 9729   7.847   4.308   4.727  0.4960  0.1468  0.3177
   13MOL   C586 9730   7.817   4.174   4.752  0.6452 -0.1552 -0.0834
   13MOL   C587 9731   7.690   4.116   4.697 -0.3379  0.0477 -0.4549
   13MOL   O588 9732   7.639   4.011   4.742 -0.2342 -0.1182  0.7119
   13MOL   O589 9733   7.644   4.176   4.586  0.3859 -0.5198 -0.1860
   13MOL   C590 9734   7.915   4.091   4.819 -0.4371  0.4527 -0.1136
   13MOL   C591 9735   0.002   4.155   4.861 -0.1229  0.3286  0.0756
   13MOL   H592 9736   0.494   4.149   5.117 -1.9946 -2.1352 -0.8320
   13MOL   H593 9737   0.431   4.104   4.972 -0.9041  0.6560  0.8136
   13MOL   H594 9738   0.648   4.187   4.857  3.6112 -0.7224 -0.6433
   13MOL   H595 9739   0.686   4.055   4.969  0.6855  0.8618  2.1191
   13MOL   H596 9740   0.732   4.220   5.146  0.6423  0.8183  0.1814
   13MOL   H597 9741   0.928   4.130   5.023 -1.1449 -0.0633  1.2957
   13MOL   H598 9742   0.953   4.279   5.097  1.4981 -1.4577 -0.5768
   13MOL   H599 9743   0.711   4.423   4.927  0.4805 -1.3584 -0.9080
   13MOL   H600 9744   0.767   4.442   5.092 -0.3694  1.8931 -1.9144
   13MOL   H601 9745   0.554   4.389   5.190  0.7784  3.5516  1.4469
   13MOL   H602 9746   0.530   4.515   5.083 -0.0299  0.9157  3.4457
   13MOL   H603 9747   0.464   4.363   4.899  2.1492 -0.7125 -0.8112
   13MOL   H604 9748   0.307   4.453   5.069  1.2443  0.1105 -0.2521
   13MOL   H605 9749   0.301   4.295   5.152 -0.3555 -2.5461 -1.4459
   13MOL   H606 9750   8.001   4.469   4.753  3.1357 -1.3787 -0.4295
   13MOL   H607 9751   7.782   4.375   4.674  0.4007 -1.5135 -1.7274
   13MOL   H608 9752   7.890   3.988   4.838 -1.3799  0.3913 -1.6015
   13MOL   H609 9753   0.087   4.105   4.904 -0.2448 -2.6444 -2.8909
   13MOL   C610 9754   7.188   4.306   4.479  0.1371  0.5019 -0.0873
   13MOL   C611 9755   7.292   4.198   4.463 -0.2333 -0.0331 -0.1511
   13MOL   C612 9756   7.413   4.234   4.557  0.8523  0.1377 -0.3117
   13MOL   C613 9757   7.524   4.136   4.526 -0.4037  0.1987  0.1170
   13MOL   C614 9758   7.460   4.378   4.550  0.6220  0.3000 -0.1465
   13MOL   C615 9759   7.335   4.474   4.565  0.1494  0.0361 -1.0267
   13MOL   C616 9760   7.234   4.449   4.456 -0.1861 -0.2526 -0.4209
   13MOL   C617 9761   7.123   4.554   4.473  0.0456  0.4710  0.1258
   13MOL   O618 9762   7.001   4.526   4.399 -0.7978  0.2243 -0.3517
   13MOL   C619 9763   6.987   4.586   4.285 -0.4766  0.3944  0.1475
   13MOL   O620 9764   7.079   4.646   4.229 -0.1401 -0.0577 -0.6469
   13MOL   C621 9765   6.858   4.566   4.217  0.6149  0.7363  0.0229
   13MOL   C622 9766   6.751   4.503   4.282 -0.3452 -0.0854  0.6224
   13MOL   C623 9767   6.627   4.494   4.227  0.1813 -0.5818 -0.0964
   13MOL   C624 9768   6.591   4.553   4.103  0.1437  0.5278 -0.6138
   13MOL   C625 9769   6.448   4.544   4.057 -0.2397 -0.6574 -0.3895
   13MOL   O626 9770   6.357   4.493   4.125 -0.0245 -0.0538 -0.3519
   13MOL   O627 9771   6.428   4.607   3.944  0.6006  0.6451 -0.1420
   13MOL   C628 9772   6.700   4.617   4.034 -0.6893 -0.9580  0.1420
   13MOL   C629 9773   6.827   4.615   4.088  0.3031  0.1911  0.7376
   13MOL   H630 9774   7.110   4.292   4.554  0.0658 -0.6722 -0.3636
   13MOL   H631 9775   7.131   4.278   4.390  0.1106 -2.9600  0.9400
   13MOL   H632 9776   7.339   4.193   4.364 -1.9160  1.2119 -1.0389
   13MOL   H633 9777   7.243   4.101   4.473  2.2864 -1.3511 -0.0245
   13MOL   H634 9778   7.392   4.212   4.662 -0.5287 -1.1050 -0.8405
   13MOL   H635 9779   7.544   4.130   4.419  1.4361 -1.6913  0.5567
   13MOL   H636 9780   7.492   4.035   4.551 -0.6934 -0.1952 -1.7521
   13MOL   H637 9781   7.503   4.390   4.451 -1.0024 -2.7636 -1.3269
   13MOL   H638 9782   7.533   4.408   4.625 -1.0925  0.2722  1.5865
   13MOL   H639 9783   7.290   4.457   4.663  0.3101 -0.2400 -1.0011
   13MOL   H640 9784   7.369   4.577   4.557  1.1921 -0.1430  0.8119
   13MOL   H641 9785   7.276   4.456   4.355 -0.4122  4.4313 -0.3331
   13MOL   H642 9786   7.159   4.655   4.455 -0.0578  0.5271  0.2340
   13MOL   H643 9787   7.087   4.557   4.576  0.7890 -1.2084  0.4495
   13MOL   H644 9788   6.759   4.456   4.379  1.1811  0.0247  0.5690
   13MOL   H645 9789   6.553   4.441   4.286 -0.4130 -2.0530 -2.0906
   13MOL   H646 9790   6.689   4.654   3.933 -1.0721 -0.0849  0.4948
   13MOL   H647 9791   6.906   4.655   4.026  1.1647 -3.8121 -0.9102
   13MOL   C648 9792   6.149   4.903   3.743 -0.1626 -0.2700 -0.1627
   13MOL   C649 9793   6.247   4.784   3.762  0.3668  0.1922  0.2171
   13MOL   C650 9794   6.202   4.684   3.864 -0.2276 -0.0397  0.2311
   13MOL   C651 9795   6.308   4.566   3.876  0.7676 -0.5358 -0.0776
   13MOL   C652 9796   6.164   4.758   3.990  0.1078 -0.0390 -0.0696
   13MOL   C653 9797   6.045   4.857   3.974  0.7689 -0.3401 -0.1024
   13MOL   C654 9798   6.092   4.969   3.871 -0.2927  0.5873  0.0193
   13MOL   C655 9799   5.968   5.053   3.832 -0.1849 -0.5445  0.2719
   13MOL   O656 9800   5.897   5.100   3.950  0.4324  0.4425 -0.3188
   13MOL   C657 9801   5.923   5.218   4.017  0.6792  0.3670  0.0068
   13MOL   O658 9802   6.012   5.293   3.988  0.3583 -0.0957  0.7249
   13MOL   C659 9803   5.836   5.250   4.126  0.3018  0.5012 -0.4849
   13MOL   C660 9804   5.751   5.150   4.171  1.1561  0.2072  0.0372
   13MOL   C661 9805   5.664   5.175   4.271  0.2346  0.0133  0.5939
   13MOL   C662 9806   5.661   5.298   4.342 -0.2533  0.4928 -0.4368
   13MOL   C663 9807   5.566   5.316   4.458  0.4403 -0.4908  0.1842
   13MOL   O664 9808   5.487   5.225   4.490 -0.2454  0.0536 -0.3087
   13MOL   O665 9809   5.559   5.445   4.510 -0.4457  0.5166  0.3049
   13MOL   C666 9810   5.752   5.397   4.297 -0.0879 -0.4411  0.0614
   13MOL   C667 9811   5.830   5.381   4.187  0.3940  0.3072 -0.1367
   13MOL   H668 9812   6.060   4.863   3.694 -0.9724 -0.8477  1.7280
   13MOL   H669 9813   6.190   4.982   3.680 -2.2125  0.4244 -0.6709
   13MOL   H670 9814   6.338   4.834   3.795  1.1508  0.1281 -1.7900
   13MOL   H671 9815   6.276   4.729   3.673 -1.9029  0.0082 -0.4237
   13MOL   H672 9816   6.113   4.638   3.820  1.0081 -2.2766 -0.0199
   13MOL   H673 9817   6.349   4.527   3.783  2.6486 -0.5193  0.7165
   13MOL   H674 9818   6.259   4.479   3.920 -4.6091  1.6519 -1.3089
   13MOL   H675 9819   6.244   4.817   4.034  0.9111 -0.1558 -1.3658
   13MOL   H676 9820   6.129   4.682   4.060  0.5168  0.0494  0.2282
   13MOL   H677 9821   5.954   4.806   3.942  0.6542 -2.6512  3.6399
   13MOL   H678 9822   6.031   4.895   4.075  1.2862  0.6198 -0.3809
   13MOL   H679 9823   6.177   5.015   3.922  0.9626 -0.4331 -1.1192
   13MOL   H680 9824   5.907   4.992   3.766  0.6921 -1.3148  0.1602
   13MOL   H681 9825   5.988   5.137   3.765 -1.6983 -1.6197 -1.5506
   13MOL   H682 9826   5.746   5.050   4.130  0.1461 -0.6587  2.2043
   13MOL   H683 9827   5.593   5.106   4.315  2.5067 -2.2897  0.7371
   13MOL   H684 9828   5.757   5.491   4.351 -2.5431  0.5248 -1.3406
   13MOL   H685 9829   5.894   5.462   4.155 -1.1111  0.8517 -1.8826
   13MOL   C686 9830   5.308   5.758   4.340  0.1143 -0.0378  0.3639
   13MOL   C687 9831   5.347   5.623   4.399 -0.0396 -0.4817  0.2287
   13MOL   C688 9832   5.405   5.630   4.546 -0.8905 -0.7999  0.0996
   13MOL   C689 9833   5.456   5.495   4.593 -0.7218  0.1894 -0.3810
   13MOL   C690 9834   5.512   5.738   4.566 -0.0543 -0.9281  0.2434
   13MOL   C691 9835   5.466   5.877   4.509 -0.3973 -0.2608 -0.2608
   13MOL   C692 9836   5.422   5.862   4.359 -0.1281  0.4728 -0.4447
   13MOL   C693 9837   5.401   5.992   4.296 -0.5105 -0.2335  0.6465
   13MOL   O694 9838   5.280   6.046   4.352 -0.4923 -0.3088  0.1498
   13MOL   C695 9839   5.273   6.173   4.389 -0.0684  0.0080 -0.1857
   13MOL   O696 9840   5.357   6.260   4.367 -0.1516 -0.1468  0.1302
   13MOL   C697 9841   5.153   6.198   4.471 -0.1239 -0.2653  0.0712
   13MOL   C698 9842   5.085   6.090   4.533  0.1200 -0.1116 -0.0350
   13MOL   C699 9843   4.964   6.123   4.604  0.5204 -0.1724 -0.6783
   13MOL   C700 9844   4.917   6.251   4.610  0.2827  0.8782 -0.2767
   13MOL   C701 9845   4.793   6.270   4.695 -0.5527 -0.4192 -1.2993
   13MOL   O702 9846   4.699   6.191   4.700 -0.3970  0.1692  0.2059
   13MOL   O703 9847   4.800   6.392   4.751  0.4696  0.1113  0.2646
   13MOL   C704 9848   4.989   6.362   4.545 -0.6219  0.3811  0.9295
   13MOL   C705 9849   5.108   6.333   4.474  0.0630 -0.2001 -0.4345
   13MOL   H706 9850   5.215   5.791   4.388  0.6296  0.8819  0.7436
   13MOL   H707 9851   5.288   5.730   4.237  0.3420  1.1789 -0.0166
   13MOL   H708 9852   5.426   5.571   4.344 -0.5860 -0.2707 -0.7643
   13MOL   H709 9853   5.263   5.554   4.409 -1.2191  0.8741 -0.1835
   13MOL   H710 9854   5.331   5.654   4.622 -0.6941 -0.1913  0.0995
   13MOL   H711 9855   5.366   5.433   4.598 -0.9532  0.4604 -1.1592
   13MOL   H712 9856   5.493   5.488   4.696 -1.9697 -0.2434  0.0458
   13MOL   H713 9857   5.607   5.711   4.521  1.1671  1.7386  1.1628
   13MOL   H714 9858   5.543   5.748   4.670 -0.8929  1.7537  0.2665
   13MOL   H715 9859   5.388   5.911   4.578 -1.4071 -0.4991 -1.2793
   13MOL   H716 9860   5.548   5.947   4.519 -2.7648  2.3659  1.4935
   13MOL   H717 9861   5.509   5.819   4.310  0.7010  0.7200  0.7951
   13MOL   H718 9862   5.381   5.989   4.189  0.5065 -0.8252  0.4760
   13MOL   H719 9863   5.480   6.066   4.308  1.2290 -1.9983  0.3033
   13MOL   H720 9864   5.121   5.988   4.536 -1.1944 -0.6265 -1.1903
   13MOL   H721 9865   4.916   6.046   4.664  0.9493  0.2883  0.2685
   13MOL   H722 9866   4.944   6.460   4.554 -0.6563  0.3247  1.3851
   13MOL   H723 9867   5.166   6.406   4.420  0.8427 -0.4938 -0.0022
   13MOL   C724 9868   4.417   6.718   4.709 -0.2805 -0.9007 -0.2339
   13MOL   C725 9869   4.514   6.648   4.813  0.0630  0.0662 -0.7920
   13MOL   C726 9870   4.592   6.535   4.733  0.0039  0.8657  0.1747
   13MOL   C727 9871   4.693   6.457   4.821  0.5318  0.2660  0.0556
   13MOL   C728 9872   4.499   6.444   4.646 -0.1724 -0.0161 -0.8152
   13MOL   C729 9873   4.410   6.520   4.553  0.3395  0.0597  0.0764
   13MOL   C730 9874   4.329   6.621   4.636 -0.6946 -0.3066 -0.4238
   13MOL   C731 9875   4.229   6.687   4.547 -0.7566  0.8077  0.5197
   13MOL   O732 9876   4.145   6.770   4.623 -0.4003  0.2649 -0.1282
   13MOL   C733 9877   4.030   6.817   4.557 -0.2654 -0.5802 -0.1373
   13MOL   O734 9878   3.978   6.762   4.456 -0.5437  0.2065  0.5482
   13MOL   C735 9879   3.964   6.932   4.633  0.0824  0.3811 -0.0700
   13MOL   C736 9880   3.824   6.945   4.615  0.3263  0.2753  0.6767
   13MOL   C737 9881   3.762   7.047   4.685  0.0500 -0.2219  0.4044
   13MOL   C738 9882   3.834   7.117   4.792 -0.4451 -0.9387 -0.2258
   13MOL   C739 9883   3.756   7.210   4.881  0.3577 -0.0225 -0.1664
   13MOL   O740 9884   3.652   7.262   4.852 -0.2313 -0.2871 -0.8446
   13MOL   O741 9885   3.827   7.254   4.992 -0.6825  0.1748 -0.3166
   13MOL   C742 9886   3.970   7.097   4.813 -0.4080 -0.6038  0.2826
   13MOL   C743 9887   4.039   7.015   4.723  0.4014 -0.7657  0.0985
   13MOL   H744 9888   4.469   6.788   4.644 -1.0082 -1.7364 -1.7402
   13MOL   H745 9889   4.363   6.789   4.771  2.0100  0.7909 -0.1008
   13MOL   H746 9890   4.449   6.606   4.890  0.4224 -0.9092 -1.0109
   13MOL   H747 9891   4.565   6.726   4.869 -1.8952  1.2922 -0.6797
   13MOL   H748 9892   4.647   6.580   4.650  0.0568  1.8085  0.7101
   13MOL   H749 9893   4.654   6.375   4.880  1.6323  0.7047  1.4020
   13MOL   H750 9894   4.749   6.535   4.872 -0.1288  1.1512 -0.5485
   13MOL   H751 9895   4.441   6.376   4.708 -0.8224  0.0397 -1.3587
   13MOL   H752 9896   4.560   6.377   4.586 -0.5866 -0.8391 -0.3244
   13MOL   H753 9897   4.469   6.592   4.497 -0.4633  1.6164  1.1812
   13MOL   H754 9898   4.354   6.449   4.492 -1.6904  0.7385  1.0671
   13MOL   H755 9899   4.275   6.561   4.710 -2.1918  1.0241 -0.4002
   13MOL   H756 9900   4.180   6.609   4.489  2.1743 -0.5308 -0.2940
   13MOL   H757 9901   4.267   6.761   4.477  1.2428 -2.0157 -1.5174
   13MOL   H758 9902   3.767   6.890   4.542  0.1321 -1.2150  1.9258
   13MOL   H759 9903   3.660   7.070   4.659  0.1015 -2.2587 -1.8688
   13MOL   H760 9904   4.028   7.141   4.893  0.2488 -2.7721  1.0413
   13MOL   H761 9905   4.146   7.001   4.725  0.7312  1.0389 -2.0370
   13MOL   H762 9906   3.806   7.345   5.009  2.1874  0.6537  0.9995
   14MOL     C1 9907   2.108   1.813   1.250  0.2633  0.1631  0.8331
   14MOL     C2 9908   2.255   1.827   1.297 -0.5578  0.5204 -1.0771
   14MOL     C3 9909   2.269   1.906   1.425 -0.3826  0.4990  0.3002
   14MOL     C4 9910   2.406   1.911   1.481  0.0365  0.6469  0.2320
   14MOL     C5 9911   2.208   2.046   1.403 -0.0287  0.1677  0.0634
   14MOL     C6 9912   2.065   2.035   1.352 -0.5396 -0.4352 -0.3270
   14MOL     C7 9913   2.043   1.953   1.222 -0.2770  0.1866  0.7799
   14MOL     C8 9914   1.893   1.951   1.191 -0.2827  0.2643 -0.1741
   14MOL     O9 9915   1.828   1.852   1.273 -0.1223  0.4617 -0.1832
   14MOL    C10 9916   1.707   1.804   1.242  0.2589 -0.1020  0.3595
   14MOL    O11 9917   1.627   1.853   1.161  0.1469  0.0244  0.4099
   14MOL    C12 9918   1.675   1.687   1.331  0.5423 -0.8013  0.3536
   14MOL    C13 9919   1.766   1.655   1.436  0.1898  0.4473  0.4695
   14MOL    C14 9920   1.743   1.537   1.514  0.6962  0.3065 -0.2572
   14MOL    C15 9921   1.621   1.466   1.501 -0.3374  0.2887 -0.0517
   14MOL    C16 9922   1.591   1.345   1.582  0.0290 -0.5287  0.5639
   14MOL    O17 9923   1.503   1.271   1.545 -0.4464 -0.1465  0.0757
   14MOL    O18 9924   1.662   1.333   1.705 -0.2780 -0.1953  0.4095
   14MOL    C19 9925   1.531   1.497   1.396  0.2845 -0.1649  1.0210
   14MOL    C20 9926   1.556   1.610   1.319  0.0007 -0.0562  0.3016
   14MOL    H21 9927   2.058   1.757   1.329 -1.6721  3.1224  1.7847
   14MOL    H22 9928   2.109   1.743   1.166  1.4373 -2.0227  2.6009
   14MOL    H23 9929   2.309   1.882   1.219 -0.4314  3.5136  1.0627
   14MOL    H24 9930   2.291   1.725   1.312  3.5580  1.9817 -0.3054
   14MOL    H25 9931   2.198   1.872   1.500 -1.3940 -0.6264 -1.1522
   14MOL    H26 9932   2.397   1.952   1.581 -0.1247 -0.9966  0.8989
   14MOL    H27 9933   2.467   1.974   1.415 -1.5156  1.2728 -0.6461
   14MOL    H28 9934   2.261   2.097   1.322 -1.1984  0.1026 -0.7481
   14MOL    H29 9935   2.212   2.115   1.487 -3.6250  0.4885  0.0262
   14MOL    H30 9936   2.006   1.994   1.434 -0.8830  0.6658 -0.0151
   14MOL    H31 9937   2.027   2.136   1.337  3.9621  1.4036 -0.3190
   14MOL    H32 9938   2.089   2.001   1.136 -0.8498 -1.1662 -0.3034
   14MOL    H33 9939   1.876   1.941   1.084  0.9035 -0.7462 -0.2786
   14MOL    H34 9940   1.847   2.048   1.210  1.0518  0.8271  0.3105
   14MOL    H35 9941   1.858   1.710   1.453  1.5021 -1.0183 -1.6635
   14MOL    H36 9942   1.796   1.515   1.605 -1.1241 -1.0893  0.5193
   14MOL    H37 9943   1.437   1.445   1.381 -1.1140  3.0990 -2.0776
   14MOL    H38 9944   1.481   1.642   1.248 -1.1896  1.6868  2.2805
   14MOL    H39 9945   2.458   1.816   1.486 -2.4924 -0.7690  0.5742
   14MOL    C40 9946   1.858   0.944   1.640 -0.0497  0.1179  0.1515
   14MOL    C41 9947   1.728   1.025   1.662  0.7156  0.0080  0.5572
   14MOL    C42 9948   1.749   1.112   1.781 -0.3104 -0.1134 -0.1655
   14MOL    C43 9949   1.635   1.219   1.797  0.5782  0.7678 -0.1182
   14MOL    C44 9950   1.762   1.029   1.912  0.4932 -0.1244  1.4055
   14MOL    C45 9951   1.887   0.940   1.891  0.0135  0.2902  0.1297
   14MOL    C46 9952   1.878   0.849   1.765  0.4747 -0.6689  0.9219
   14MOL    C47 9953   2.010   0.764   1.750 -0.4910 -0.5024 -0.0692
   14MOL    O48 9954   2.006   0.654   1.831 -0.1366  0.2320  0.1745
   14MOL    C49 9955   2.095   0.557   1.820  1.2553 -0.2062  0.1615
   14MOL    O50 9956   2.190   0.563   1.741 -0.0664  0.6193 -0.2828
   14MOL    C51 9957   2.062   0.438   1.899 -0.2086  0.8854 -0.4767
   14MOL    C52 9958   1.934   0.422   1.959 -0.2124  0.2729 -0.3807
   14MOL    C53 9959   1.911   0.308   2.043  0.4513 -0.3265  0.7512
   14MOL    C54 9960   2.000   0.199   2.050 -0.3926 -0.4006  0.0123
   14MOL    C55 9961   1.967   0.073   2.123 -0.7214 -0.1404 -0.5359
   14MOL    O56 9962   2.028   7.999   2.104  0.0432 -0.0135  0.0991
   14MOL    O57 9963   1.867   0.083   2.213  1.0491 -0.2158 -0.4607
   14MOL    C58 9964   2.128   0.215   1.983  0.3562 -0.2503  0.1114
   14MOL    C59 9965   2.156   0.337   1.910 -0.3853  0.2630  0.1058
   14MOL    H60 9966   1.945   1.009   1.629  0.4338 -0.6707 -0.7495
   14MOL    H61 9967   1.856   0.878   1.553  1.2843 -0.6109  0.6618
   14MOL    H62 9968   1.641   0.960   1.656 -0.5870  1.9425 -2.7694
   14MOL    H63 9969   1.712   1.081   1.570 -1.0162 -0.2484  0.6785
   14MOL    H64 9970   1.841   1.170   1.774 -0.2210  0.2959  3.4599
   14MOL    H65 9971   1.633   1.240   1.904 -2.1934  0.0130  0.0335
   14MOL    H66 9972   1.542   1.167   1.771  0.0262  1.2548  0.8585
   14MOL    H67 9973   1.678   0.962   1.929 -0.0457 -0.1313 -1.1755
   14MOL    H68 9974   1.779   1.101   1.991  0.8876  3.3336 -1.7124
   14MOL    H69 9975   1.970   1.008   1.873 -1.9515  2.2794 -1.7194
   14MOL    H70 9976   1.923   0.891   1.981  0.5496 -1.0894 -0.8307
   14MOL    H71 9977   1.800   0.774   1.774  1.4096 -2.2483 -3.1055
   14MOL    H72 9978   2.087   0.836   1.778 -3.5801  2.2982  1.5921
   14MOL    H73 9979   2.040   0.737   1.648  0.3372 -0.8519  0.2614
   14MOL    H74 9980   1.857   0.497   1.962  0.6551  1.3118 -2.6012
   14MOL    H75 9981   1.823   0.307   2.106 -0.2916 -0.9103 -0.2802
   14MOL    H76 9982   2.201   0.136   1.990  1.1932  0.6015  1.1480
   14MOL    H77 9983   2.258   0.342   1.875 -1.3410 -0.4669 -2.9334
   14MOL    C78 9984   1.597   0.109   2.579  0.7589  0.4316  0.4299
   14MOL    C79 9985   1.654   0.044   2.446 -0.3829  0.1077  0.1666
   14MOL    C80 9986   1.807   0.018   2.448  0.3388 -0.0714  0.2604
   14MOL    C81 9987   1.851   8.007   2.305 -0.3660  0.2062 -0.8346
   14MOL    C82 9988   1.882   0.133   2.498 -0.3045  0.6221 -0.1772
   14MOL    C83 9989   1.818   0.199   2.623 -0.1817 -0.1160 -0.1469
   14MOL    C84 9990   1.669   0.241   2.607 -0.4930  0.1172  0.0944
   14MOL    C85 9991   1.621   0.307   2.735 -0.0575  0.5085  0.6084
   14MOL    O86 9992   1.689   0.429   2.748 -0.1423  0.1601 -0.7609
   14MOL    C87 9993   1.793   0.440   2.833 -0.1014 -0.5193  0.3495
   14MOL    O88 9994   1.800   0.363   2.933  0.1455  0.0018 -0.2843
   14MOL    C89 9995   1.883   0.558   2.802 -0.3596 -0.3245 -0.4609
   14MOL    C90 9996   1.991   0.596   2.884  0.1279  0.6617 -0.2732
   14MOL    C91 9997   2.072   0.703   2.845  0.2594  0.3264 -0.1481
   14MOL    C92 9998   2.045   0.786   2.733  0.6453 -0.2050 -0.3708
   14MOL    C93 9999   2.131   0.900   2.701 -0.4866  0.5881  0.3964
   14MOL    O9410000   2.101   0.972   2.606 -0.1099 -0.3433 -0.7721
   14MOL    O9510001   2.242   0.907   2.783  0.2557 -0.1033  0.0934
   14MOL    C9610002   1.932   0.751   2.657  0.4644 -0.5310  0.3215
   14MOL    C9710003   1.855   0.637   2.686 -0.5675  0.2570  0.0796
   14MOL    H9810004   1.595   0.036   2.660 -3.0904 -0.7053 -0.5734
   14MOL    H9910005   1.489   0.116   2.564  0.7504 -1.9577 -1.0446
   14MOL   H10010006   1.642   0.111   2.362  0.1177 -1.1562 -0.9301
   14MOL   H10110007   1.605   7.985   2.411  0.2140 -1.1494  2.4400
   14MOL   H10210008   1.819   7.967   2.516  0.5004  0.0138  0.3334
   14MOL   H10310009   1.782   7.943   2.251 -2.2614  0.5420  1.1396
   14MOL   H10410010   1.935   7.938   2.298  0.3972  1.0403 -0.0765
   14MOL   H10510011   1.876   0.219   2.431 -0.8613  1.9364  1.5060
   14MOL   H10610012   1.985   0.102   2.517 -0.0672  0.5951 -1.4936
   14MOL   H10710013   1.828   0.114   2.689  0.2958 -0.4623 -0.6614
   14MOL   H10810014   1.875   0.283   2.663 -0.0278 -0.7399  0.9360
   14MOL   H10910015   1.658   0.326   2.540  3.2724  1.2328  0.7870
   14MOL   H11010016   1.623   0.242   2.822 -0.5110  0.7933  0.8337
   14MOL   H11110017   1.516   0.332   2.716 -0.1296 -0.9534 -1.1316
   14MOL   H11210018   2.011   0.548   2.978 -3.4735  1.4803  0.9964
   14MOL   H11310019   2.152   0.724   2.914  0.8981 -0.8292 -0.5349
   14MOL   H11410020   1.911   0.812   2.570 -0.5494 -2.2400 -0.6649
   14MOL   H11510021   1.785   0.605   2.610  1.2663 -0.2673 -1.4559
   14MOL   C11610022   2.454   1.338   2.900  0.3419  0.2770  0.1876
   14MOL   C11710023   2.444   1.217   2.808 -0.4948 -0.1042  0.0301
   14MOL   C11810024   2.327   1.124   2.836 -0.3203 -0.9979 -0.1159
   14MOL   C11910025   2.334   0.999   2.753 -0.0535  0.6280  0.2687
   14MOL   C12010026   2.319   1.090   2.987  0.0643 -0.3865 -0.3002
   14MOL   C12110027   2.313   1.216   3.072 -0.1569 -0.7278 -0.0170
   14MOL   C12210028   2.451   1.291   3.048 -0.1804  0.7684 -0.0694
   14MOL   C12310029   2.459   1.411   3.146  0.2714 -0.0234  0.0455
   14MOL   O12410030   2.486   1.369   3.274  1.1680  0.5841 -0.2835
   14MOL   C12510031   2.398   1.392   3.374  0.1530  0.4748 -0.4029
   14MOL   O12610032   2.312   1.481   3.363  0.2338  0.9040  0.0231
   14MOL   C12710033   2.419   1.303   3.494 -0.0591 -0.0495 -0.8313
   14MOL   C12810034   2.502   1.187   3.489 -0.0906 -0.0387  0.4241
   14MOL   C12910035   2.519   1.104   3.601 -0.2618  0.4095 -0.4062
   14MOL   C13010036   2.443   1.134   3.715  0.0467  0.8917 -0.1735
   14MOL   C13110037   2.441   1.040   3.827  0.0628 -0.2557 -0.2282
   14MOL   O13210038   2.386   1.054   3.938 -0.2569 -0.6748  0.9540
   14MOL   O13310039   2.502   0.926   3.795  0.5785  0.2394 -0.4884
   14MOL   C13410040   2.357   1.247   3.722 -0.7969  1.0558 -0.4286
   14MOL   C13510041   2.350   1.332   3.613 -0.4193 -0.5080  0.7099
   14MOL   H13610042   2.362   1.394   2.887  0.3758  0.5319  1.0134
   14MOL   H13710043   2.545   1.390   2.873  0.9945 -0.6392  0.5918
   14MOL   H13810044   2.539   1.164   2.814 -0.5971 -0.2789  0.1045
   14MOL   H13910045   2.429   1.262   2.710  1.2034  0.0765 -0.1700
   14MOL   H14010046   2.238   1.177   2.802  0.6465  0.5458 -0.2740
   14MOL   H14110047   2.426   0.949   2.785 -1.4506 -1.2417  1.4643
   14MOL   H14210048   2.340   1.022   2.647  0.0800  1.1291  0.3799
   14MOL   H14310049   2.407   1.032   3.015  0.4613  1.1436  1.7240
   14MOL   H14410050   2.228   1.035   3.009  0.7850 -0.7958  1.7624
   14MOL   H14510051   2.236   1.287   3.044  1.5197  0.0930 -2.7170
   14MOL   H14610052   2.300   1.191   3.177 -0.6300  0.6563  0.2538
   14MOL   H14710053   2.537   1.225   3.063  0.3551  1.0368 -1.8810
   14MOL   H14810054   2.360   1.455   3.132  0.0851 -1.2691 -2.8076
   14MOL   H14910055   2.530   1.486   3.112  0.9804 -0.2576  1.0048
   14MOL   H15010056   2.563   1.154   3.406  1.1678 -2.4888  2.2693
   14MOL   H15110057   2.577   1.013   3.603 -1.9424 -0.6559  1.0447
   14MOL   H15210058   2.291   1.261   3.806 -0.0730  0.6325  0.2159
   14MOL   H15310059   2.286   1.419   3.616  1.5872  1.0225  0.7632
   14MOL   C15410060   2.867   0.685   3.779 -0.4560  0.2437 -0.4863
   14MOL   C15510061   2.756   0.786   3.827 -0.2549 -0.5494 -0.3382
   14MOL   C15610062   2.621   0.716   3.848  0.1317  0.5928 -0.3495
   14MOL   C15710063   2.513   0.820   3.887  0.4886 -0.2443  0.2077
   14MOL   C15810064   2.581   0.633   3.730 -0.5389  0.4053  0.1222
   14MOL   C15910065   2.681   0.525   3.695  0.1549 -0.7723  0.5235
   14MOL   C16010066   2.820   0.590   3.662  0.4415 -0.0172  0.0755
   14MOL   C16110067   2.922   0.491   3.617  0.0214 -0.2443 -0.1471
   14MOL   O16210068   2.950   0.391   3.712  0.3519 -0.2844 -0.0384
   14MOL   C16310069   3.067   0.324   3.728 -0.8352 -0.1929 -0.7182
   14MOL   O16410070   3.167   0.353   3.666 -0.2348  0.4468  0.2692
   14MOL   C16510071   3.067   0.226   3.839 -0.1701 -0.1690  0.6037
   14MOL   C16610072   2.956   0.227   3.923 -0.4804 -0.1974 -0.2882
   14MOL   C16710073   2.963   0.145   4.038 -0.4535 -0.5239  0.6190
   14MOL   C16810074   3.069   0.056   4.061  0.0411 -0.0372  0.7271
   14MOL   C16910075   3.054   8.005   4.181  0.3441 -0.4065  0.5528
   14MOL   O17010076   2.973   8.032   4.266  0.5310 -0.0905 -0.4857
   14MOL   O17110077   3.147   7.909   4.185 -0.4311 -0.2944 -0.0973
   14MOL   C17210078   3.173   0.050   3.972  0.3240  0.3279  0.2775
   14MOL   C17310079   3.176   0.142   3.868 -0.5941 -0.4277 -0.0278
   14MOL   H17410080   2.898   0.628   3.866 -0.9134  1.3635  0.4265
   14MOL   H17510081   2.956   0.737   3.742  0.4016  0.3550  1.6791
   14MOL   H17610082   2.756   0.865   3.751  0.2791 -0.6411 -0.4336
   14MOL   H17710083   2.795   0.832   3.918 -2.0174 -0.4417  0.3893
   14MOL   H17810084   2.623   0.643   3.928  0.7477 -2.6894 -3.2450
   14MOL   H17910085   2.523   0.852   3.991  0.3189 -0.8922  0.4310
   14MOL   H18010086   2.418   0.765   3.891  0.8888 -1.2651 -3.3349
   14MOL   H18110087   2.562   0.694   3.642 -0.3614  0.8223  0.3734
   14MOL   H18210088   2.486   0.580   3.737 -1.6269  2.0170 -1.9807
   14MOL   H18310089   2.703   0.453   3.774  0.4505 -1.8614 -0.5404
   14MOL   H18410090   2.654   0.464   3.608  0.2345 -0.8309  0.5395
   14MOL   H18510091   2.807   0.651   3.573  2.1309 -1.9344 -1.5203
   14MOL   H18610092   3.013   0.546   3.595  2.0497 -3.1038  0.7246
   14MOL   H18710093   2.889   0.450   3.522 -0.4969  0.2027 -0.1580
   14MOL   H18810094   2.872   0.294   3.919  0.7747  1.4631  0.3457
   14MOL   H18910095   2.868   0.139   4.089 -1.4659 -0.2491 -1.2105
   14MOL   H19010096   3.258   8.015   3.980  1.3838  1.8449  1.8477
   14MOL   H19110097   3.268   0.147   3.811  1.5316 -0.9858  3.2069
   14MOL   C19210098   2.938   7.537   4.467 -0.0633 -0.2915  0.7596
   14MOL   C19310099   3.050   7.637   4.444  0.1800  0.5130 -0.0097
   14MOL   C19410100   3.043   7.718   4.313  0.4589  0.3176 -0.6677
   14MOL   C19510101   3.159   7.821   4.303 -0.3381 -0.0368  0.3690
   14MOL   C19610102   3.042   7.623   4.193 -0.4997  0.3806  0.4060
   14MOL   C19710103   2.926   7.520   4.219  0.5322  0.0133 -0.0182
   14MOL   C19810104   2.934   7.441   4.353  0.4634  0.4957  0.1755
   14MOL   C19910105   2.799   7.359   4.367 -0.7121  0.3290 -0.6218
   14MOL   O20010106   2.807   7.283   4.484  0.5722  0.3583  0.4663
   14MOL   C20110107   2.697   7.208   4.512  1.0473 -0.1397  0.0356
   14MOL   O20210108   2.600   7.194   4.443 -0.0723 -0.9778  0.5182
   14MOL   C20310109   2.704   7.145   4.650  0.5126 -0.1697  0.5821
   14MOL   C20410110   2.796   7.184   4.749 -0.7540 -0.8203 -1.2974
   14MOL   C20510111   2.804   7.115   4.867  0.2428 -0.3704 -0.3365
   14MOL   C20610112   2.719   7.004   4.897  0.2961  0.3089  0.4348
   14MOL   C20710113   2.725   6.920   5.023 -0.1150 -0.1268 -0.1150
   14MOL   O20810114   2.668   6.812   5.040  0.0039 -0.0522 -0.0499
   14MOL   O20910115   2.793   6.979   5.124 -0.0797 -0.3412 -0.3884
   14MOL   C21010116   2.625   6.963   4.797 -0.8059 -0.0743 -0.0818
   14MOL   C21110117   2.622   7.029   4.673 -0.3056  0.0302 -0.0520
   14MOL   H21210118   2.841   7.571   4.504  0.1499 -0.0616  1.1121
   14MOL   H21310119   2.976   7.491   4.559 -1.3446  0.0085  1.4563
   14MOL   H21410120   3.143   7.579   4.435  0.6239  1.4423 -1.7586
   14MOL   H21510121   3.054   7.689   4.539 -1.7021  2.7118 -1.0925
   14MOL   H21610122   2.951   7.776   4.328  0.9730  0.5523  1.8771
   14MOL   H21710123   3.256   7.771   4.295  0.2321  0.9310  1.1476
   14MOL   H21810124   3.166   7.885   4.390  0.9049 -0.9258  0.9413
   14MOL   H21910125   3.140   7.576   4.181 -0.9548 -0.1447 -1.5431
   14MOL   H22010126   3.007   7.685   4.110  1.2027  1.4819  0.4768
   14MOL   H22110127   2.828   7.567   4.211  0.6911  0.5483  1.1219
   14MOL   H22210128   2.925   7.444   4.140 -0.1059 -2.7989  2.6031
   14MOL   H22310129   3.012   7.365   4.364  0.0037 -0.0450 -0.2549
   14MOL   H22410130   2.777   7.298   4.280 -2.4565 -4.0053  2.6516
   14MOL   H22510131   2.720   7.433   4.382 -0.8560  0.0926 -0.2014
   14MOL   H22610132   2.862   7.268   4.735 -0.5652 -0.8657 -0.6815
   14MOL   H22710133   2.881   7.146   4.936 -0.1847 -1.0734  0.4682
   14MOL   H22810134   2.565   6.877   4.822 -2.1188  0.3823 -1.6227
   14MOL   H22910135   2.558   6.999   4.592 -1.6979  4.4334 -0.7242
   14MOL   C23010136   2.793   7.178   5.528 -0.0058 -0.3154 -0.6392
   14MOL   C23110137   2.736   7.094   5.411 -0.0273 -0.0245 -0.0464
   14MOL   C23210138   2.860   7.008   5.357 -0.0260 -0.5191  0.2649
   14MOL   C23310139   2.816   6.911   5.246  0.0058  0.5901  0.0941
   14MOL   C23410140   2.973   7.094   5.311  0.7413 -0.0848  0.6559
   14MOL   C23510141   3.032   7.183   5.424  0.4795 -0.6284 -0.2697
   14MOL   C23610142   2.913   7.270   5.485 -0.3507 -0.3757 -0.6507
   14MOL   C23710143   2.976   7.341   5.604  0.3035 -0.3301 -0.0953
   14MOL   O23810144   3.049   7.453   5.553  0.0887 -0.6646 -0.2198
   14MOL   C23910145   3.168   7.482   5.612  0.2783  0.3018  0.8604
   14MOL   O24010146   3.229   7.405   5.688  0.5916 -0.1113  0.1414
   14MOL   C24110147   3.226   7.618   5.568 -0.8894  0.1798  0.5543
   14MOL   C24210148   3.361   7.660   5.605 -0.5888  0.7005 -0.7727
   14MOL   C24310149   3.410   7.788   5.567 -0.2854  0.2832  0.4398
   14MOL   C24410150   3.319   7.880   5.509 -0.3420  0.4145  0.2924
   14MOL   C24510151   3.361   8.021   5.471  0.1530  0.3896  0.7528
   14MOL   O24610152   3.292   0.088   5.451 -0.0709  0.5436  0.5502
   14MOL   O24710153   3.493   8.012   5.445 -0.4191  0.1646  0.5233
   14MOL   C24810154   3.192   7.840   5.470  0.2656 -0.4884 -0.5283
   14MOL   C24910155   3.146   7.709   5.498  0.3514  0.1788 -0.2018
   14MOL   H25010156   2.818   7.115   5.613  1.1143  4.3628  2.6414
   14MOL   H25110157   2.718   7.245   5.569  1.8508  1.1510  0.4350
   14MOL   H25210158   2.686   7.161   5.342 -1.9043  1.0360  2.2554
   14MOL   H25310159   2.655   7.032   5.449  0.0523  0.4730  0.9684
   14MOL   H25410160   2.895   6.944   5.438  2.1894  0.7016  0.3281
   14MOL   H25510161   2.721   6.871   5.279  0.3537 -0.8135 -0.5455
   14MOL   H25610162   2.881   6.824   5.235  0.8262  0.9611  1.8025
   14MOL   H25710163   2.936   7.169   5.241  2.5943  0.2007 -0.0642
   14MOL   H25810164   3.054   7.034   5.267 -0.3279 -0.5254 -0.7640
   14MOL   H25910165   3.080   7.114   5.493  2.6254  1.1929  0.0895
   14MOL   H26010166   3.111   7.247   5.386  0.7663 -0.4225  0.6739
   14MOL   H26110167   2.875   7.349   5.420 -1.8513 -0.0071  0.6543
   14MOL   H26210168   3.032   7.267   5.661 -0.1358 -1.1852 -0.7563
   14MOL   H26310169   2.902   7.386   5.670 -1.1355 -1.7369 -0.7211
   14MOL   H26410170   3.427   7.587   5.650 -1.2027  1.2776  1.1030
   14MOL   H26510171   3.512   7.812   5.595 -0.2981  1.4474 -0.5091
   14MOL   H26610172   3.121   7.900   5.414 -1.8243 -2.5000 -0.1008
   14MOL   H26710173   3.053   7.685   5.449 -0.5862 -0.0122  1.6208
   14MOL   C26810174   3.785   0.309   5.645  0.0437  0.5290  0.2161
   14MOL   C26910175   3.690   0.282   5.530  0.1122 -0.1502 -0.0644
   14MOL   C27010176   3.656   0.136   5.533  0.1739  0.9891 -0.0455
   14MOL   C27110177   3.567   0.101   5.414 -0.2316 -0.1942  0.2841
   14MOL   C27210178   3.780   0.043   5.548 -0.8364 -0.0078  0.5000
   14MOL   C27310179   3.869   0.081   5.667  0.5961  0.1741  0.0230
   14MOL   C27410180   3.913   0.225   5.651  0.0009  0.4721 -0.3963
   14MOL   C27510181   4.013   0.268   5.764  0.5326 -0.2987  0.6160
   14MOL   O27610182   4.075   0.391   5.727  0.1825  0.1349  0.7970
   14MOL   C27710183   4.026   0.506   5.773 -0.4239  0.2321  0.0607
   14MOL   O27810184   3.941   0.518   5.861  0.3797 -0.7059 -0.1774
   14MOL   C27910185   4.120   0.612   5.727 -0.3260 -0.6378  0.5713
   14MOL   C28010186   4.181   0.604   5.598  0.1269  0.3636  0.7062
   14MOL   C28110187   4.298   0.678   5.567  0.2475  0.4763 -0.4137
   14MOL   C28210188   4.343   0.774   5.661  0.4567 -0.6932  0.2335
   14MOL   C28310189   4.452   0.866   5.612 -0.0338  0.7948  0.5740
   14MOL   O28410190   4.499   0.863   5.498  0.0801 -0.3116  0.2466
   14MOL   O28510191   4.502   0.946   5.715 -0.0969 -0.4317  0.8161
   14MOL   C28610192   4.283   0.789   5.786 -0.0251 -0.3111 -0.4452
   14MOL   C28710193   4.175   0.702   5.823 -0.3736  0.1205 -0.4857
   14MOL   H28810194   3.735   0.304   5.742 -0.6107 -2.8216 -0.2154
   14MOL   H28910195   3.816   0.413   5.637  0.2900  0.4079 -0.4348
   14MOL   H29010196   3.730   0.303   5.431  1.8275 -1.3219  0.3484
   14MOL   H29110197   3.599   0.342   5.528 -0.5025 -1.0687  0.1119
   14MOL   H29210198   3.597   0.123   5.623 -2.3063 -0.9879 -1.9112
   14MOL   H29310199   3.637   0.106   5.330 -2.8051 -0.5066 -1.9159
   14MOL   H29410200   3.502   0.182   5.382 -1.3832 -0.7562  1.1647
   14MOL   H29510201   3.840   0.048   5.457  1.3306  1.0062  1.9368
   14MOL   H29610202   3.744   7.973   5.554  1.3078 -0.8305  0.0026
   14MOL   H29710203   3.822   0.060   5.763  1.1600  0.2120  0.3146
   14MOL   H29810204   3.945   0.002   5.663  1.9177  1.4619 -0.4782
   14MOL   H29910205   3.958   0.237   5.552 -0.3921 -0.2032 -0.6625
   14MOL   H30010206   4.081   0.183   5.764  0.2993 -0.4891  0.9894
   14MOL   H30110207   3.961   0.263   5.860  0.3721  2.1636  0.6680
   14MOL   H30210208   4.140   0.533   5.527 -0.2242 -0.4680  1.7172
   14MOL   H30310209   4.341   0.662   5.469 -0.7833  0.1579 -0.8199
   14MOL   H30410210   4.319   0.866   5.854 -2.2012  0.4050 -0.0734
   14MOL   H30510211   4.115   0.713   5.913  0.6010  0.9318  0.0802
   14MOL   C30610212   4.671   1.239   6.043 -0.2532 -0.9115  0.4741
   14MOL   C30710213   4.616   1.190   5.903  0.1634 -0.5652  0.2070
   14MOL   C30810214   4.679   1.054   5.856 -0.1462 -0.3376 -0.4281
   14MOL   C30910215   4.632   1.010   5.715  0.3066  0.2642 -0.0695
   14MOL   C31010216   4.831   1.064   5.867 -0.4308 -0.5971  0.0681
   14MOL   C31110217   4.876   1.096   6.011 -0.4831  0.4581  0.1971
   14MOL   C31210218   4.825   1.218   6.073 -0.4012  0.2764 -0.2205
   14MOL   C31310219   4.849   1.229   6.231  0.4461  0.2895 -0.2814
   14MOL   O31410220   4.984   1.252   6.282 -0.5925 -0.5496 -0.1778
   14MOL   C31510221   5.072   1.151   6.312  0.3452 -0.0931 -0.3224
   14MOL   O31610222   5.034   1.032   6.308 -0.6151 -0.3346  0.0021
   14MOL   C31710223   5.201   1.204   6.356  0.3517 -0.2040 -1.1274
   14MOL   C31810224   5.309   1.115   6.352 -0.1626  0.0331  0.1882
   14MOL   C31910225   5.435   1.160   6.395  0.2810  0.2524  0.5621
   14MOL   C32010226   5.454   1.285   6.447  0.3531 -0.2157  0.2212
   14MOL   C32110227   5.584   1.338   6.506 -0.8674  0.3571  1.0794
   14MOL   O32210228   5.599   1.447   6.559 -0.1335  0.1043 -0.1351
   14MOL   O32310229   5.679   1.258   6.478  0.1375 -0.3299  0.0026
   14MOL   C32410230   5.340   1.373   6.459 -0.4414 -0.3765  0.0009
   14MOL   C32510231   5.212   1.332   6.414 -0.3269 -1.0625  0.2593
   14MOL   H32610232   4.615   1.190   6.123 -1.5684  1.8435  1.2766
   14MOL   H32710233   4.643   1.344   6.046 -0.0325 -0.8548  0.5816
   14MOL   H32810234   4.637   1.264   5.826  0.8461 -0.6314  0.3239
   14MOL   H32910235   4.508   1.178   5.903 -0.2397  2.7002 -1.1415
   14MOL   H33010236   4.657   0.968   5.918 -0.0532 -0.3286 -0.3827
   14MOL   H33110237   4.702   0.935   5.676  0.5769  0.5322 -0.1071
   14MOL   H33210238   4.630   1.090   5.641 -0.5181  0.6293  0.3439
   14MOL   H33310239   4.856   1.147   5.800  0.2112  0.2856  1.3639
   14MOL   H33410240   4.869   0.970   5.828  1.1677  0.2102 -0.3928
   14MOL   H33510241   4.858   1.003   6.067  1.1565 -0.3331 -0.5493
   14MOL   H33610242   4.984   1.110   6.016 -0.8959  4.1260  0.0942
   14MOL   H33710243   4.889   1.298   6.036  3.3299 -1.4310  2.2358
   14MOL   H33810244   4.802   1.141   6.274  1.3808 -1.2584 -2.3483
   14MOL   H33910245   4.799   1.317   6.274  0.4519 -0.1237  0.5761
   14MOL   H34010246   5.292   1.010   6.331 -0.5637  0.1792 -0.2203
   14MOL   H34110247   5.516   1.094   6.368 -0.9936 -1.5382  1.0467
   14MOL   H34210248   5.347   1.478   6.486  4.1060 -1.0260  1.7769
   14MOL   H34310249   5.133   1.405   6.403 -3.0275 -4.2031 -2.5064
   14MOL   C34410250   5.970   1.274   6.157 -0.8454  0.1877  0.7315
   14MOL   C34510251   5.887   1.226   6.272 -0.5807  0.4858 -0.1997
   14MOL   C34610252   5.891   1.325   6.385 -0.5067  0.0676 -0.1021
   14MOL   C34710253   5.815   1.282   6.507  0.2440  0.4300 -0.4762
   14MOL   C34810254   6.041   1.340   6.428 -0.2080  0.2751  0.3073
   14MOL   C34910255   6.126   1.391   6.308  0.3216  0.2307  0.8112
   14MOL   C35010256   6.118   1.301   6.187 -0.8546  0.3349  0.1158
   14MOL   C35110257   6.192   1.358   6.061  0.2462  0.4983  0.1223
   14MOL   O35210258   6.323   1.294   6.050  0.3787  0.4529 -0.2555
   14MOL   C35310259   6.416   1.346   5.967  0.1529 -0.1726 -0.5773
   14MOL   O35410260   6.416   1.460   5.928 -0.2058 -0.2405 -0.0973
   14MOL   C35510261   6.523   1.246   5.925  0.1873 -0.4021 -0.0982
   14MOL   C35610262   6.635   1.290   5.851 -0.0667 -0.5214 -0.1071
   14MOL   C35710263   6.736   1.200   5.826  0.1873 -0.0785  0.0990
   14MOL   C35810264   6.715   1.064   5.849 -0.4708 -1.1012 -0.3675
   14MOL   C35910265   6.808   0.954   5.799  0.2362 -0.2629  0.1655
   14MOL   O36010266   6.793   0.832   5.830 -0.3889 -0.0283 -0.7686
   14MOL   O36110267   6.899   1.000   5.709 -1.0306  0.1656 -0.6969
   14MOL   C36210268   6.605   1.017   5.924 -0.3711 -0.4571 -0.1415
   14MOL   C36310269   6.513   1.112   5.965 -0.4299 -0.3722 -0.3134
   14MOL   H36410270   5.921   1.366   6.125 -0.4584 -0.8843 -3.0694
   14MOL   H36510271   5.965   1.203   6.075 -0.7645  0.7196  0.2629
   14MOL   H36610272   5.916   1.127   6.306  0.7201  1.0046  0.2008
   14MOL   H36710273   5.788   1.216   6.227 -0.1695  0.8231 -1.1841
   14MOL   H36810274   5.850   1.420   6.350 -3.2076 -0.8950  0.2772
   14MOL   H36910275   5.834   1.367   6.574 -0.9055 -0.7182  1.3744
   14MOL   H37010276   5.858   1.201   6.567 -1.2998 -1.2739 -1.6394
   14MOL   H37110277   6.057   1.233   6.443 -0.6447  0.2290  0.4782
   14MOL   H37210278   6.042   1.405   6.515  2.5755 -1.3353  1.5265
   14MOL   H37310279   6.108   1.494   6.279 -1.4379 -0.4219 -0.4838
   14MOL   H37410280   6.230   1.385   6.341  0.7005 -1.8587 -0.6607
   14MOL   H37510281   6.149   1.200   6.211  0.3743  0.0525 -2.5013
   14MOL   H37610282   6.216   1.464   6.065  1.2194  0.2461  1.1143
   14MOL   H37710283   6.135   1.332   5.972  0.3109  0.9953 -0.0640
   14MOL   H37810284   6.661   1.395   5.838  1.4650 -0.8987 -0.1641
   14MOL   H37910285   6.823   1.225   5.767  1.6143 -0.2525  2.0741
   14MOL   H38010286   6.584   0.913   5.945  2.5743 -0.8347  1.1966
   14MOL   H38110287   6.426   1.075   6.017 -1.3875  0.8984 -0.9771
   14MOL   C38210288   7.055   0.974   5.240 -0.1682 -0.1325 -0.2681
   14MOL   C38310289   7.043   0.892   5.372  0.4157 -0.4931  0.0462
   14MOL   C38410290   7.003   0.984   5.493  0.1844  0.7531  0.0483
   14MOL   C38510291   6.965   0.910   5.623  0.5321 -0.8421  1.0268
   14MOL   C38610292   7.114   1.095   5.517  0.1250  0.5869  0.2590
   14MOL   C38710293   7.140   1.172   5.382  0.3730  0.5709  0.1504
   14MOL   C38810294   7.157   1.092   5.249 -0.7582  0.3408 -0.2005
   14MOL   C38910295   7.148   1.179   5.124 -0.6329  0.1090 -0.1767
   14MOL   O39010296   7.159   1.092   5.011  0.4644  0.5367  0.4603
   14MOL   C39110297   7.220   1.144   4.896 -0.1801 -0.5219  0.6449
   14MOL   O39210298   7.275   1.255   4.891 -0.4869 -0.3498 -0.0151
   14MOL   C39310299   7.214   1.055   4.780  0.7550  0.7716 -0.2344
   14MOL   C39410300   7.149   0.931   4.790  0.6015  0.3474  0.3363
   14MOL   C39510301   7.141   0.842   4.680  0.9417  0.0272 -0.9069
   14MOL   C39610302   7.203   0.868   4.557 -0.5387 -0.9490  0.8342
   14MOL   C39710303   7.202   0.765   4.443 -0.2083 -0.5684 -1.1293
   14MOL   O39810304   7.231   0.786   4.320 -0.4241 -0.1802 -0.2804
   14MOL   O39910305   7.165   0.637   4.490  0.0957 -0.0465 -0.6674
   14MOL   C40010306   7.276   0.990   4.551 -0.2323  0.5652  0.3680
   14MOL   C40110307   7.276   1.083   4.655  0.4193 -0.7843 -0.6573
   14MOL   H40210308   6.959   1.010   5.201 -1.2843 -2.1796  0.5190
   14MOL   H40310309   7.088   0.909   5.159  1.8648  0.4482  0.0759
   14MOL   H40410310   7.148   0.866   5.385  0.3602 -1.3337 -1.0373
   14MOL   H40510311   6.975   0.809   5.354  1.0759 -0.8761 -0.7461
   14MOL   H40610312   6.910   1.033   5.463 -1.2706 -0.8113  1.8116
   14MOL   H40710313   7.058   0.889   5.675  1.8809 -0.0162 -0.9667
   14MOL   H40810314   6.919   0.813   5.605 -0.3341 -0.4513  1.1034
   14MOL   H40910315   7.208   1.052   5.553  0.9200  1.1835 -1.0534
   14MOL   H41010316   7.084   1.172   5.588 -1.2572  0.0304  0.2932
   14MOL   H41110317   7.058   1.241   5.361  1.2557  1.2828 -1.0432
   14MOL   H41210318   7.229   1.236   5.385  0.9189 -0.1744 -0.1336
   14MOL   H41310319   7.255   1.044   5.253 -0.6425  0.7136  2.2207
   14MOL   H41410320   7.238   1.239   5.133 -0.4335 -0.2003 -0.0975
   14MOL   H41510321   7.064   1.247   5.113  0.1465  1.3309  1.3161
   14MOL   H41610322   7.110   0.897   4.884  1.0707 -0.9636  0.0732
   14MOL   H41710323   7.088   0.748   4.687 -0.9573  1.0515 -1.2080
   14MOL   H41810324   7.330   1.007   4.459  0.9422 -0.2488  0.8923
   14MOL   H41910325   7.322   1.180   4.647 -0.4607 -0.3330 -0.2381
   14MOL   C42010326   7.040   0.163   4.517  0.1624 -0.7181  0.5744
   14MOL   C42110327   7.103   0.277   4.423 -0.2472 -0.2836 -0.2309
   14MOL   C42210328   7.082   0.425   4.475  0.4628 -0.0290 -0.3761
   14MOL   C42310329   7.138   0.535   4.395 -0.2198  0.1823 -0.0070
   14MOL   C42410330   6.934   0.446   4.507  0.4436  0.0320 -0.5092
   14MOL   C42510331   6.883   0.342   4.609 -0.0316 -0.8389 -0.2548
   14MOL   C42610332   6.899   0.206   4.548  0.7553  0.1021 -0.4679
   14MOL   C42710333   6.829   0.102   4.639 -0.3837 -0.2738 -0.4397
   14MOL   O42810334   6.691   0.123   4.629 -0.5763 -0.2161 -0.5291
   14MOL   C42910335   6.595   0.033   4.674  0.0980 -0.7812  0.8038
   14MOL   O43010336   6.610   7.954   4.729 -0.1808 -0.7751 -0.0210
   14MOL   C43110337   6.462   0.082   4.643 -0.2313  0.5221  0.2666
   14MOL   C43210338   6.343   0.014   4.675  0.1406 -0.3851  0.1807
   14MOL   C43310339   6.212   0.059   4.652 -0.1185 -0.2724  0.1782
   14MOL   C43410340   6.189   0.177   4.576  0.1610 -0.5385  0.3375
   14MOL   C43510341   6.060   0.225   4.532  0.6246 -0.0000 -0.1407
   14MOL   O43610342   6.036   0.337   4.471 -0.0805  0.2021 -0.2139
   14MOL   O43710343   5.967   0.132   4.542 -0.4369 -0.0617  0.0330
   14MOL   C43810344   6.303   0.250   4.535  0.3508 -0.7063  0.7586
   14MOL   C43910345   6.432   0.198   4.562 -0.0982 -0.1142 -0.3699
   14MOL   H44010346   7.093   0.163   4.613 -0.0928 -4.0068  0.7681
   14MOL   H44110347   7.046   0.063   4.475  1.9656 -0.2757 -0.3015
   14MOL   H44210348   7.042   0.277   4.332 -0.1151  0.7326 -0.3179
   14MOL   H44310349   7.208   0.248   4.417  0.1086  1.2515 -1.5770
   14MOL   H44410350   7.145   0.417   4.564 -1.0490 -0.5057  0.6690
   14MOL   H44510351   7.059   0.566   4.327 -0.4233  0.5082  0.3733
   14MOL   H44610352   7.232   0.494   4.357  0.0006 -1.8018  2.5407
   14MOL   H44710353   6.877   0.435   4.414 -0.2750 -1.2688  0.0723
   14MOL   H44810354   6.907   0.547   4.538 -2.8783 -0.4828 -1.5076
   14MOL   H44910355   6.925   0.344   4.709 -1.6853 -0.4759  0.4467
   14MOL   H45010356   6.779   0.369   4.630  0.0752 -0.1479 -0.5835
   14MOL   H45110357   6.840   0.191   4.458  0.3557  0.1224 -0.2146
   14MOL   H45210358   6.855   0.130   4.741 -2.6522 -2.0041  0.6559
   14MOL   H45310359   6.864   0.001   4.619 -0.8572 -0.0128 -2.6642
   14MOL   H45410360   6.343   7.957   4.737 -1.5307  0.5070  1.5040
   14MOL   H45510361   6.137   0.002   4.705  0.0827 -1.0282 -0.3368
   14MOL   H45610362   6.293   0.338   4.473  1.3364 -0.1939  1.3098
   14MOL   H45710363   6.516   0.249   4.518 -1.3639  0.3791 -2.2804
   14MOL   C45810364   5.660   7.851   4.581 -0.7508 -0.2448 -0.9311
   14MOL   C45910365   5.756   7.968   4.602  0.4654 -0.4105  0.4908
   14MOL   C46010366   5.749   0.029   4.478 -0.1618 -0.1563 -0.0041
   14MOL   C46110367   5.826   0.168   4.512  0.0753  0.9247  0.2290
   14MOL   C46210368   5.792   7.987   4.347  0.2456  0.5988  0.5035
   14MOL   C46310369   5.695   7.873   4.324  0.1039 -0.5420  0.1271
   14MOL   C46410370   5.678   7.779   4.447 -0.1082 -0.8487 -0.1678
   14MOL   C46510371   5.568   7.676   4.421 -0.0398 -0.9762  0.3416
   14MOL   O46610372   5.551   7.581   4.527 -0.4447  0.4249 -0.2988
   14MOL   C46710373   5.553   7.449   4.499 -0.1435 -0.0616  0.8373
   14MOL   O46810374   5.550   7.396   4.390  0.0584 -0.1793  0.4246
   14MOL   C46910375   5.575   7.377   4.622  0.1643  0.4622  0.0193
   14MOL   C47010376   5.601   7.236   4.610  0.2842 -0.1306 -0.3500
   14MOL   C47110377   5.617   7.156   4.724  0.2366  0.1615 -1.1674
   14MOL   C47210378   5.624   7.215   4.855  0.3723  0.3329 -0.2682
   14MOL   C47310379   5.648   7.131   4.972  0.5198 -0.1094 -0.4868
   14MOL   O47410380   5.679   7.014   4.964 -0.2860 -0.0617 -0.2531
   14MOL   O47510381   5.607   7.186   5.094 -0.1835  0.3109  0.4664
   14MOL   C47610382   5.607   7.356   4.870 -0.0748  0.0744 -0.9104
   14MOL   C47710383   5.576   7.430   4.756 -0.7735 -0.0720  0.4231
   14MOL   H47810384   5.556   7.875   4.605 -1.4750 -2.8518 -1.2615
   14MOL   H47910385   5.679   7.775   4.657  0.3264 -0.9725 -1.9133
   14MOL   H48010386   5.857   7.929   4.614  0.6254 -0.6724 -1.4572
   14MOL   H48110387   5.728   8.017   4.695 -0.0028 -1.8943  1.1367
   14MOL   H48210388   5.642   0.046   4.483  0.0072  0.6211  1.0585
   14MOL   H48310389   5.784   0.221   4.597  0.5701  0.4801  0.7483
   14MOL   H48410390   5.813   0.233   4.424  0.5831  0.8958  0.1306
   14MOL   H48510391   5.893   7.947   4.355 -1.0091 -2.5710  1.1397
   14MOL   H48610392   5.797   0.026   4.265 -0.7770 -0.2282 -0.2736
   14MOL   H48710393   5.603   7.916   4.285  0.4900 -0.2674 -0.4767
   14MOL   H48810394   5.732   7.812   4.242  1.2673 -0.0865  0.3092
   14MOL   H48910395   5.773   7.725   4.445  1.0695  1.1775 -0.3107
   14MOL   H49010396   5.588   7.625   4.327 -0.0152 -1.2109  0.4750
   14MOL   H49110397   5.479   7.735   4.396  0.0025 -1.2603 -0.4912
   14MOL   H49210398   5.594   7.180   4.518  0.9339  1.4425 -1.3752
   14MOL   H49310399   5.630   7.049   4.717  1.2118  0.1965  0.0865
   14MOL   H49410400   5.612   7.401   4.968  0.9684 -4.0140  1.0360
   14MOL   H49510401   5.541   7.530   4.774  0.5840  0.1264  2.0400
   14MOL   C49610402   5.589   7.383   5.481  0.1524  0.8149 -0.3940
   14MOL   C49710403   5.643   7.312   5.358  0.4365  0.1711  0.6439
   14MOL   C49810404   5.570   7.181   5.333  0.3085  0.4611  0.6123
   14MOL   C49910405   5.620   7.105   5.212  0.7630  0.8929  0.4316
   14MOL   C50010406   5.581   7.094   5.460  0.4557  0.0945 -0.8809
   14MOL   C50110407   5.531   7.169   5.586  0.2651 -0.4095 -0.5412
   14MOL   C50210408   5.602   7.301   5.613  0.2786 -0.0185  0.0263
   14MOL   C50310409   5.547   7.385   5.728 -0.4035 -0.0465 -0.2936
   14MOL   O50410410   5.574   7.308   5.839  0.2375  0.2484  0.1522
   14MOL   C50510411   5.492   7.311   5.938  0.4693  0.2667  0.1000
   14MOL   O50610412   5.405   7.400   5.957 -0.0368 -0.2465  0.1796
   14MOL   C50710413   5.528   7.204   6.033 -0.0712  0.1186  0.2272
   14MOL   C50810414   5.642   7.114   6.018  0.3180 -0.3790 -0.0537
   14MOL   C50910415   5.675   7.027   6.120  0.3185  0.4088 -0.0781
   14MOL   C51010416   5.592   7.006   6.232 -0.8949 -0.4733 -0.1612
   14MOL   C51110417   5.628   6.905   6.336  0.5265  0.3520 -0.5603
   14MOL   O51210418   5.562   6.885   6.439 -0.2117  0.2484  0.4147
   14MOL   O51310419   5.726   6.824   6.304  0.1204 -0.1971  0.2777
   14MOL   C51410420   5.485   7.093   6.244 -0.5757 -0.1380 -1.0726
   14MOL   C51510421   5.453   7.191   6.152 -0.4905 -0.2019  0.0590
   14MOL   H51610422   5.483   7.406   5.474 -0.7870 -2.7893  0.4481
   14MOL   H51710423   5.641   7.478   5.482 -1.4145  1.6851 -0.1491
   14MOL   H51810424   5.751   7.303   5.359  0.4453  0.0927 -0.6134
   14MOL   H51910425   5.631   7.376   5.271  1.2241  0.3710  0.6809
   14MOL   H52010426   5.465   7.207   5.318 -0.0672 -0.4907  1.5309
   14MOL   H52110427   5.562   7.014   5.198  1.1878  0.5739  0.7129
   14MOL   H52210428   5.721   7.070   5.232  0.5118  1.2207  2.3119
   14MOL   H52310429   5.685   7.062   5.462  0.1221 -1.0372 -1.2148
   14MOL   H52410430   5.513   7.010   5.448 -0.1823  0.4663  0.0869
   14MOL   H52510431   5.427   7.199   5.577  0.3474 -0.2297 -0.8932
   14MOL   H52610432   5.545   7.098   5.668 -2.5163 -0.8740 -0.4369
   14MOL   H52710433   5.707   7.288   5.638  0.0038  2.1708  2.4799
   14MOL   H52810434   5.439   7.396   5.715 -0.3298  0.7541 -0.2932
   14MOL   H52910435   5.584   7.487   5.745  1.1648 -0.8862  1.4333
   14MOL   H53010436   5.704   7.127   5.930  1.0635 -0.5810  0.4350
   14MOL   H53110437   5.763   6.964   6.122  1.7321  2.3479  2.5627
   14MOL   H53210438   5.409   7.081   6.320  0.5106 -1.6488 -0.1929
   14MOL   H53310439   5.379   7.263   6.181 -2.2121 -1.1837 -1.7280
   14MOL   C53410440   5.895   6.500   6.066  0.7758 -0.4534 -0.3548
   14MOL   C53510441   5.889   6.616   6.168 -0.5486 -0.9637 -0.8723
   14MOL   C53610442   5.777   6.591   6.271 -0.1585 -0.2537 -0.4113
   14MOL   C53710443   5.756   6.706   6.376  0.4312  0.1845  0.3536
   14MOL   C53810444   5.636   6.557   6.205 -0.1317 -0.3177 -0.4056
   14MOL   C53910445   5.639   6.457   6.099 -0.8066 -0.4123  0.0638
   14MOL   C54010446   5.755   6.483   5.999  0.3410  0.4991 -0.0804
   14MOL   C54110447   5.758   6.377   5.890  0.1823  0.1093 -0.4102
   14MOL   O54210448   5.635   6.353   5.830 -0.3674 -0.2474  0.4915
   14MOL   C54310449   5.636   6.305   5.703  0.2530  0.0945  0.3654
   14MOL   O54410450   5.732   6.265   5.645 -0.4646  0.2587 -0.5813
   14MOL   C54510451   5.497   6.292   5.647 -0.3428  0.4974  0.3483
   14MOL   C54610452   5.471   6.214   5.536  0.5330 -0.8147 -0.3573
   14MOL   C54710453   5.335   6.192   5.497 -0.6248  0.3707 -0.5871
   14MOL   C54810454   5.223   6.245   5.571  0.0227 -0.7707  0.4582
   14MOL   C54910455   5.080   6.216   5.537  0.0057  0.7566  0.3325
   14MOL   O55010456   4.990   6.300   5.557  0.3358 -0.3045 -0.3098
   14MOL   O55110457   5.060   6.093   5.486  0.0176  0.1036  0.3778
   14MOL   C55210458   5.254   6.336   5.671 -0.0090 -0.6060  0.1467
   14MOL   C55310459   5.390   6.362   5.708  0.3855 -0.1452 -0.1483
   14MOL   H55410460   5.923   6.407   6.115  0.4139 -0.1469  0.4407
   14MOL   H55510461   5.982   6.522   6.004 -0.1427  1.1046 -1.1039
   14MOL   H55610462   5.850   6.708   6.124 -3.6980 -1.3504  0.8975
   14MOL   H55710463   5.967   6.644   6.238 -2.3314  1.3278  0.2791
   14MOL   H55810464   5.814   6.502   6.323  0.0569 -0.1149 -0.3256
   14MOL   H55910465   5.846   6.721   6.435 -0.2731  2.2185  0.9531
   14MOL   H56010466   5.682   6.680   6.452 -1.1081  0.7556 -0.8994
   14MOL   H56110467   5.617   6.645   6.143 -0.7338  0.2681  0.5884
   14MOL   H56210468   5.562   6.552   6.285  0.4013 -0.1234  0.1076
   14MOL   H56310469   5.649   6.356   6.140  1.7452 -0.2598 -0.1206
   14MOL   H56410470   5.544   6.454   6.047 -1.0252  1.0057  0.3804
   14MOL   H56510471   5.732   6.573   5.943  1.3188 -0.3950 -1.9709
   14MOL   H56610472   5.788   6.282   5.934 -0.7952 -0.3673 -0.7571
   14MOL   H56710473   5.839   6.397   5.820  1.7452  3.2079  2.1485
   14MOL   H56810474   5.549   6.151   5.496  1.6779  0.7860 -0.6838
   14MOL   H56910475   5.306   6.133   5.412 -1.1975 -0.3727  0.1107
   14MOL   H57010476   5.182   6.390   5.731  1.3973  0.6737  0.7325
   14MOL   H57110477   5.411   6.433   5.786  0.0587 -0.0768 -0.1211
   14MOL   C57210478   4.845   5.807   5.158  0.2892 -0.2426  0.1594
   14MOL   C57310479   4.822   5.913   5.262  0.3213 -0.5398 -0.1808
   14MOL   C57410480   4.957   5.952   5.326 -0.4755  0.4116  0.2335
   14MOL   C57510481   4.939   6.057   5.431  0.6233  0.0471 -0.0816
   14MOL   C57610482   5.024   5.823   5.381 -0.3284 -0.2950 -0.2095
   14MOL   C57710483   5.052   5.711   5.279  0.2169  0.3932  0.6937
   14MOL   C57810484   4.915   5.675   5.217 -0.1919 -0.4982 -0.2262
   14MOL   C57910485   4.920   5.551   5.118 -0.2434 -0.0626  0.2894
   14MOL   O58010486   4.954   5.609   4.994  0.1390  0.2793  0.0630
   14MOL   C58110487   5.024   5.547   4.897 -0.3310  0.0164  0.3030
   14MOL   O58210488   5.093   5.448   4.919 -0.1910 -0.2099  0.4493
   14MOL   C58310489   5.000   5.608   4.757  0.6171  0.8191 -0.8127
   14MOL   C58410490   4.912   5.717   4.742  0.0854 -0.1757  0.8338
   14MOL   C58510491   4.878   5.759   4.610 -0.1036 -0.1001  0.3796
   14MOL   C58610492   4.931   5.698   4.494 -0.7567 -0.0880 -0.2111
   14MOL   C58710493   4.887   5.736   4.364  0.6938 -0.5612  0.4048
   14MOL   O58810494   4.940   5.699   4.262  0.5416  0.5541 -0.6072
   14MOL   O58910495   4.781   5.823   4.371  0.0805 -0.3101  0.1733
   14MOL   C59010496   5.022   5.590   4.512  0.2162 -0.5872  0.2630
   14MOL   C59110497   5.050   5.540   4.643 -0.2711 -0.5433 -0.1901
   14MOL   H59210498   4.917   5.853   5.090 -1.0485 -0.0839 -1.1754
   14MOL   H59310499   4.753   5.787   5.102  2.1377 -0.0436 -3.0321
   14MOL   H59410500   4.746   5.875   5.330 -1.1478  1.4928 -0.6232
   14MOL   H59510501   4.777   6.002   5.218  0.2095 -0.7987 -0.5967
   14MOL   H59610502   5.021   5.986   5.244 -0.5870  0.2731  0.0890
   14MOL   H59710503   4.859   6.024   5.498 -2.9805 -0.1313 -4.2169
   14MOL   H59810504   4.902   6.137   5.366  0.1621  0.5192  0.7521
   14MOL   H59910505   4.956   5.789   5.459 -1.0552  2.2454  0.2974
   14MOL   H60010506   5.116   5.846   5.435  0.1899 -1.3590 -0.6208
   14MOL   H60110507   5.127   5.741   5.206 -0.3289 -0.3604 -0.1856
   14MOL   H60210508   5.092   5.624   5.332 -0.6503 -0.7303 -0.4481
   14MOL   H60310509   4.856   5.642   5.302 -0.0172 -1.1388 -0.3553
   14MOL   H60410510   4.821   5.507   5.104 -0.6479  0.8328  0.3040
   14MOL   H60510511   4.994   5.476   5.146 -0.9917 -0.5526  1.0138
   14MOL   H60610512   4.869   5.764   4.830 -2.3689  0.8116 -0.8218
   14MOL   H60710513   4.812   5.844   4.611  0.7277  0.6075 -1.7081
   14MOL   H60810514   5.049   5.541   4.420 -0.5832 -0.5992  0.0234
   14MOL   H60910515   5.113   5.452   4.651 -3.1311 -2.7717 -1.5284
   14MOL   C61010516   4.543   6.217   4.216  0.6357  0.3279 -0.0207
   14MOL   C61110517   4.576   6.071   4.194 -0.4660  0.0509  0.7449
   14MOL   C61210518   4.686   6.023   4.287 -0.3353 -0.0053  0.4464
   14MOL   C61310519   4.716   5.872   4.253 -0.1972  0.3817  0.7588
   14MOL   C61410520   4.813   6.114   4.279 -0.4362 -0.0378  0.4078
   14MOL   C61510521   4.777   6.260   4.307 -0.3153 -0.6188  0.0083
   14MOL   C61610522   4.666   6.311   4.210 -0.0329 -0.0018  0.1555
   14MOL   C61710523   4.643   6.463   4.231  0.3348 -0.6674 -0.1811
   14MOL   O61810524   4.520   6.512   4.187 -0.0665  0.2110  0.8621
   14MOL   C61910525   4.492   6.511   4.053 -0.4625  0.4327 -0.7236
   14MOL   O62010526   4.551   6.441   3.969  0.6836 -0.0459  0.2803
   14MOL   C62110527   4.375   6.592   4.020 -0.2173 -0.3678 -0.2440
   14MOL   C62210528   4.342   6.608   3.883  0.1854  1.3961 -0.2087
   14MOL   C62310529   4.229   6.686   3.847 -0.6691 -0.5516  0.6389
   14MOL   C62410530   4.155   6.759   3.950  0.3146  0.0924  0.1673
   14MOL   C62510531   4.043   6.847   3.917  0.0247 -0.4691  0.9794
   14MOL   O62610532   3.982   6.844   3.816  0.3084  0.0256  0.0627
   14MOL   O62710533   4.016   6.928   4.025  0.3294  0.0566  0.5263
   14MOL   C62810534   4.195   6.738   4.085  0.1304 -0.8600  0.1532
   14MOL   C62910535   4.300   6.653   4.119  0.4092  0.3543  0.2606
   14MOL   H63010536   4.495   6.229   4.313  1.7431  0.4607  0.5228
   14MOL   H63110537   4.466   6.250   4.146 -1.5921 -0.8947  1.7974
   14MOL   H63210538   4.617   6.058   4.094  0.0590  0.1833  0.9401
   14MOL   H63310539   4.496   5.996   4.193  0.1085 -0.5471 -1.1851
   14MOL   H63410540   4.648   6.029   4.390 -1.1695  0.3442  0.1216
   14MOL   H63510541   4.780   5.861   4.165 -1.0243 -0.5487  0.2565
   14MOL   H63610542   4.619   5.823   4.241  0.8674 -1.5000 -0.3489
   14MOL   H63710543   4.849   6.109   4.177  0.4774  2.7838  0.5261
   14MOL   H63810544   4.885   6.076   4.353 -0.0949  2.0791  1.2067
   14MOL   H63910545   4.734   6.269   4.406  0.7410  1.4617  0.2948
   14MOL   H64010546   4.857   6.333   4.297  1.2609 -2.1994  0.7026
   14MOL   H64110547   4.712   6.301   4.112  0.9304 -1.6290  0.7435
   14MOL   H64210548   4.723   6.516   4.180  1.7144 -2.0878  0.4561
   14MOL   H64310549   4.642   6.493   4.336  0.2520 -1.0889 -0.0610
   14MOL   H64410550   4.404   6.560   3.809  0.0739  0.0619  0.5412
   14MOL   H64510551   4.192   6.689   3.746 -0.4979 -3.0089  0.4700
   14MOL   H64610552   4.145   6.791   4.164  1.9585  1.6969 -0.3532
   14MOL   H64710553   4.335   6.644   4.221  0.9640 -2.5311 -0.1491
   14MOL   C64810554   4.029   7.172   4.376  0.4365 -0.3362 -0.2050
   14MOL   C64910555   3.992   7.059   4.269  1.0059  0.0831 -0.5549
   14MOL   C65010556   3.939   7.119   4.141 -0.0080  0.0093 -0.0017
   14MOL   C65110557   3.905   7.015   4.041 -0.4305 -0.3327 -0.0641
   14MOL   C65210558   3.826   7.213   4.178  0.3986  0.5891  0.7525
   14MOL   C65310559   3.857   7.325   4.280 -0.5255  0.7292  0.1084
   14MOL   C65410560   3.912   7.270   4.407 -0.5549 -0.0989 -0.4033
   14MOL   C65510561   3.940   7.393   4.492 -0.6400  0.4658 -0.1671
   14MOL   O65610562   3.823   7.461   4.530  0.1136 -0.0906 -0.5772
   14MOL   C65710563   3.823   7.602   4.527  0.0426 -0.2262  0.0966
   14MOL   O65810564   3.896   7.665   4.453 -0.0261 -0.0517  0.0217
   14MOL   C65910565   3.701   7.655   4.597 -0.1384  0.6508 -0.0308
   14MOL   C66010566   3.620   7.744   4.531 -0.4824  0.1369  0.7214
   14MOL   C66110567   3.504   7.790   4.593 -0.0682  0.2285  0.4628
   14MOL   C66210568   3.466   7.734   4.718 -0.0216 -0.3969 -0.6117
   14MOL   C66310569   3.333   7.767   4.765  0.1151 -0.5085  0.1281
   14MOL   O66410570   3.238   7.793   4.690 -0.0904 -0.3139  0.4336
   14MOL   O66510571   3.314   7.748   4.903 -0.1010  0.3006  0.5768
   14MOL   C66610572   3.542   7.638   4.786  0.2142 -0.0163 -0.7437
   14MOL   C66710573   3.669   7.602   4.724 -0.4398 -0.1804 -0.1398
   14MOL   H66810574   4.097   7.243   4.330  1.7411 -0.2321  1.8250
   14MOL   H66910575   4.087   7.144   4.464  0.4369 -1.4532 -0.5583
   14MOL   H67010576   3.923   6.993   4.322  1.3469  1.0337  1.1360
   14MOL   H67110577   4.080   6.997   4.256  0.4954 -0.7551 -0.0433
   14MOL   H67210578   4.022   7.170   4.093  1.5315  0.9472  3.4607
   14MOL   H67310579   3.872   7.067   3.951  0.0753  0.8174  0.4115
   14MOL   H67410580   3.819   6.959   4.078 -0.8551 -0.6369 -1.4759
   14MOL   H67510581   3.740   7.158   4.217  0.0325  0.8539  0.3313
   14MOL   H67610582   3.791   7.261   4.087  0.3195 -1.3279 -0.2621
   14MOL   H67710583   3.920   7.403   4.237 -0.3519 -0.0679 -1.1204
   14MOL   H67810584   3.762   7.373   4.302 -0.8781 -0.1418  0.5159
   14MOL   H67910585   3.838   7.215   4.467 -2.4343  0.9225 -1.7160
   14MOL   H68010586   3.995   7.459   4.425 -0.3138 -0.2161 -0.5801
   14MOL   H68110587   4.002   7.364   4.576  0.0492 -2.7776 -1.6869
   14MOL   H68210588   3.650   7.784   4.436 -0.0816 -0.5232  0.5704
   14MOL   H68310589   3.443   7.866   4.547  0.8886  1.6486  1.4637
   14MOL   H68410590   3.509   7.602   4.883 -0.0531 -0.6907 -1.0803
   14MOL   H68510591   3.743   7.544   4.777 -1.6168 -0.9824  0.6637
   14MOL   C68610592   3.278   0.103   5.093 -0.4012  0.7867  0.2346
   14MOL   C68710593   3.279   7.987   5.081  0.2511 -0.5494  0.3742
   14MOL   C68810594   3.168   7.937   4.989 -0.0197  0.9611  0.1133
   14MOL   C68910595   3.189   7.780   4.968  0.3799 -0.2390 -0.1673
   14MOL   C69010596   3.033   7.977   5.049  0.0256  0.1133 -0.6499
   14MOL   C69110597   3.023   0.100   5.053  0.0200 -1.0218 -0.9125
   14MOL   C69210598   3.137   0.160   5.137 -0.1710 -0.2915  0.1024
   14MOL   C69310599   3.142   0.310   5.150  0.4595 -0.2288  0.5420
   14MOL   O69410600   3.219   0.362   5.264 -0.0577 -0.1869  0.1248
   14MOL   C69510601   3.341   0.406   5.244 -0.4490 -0.0242  0.3341
   14MOL   O69610602   3.398   0.418   5.134  0.0970  0.0318  0.3239
   14MOL   C69710603   3.394   0.465   5.366 -0.7013  0.2665  0.0370
   14MOL   C69810604   3.509   0.546   5.357  0.4655 -0.3430  0.3774
   14MOL   C69910605   3.562   0.616   5.465  0.2501  0.4552 -0.2428
   14MOL   C70010606   3.510   0.595   5.593 -0.2983  0.4508  0.1018
   14MOL   C70110607   3.571   0.650   5.720 -0.2864 -0.7110  0.2122
   14MOL   O70210608   3.542   0.616   5.829  0.2622 -0.4477  0.8522
   14MOL   O70310609   3.679   0.730   5.692 -0.0746  0.0375 -0.4238
   14MOL   C70410610   3.399   0.515   5.609 -0.4482  0.3097  0.7470
   14MOL   C70510611   3.336   0.451   5.496  0.5453 -0.4290  0.5264
   14MOL   H70610612   3.287   0.138   4.990  1.3227  0.2187  0.1771
   14MOL   H70710613   3.357   0.146   5.153 -0.9887  1.2927  0.6506
   14MOL   H70810614   3.284   7.939   5.179 -0.3633  2.9024  2.2190
   14MOL   H70910615   3.377   7.961   5.042  0.2955  0.8594 -0.4799
   14MOL   H71010616   3.174   7.990   4.894 -0.8657 -0.7482 -0.9211
   14MOL   H71110617   3.107   7.749   4.904 -0.2395 -1.2707  1.1052
   14MOL   H71210618   3.162   7.722   5.056 -0.4797  1.2751  0.6063
   14MOL   H71310619   3.021   7.925   5.144  2.8583 -0.7672 -0.7516
   14MOL   H71410620   2.948   7.941   4.991 -0.5157  1.0313 -0.4318
   14MOL   H71510621   3.043   0.141   4.954  1.6124 -2.1398 -1.0819
   14MOL   H71610622   2.920   0.126   5.078  1.4075  1.2839  2.8610
   14MOL   H71710623   3.120   0.119   5.237  0.2907  1.7983  1.0486
   14MOL   H71810624   3.043   0.341   5.181  0.4336 -0.1518  0.3854
   14MOL   H71910625   3.167   0.370   5.062 -0.0782 -1.5792 -0.5583
   14MOL   H72010626   3.556   0.563   5.262  0.6528  0.1048  0.5485
   14MOL   H72110627   3.643   0.684   5.446  0.0086  0.3781 -1.5748
   14MOL   H72210628   3.355   0.527   5.707 -0.4321  1.3351  0.6391
   14MOL   H72310629   3.239   0.402   5.503  1.0117 -1.8242 -2.0375
   14MOL   C72410630   3.921   1.105   5.614 -0.3148  0.0959 -0.5398
   14MOL   C72510631   3.883   0.958   5.645 -0.1560 -0.4376 -0.5525
   14MOL   C72610632   3.773   0.935   5.751  0.4739 -0.1983 -1.0694
   14MOL   C72710633   3.755   0.792   5.799  0.2807  0.3916  0.3155
   14MOL   C72810634   3.790   1.023   5.876  0.2254  0.9258  0.4037
   14MOL   C72910635   3.802   1.175   5.837 -0.2330  0.5604  0.4659
   14MOL   C73010636   3.925   1.191   5.742 -0.2913  0.0968 -0.3526
   14MOL   C73110637   3.964   1.340   5.703 -0.2891  0.4324  0.3559
   14MOL   O73210638   3.857   1.420   5.658 -0.1612 -0.6347 -0.1330
   14MOL   C73310639   3.875   1.506   5.559 -0.1441  0.2262  0.1818
   14MOL   O73410640   3.987   1.540   5.515 -0.1606 -0.1560  0.4108
   14MOL   C73510641   3.747   1.566   5.504  0.0636 -0.7822 -0.9849
   14MOL   C73610642   3.745   1.704   5.468 -0.2997 -0.1765 -0.4676
   14MOL   C73710643   3.619   1.765   5.431  0.1082  0.1576  0.3037
   14MOL   C73810644   3.501   1.688   5.442  0.5291 -0.0577 -0.9601
   14MOL   C73910645   3.373   1.750   5.408 -0.4406 -0.5129  0.1852
   14MOL   O74010646   3.351   1.867   5.428  0.0005  0.1140  0.4848
   14MOL   O74110647   3.274   1.670   5.359 -0.2095  0.0408  0.2721
   14MOL   C74210648   3.507   1.556   5.482 -0.0472 -0.2377  0.3587
   14MOL   C74310649   3.629   1.491   5.505 -0.5078  0.2922 -1.5524
   14MOL   H74410650   3.840   1.144   5.553 -1.1824 -2.0061 -0.7580
   14MOL   H74510651   4.005   1.114   5.545  0.4925 -0.7510  0.3145
   14MOL   H74610652   3.973   0.905   5.679 -0.6706 -0.7924  0.2729
   14MOL   H74710653   3.863   0.904   5.553  1.4186 -0.4610 -0.9022
   14MOL   H74810654   3.682   0.964   5.697  0.2155  1.4405  0.1996
   14MOL   H74910655   3.710   0.789   5.898  0.2143 -1.5363  0.2469
   14MOL   H75010656   3.853   0.748   5.816  1.3240  2.3437 -0.4176
   14MOL   H75110657   3.868   0.978   5.938 -1.4525 -0.5939  1.4481
   14MOL   H75210658   3.695   1.020   5.929 -0.1765 -1.2728 -0.3788
   14MOL   H75310659   3.707   1.203   5.793  0.2584  0.2760 -0.7791
   14MOL   H75410660   3.804   1.232   5.930 -0.2957  0.0745  0.7718
   14MOL   H75510661   4.012   1.153   5.796 -0.5406 -0.8291 -0.5938
   14MOL   H75610662   4.045   1.338   5.631  0.4120 -3.3001  1.1531
   14MOL   H75710663   4.000   1.391   5.793  0.8379  0.2663 -0.0008
   14MOL   H75810664   3.833   1.765   5.479 -0.4733  0.0312 -0.2065
   14MOL   H75910665   3.616   1.866   5.392  2.4995 -0.2533 -1.0587
   14MOL   H76010666   3.424   1.491   5.503  0.9879 -2.0122 -0.8467
   14MOL   H76110667   3.627   1.391   5.546  1.9887  0.8799  0.1799
   14MOL   H76210668   3.200   1.720   5.327  0.4939  0.8688 -0.0810
   15MOL     C110669   5.141   4.979   4.545 -0.3883  0.1615 -0.1089
   15MOL     C210670   5.034   4.875   4.530  0.1524 -0.1867  0.3388
   15MOL     C310671   4.902   4.941   4.471  0.4370 -0.1749  0.9315
   15MOL     C410672   4.788   4.836   4.470 -1.0255 -0.1862 -0.2427
   15MOL     C510673   4.857   5.073   4.533 -0.5121 -0.1302  0.1422
   15MOL     C610674   4.975   5.170   4.563 -1.0298  0.5509 -0.4920
   15MOL     C710675   5.096   5.094   4.632  0.9308  0.5502  0.1681
   15MOL     C810676   5.218   5.178   4.657  0.2981  0.1015  0.2578
   15MOL     O910677   5.334   5.121   4.713  0.5805  0.2101 -0.0192
   15MOL    C1010678   5.337   5.071   4.838 -0.2405 -0.5376 -0.2164
   15MOL    O1110679   5.243   5.087   4.917 -0.5141 -0.3978  0.1254
   15MOL    C1210680   5.461   4.994   4.872  0.4715  0.7016  0.0715
   15MOL    C1310681   5.478   4.932   4.996  0.4093  1.1227 -0.4413
   15MOL    C1410682   5.595   4.874   5.032  0.2111  0.3575  0.2829
   15MOL    C1510683   5.697   4.865   4.940  0.8850  0.6283 -0.0190
   15MOL    C1610684   5.820   4.792   4.979 -0.0951  0.3333 -0.5883
   15MOL    O1710685   5.846   4.767   5.097  0.1550 -0.3918  1.2325
   15MOL    O1810686   5.890   4.754   4.876 -0.3349  0.4847  0.0076
   15MOL    C1910687   5.684   4.922   4.811  0.5729  0.1696  0.2153
   15MOL    C2010688   5.561   4.984   4.774  1.4379  0.3872 -0.1752
   15MOL    H2110689   5.170   5.009   4.444 -0.1495 -2.8509 -1.0112
   15MOL    H2210690   5.229   4.933   4.591 -0.8400  0.7411  1.3570
   15MOL    H2310691   5.010   4.833   4.628  0.7426 -1.1752  0.0730
   15MOL    H2410692   5.071   4.803   4.457 -1.6916 -0.6663 -0.1332
   15MOL    H2510693   4.910   4.958   4.364  1.4003  1.0393  1.1779
   15MOL    H2610694   4.770   4.810   4.574 -0.4752 -0.9910 -0.3456
   15MOL    H2710695   4.822   4.743   4.424 -0.5810 -0.5203  0.7405
   15MOL    H2810696   4.817   5.062   4.634  0.5773  2.5564  0.9158
   15MOL    H2910697   4.784   5.123   4.470 -1.1788  1.2420  1.9648
   15MOL    H3010698   5.012   5.217   4.472  0.9333  5.0319  2.4419
   15MOL    H3110699   4.920   5.250   4.613  0.9161  0.6475  1.5901
   15MOL    H3210700   5.080   5.058   4.733  2.9002 -2.6206 -0.5868
   15MOL    H3310701   5.198   5.267   4.717 -1.5793  0.3338 -0.6787
   15MOL    H3410702   5.244   5.219   4.560 -0.2297 -2.4273 -0.9997
   15MOL    H3510703   5.394   4.946   5.063  0.8499 -1.2879  0.6492
   15MOL    H3610704   5.600   4.821   5.126  2.3336 -0.9502 -0.5260
   15MOL    H3710705   5.771   4.921   4.747  1.1455 -1.0707  0.9818
   15MOL    H3810706   5.560   5.037   4.680 -0.4332 -0.4459 -0.6556
   15MOL    H3910707   4.693   4.876   4.435 -1.6734  0.7201  2.4413
   15MOL    C4010708   6.376   4.685   4.853  0.1399  0.2974  0.1249
   15MOL    C4110709   6.232   4.623   4.853 -0.0905 -0.5232 -0.1378
   15MOL    C4210710   6.126   4.733   4.873 -0.2356  0.5023  0.9892
   15MOL    C4310711   5.993   4.659   4.902 -0.1731  0.3555  0.6302
   15MOL    C4410712   6.158   4.828   4.985  0.4716  0.4866 -0.0721
   15MOL    C4510713   6.294   4.895   4.965  0.0429  0.0311 -0.1324
   15MOL    C4610714   6.403   4.788   4.961 -0.0546  0.0838  0.0242
   15MOL    C4710715   6.538   4.850   4.960 -0.4010 -0.4634  0.2465
   15MOL    O4810716   6.561   4.943   4.854 -0.2602 -0.4919 -0.3102
   15MOL    C4910717   6.686   5.001   4.854  0.4135  0.1874  0.4277
   15MOL    O5010718   6.768   4.981   4.944  0.0373  0.4585  0.4185
   15MOL    C5110719   6.716   5.091   4.741  0.1931 -0.1829 -0.1658
   15MOL    C5210720   6.844   5.155   4.730 -0.2839  0.3394 -0.7068
   15MOL    C5310721   6.875   5.234   4.619  0.2249  0.1253  0.6364
   15MOL    C5410722   6.780   5.260   4.514 -0.1585  0.0945  0.6368
   15MOL    C5510723   6.823   5.331   4.390  0.0731  0.0916  0.3215
   15MOL    O5610724   6.936   5.370   4.367  0.0955 -0.1926  1.2329
   15MOL    O5710725   6.720   5.353   4.310 -0.3636 -0.3754 -0.7203
   15MOL    C5810726   6.654   5.197   4.523  0.7059  0.0072  0.4385
   15MOL    C5910727   6.622   5.120   4.639 -0.0571 -0.1360 -0.3777
   15MOL    H6010728   6.407   4.726   4.757 -1.6989  1.4913  0.0284
   15MOL    H6110729   6.435   4.595   4.869 -1.8416 -0.6270  2.6748
   15MOL    H6210730   6.227   4.548   4.932  3.1169 -0.9581 -0.2898
   15MOL    H6310731   6.211   4.581   4.755  0.2707  0.3604 -0.6059
   15MOL    H6410732   6.117   4.794   4.783  0.5122  1.1540  1.3521
   15MOL    H6510733   6.001   4.613   5.000  1.4666  0.1718  0.4269
   15MOL    H6610734   5.983   4.586   4.822  2.4394 -1.3165  1.7735
   15MOL    H6710735   6.169   4.770   5.077 -0.6510 -2.4101 -1.6997
   15MOL    H6810736   6.075   4.897   4.997  0.0565 -0.4024  2.5762
   15MOL    H6910737   6.300   4.968   4.884 -0.3006 -0.5605 -0.6913
   15MOL    H7010738   6.307   4.962   5.051 -1.2577  0.4218 -0.2240
   15MOL    H7110739   6.385   4.730   5.052 -1.4055 -0.2315 -0.4271
   15MOL    H7210740   6.610   4.770   4.943 -0.9547 -0.8706 -0.2018
   15MOL    H7310741   6.576   4.892   5.053  2.5036 -2.1441 -0.1227
   15MOL    H7410742   6.926   5.139   4.798  1.8875 -0.2307 -3.3672
   15MOL    H7510743   6.975   5.274   4.609 -0.5757  1.9057 -0.7101
   15MOL    H7610744   6.583   5.218   4.444  0.4593 -1.6336  0.1982
   15MOL    H7710745   6.524   5.074   4.633 -0.0843 -0.0442 -0.6593
   15MOL    C7810746   6.530   5.749   4.322 -0.2814  0.5121  0.3215
   15MOL    C7910747   6.555   5.599   4.281  0.1193 -0.3360  0.2094
   15MOL    C8010748   6.698   5.581   4.224 -0.9986 -0.1694  0.1969
   15MOL    C8110749   6.723   5.432   4.188  0.4092  0.6115 -0.5747
   15MOL    C8210750   6.723   5.670   4.104 -0.2001 -0.8723  0.0082
   15MOL    C8310751   6.690   5.815   4.138 -0.2190 -0.1325  0.5772
   15MOL    C8410752   6.549   5.840   4.198 -1.1799 -0.0809  0.6141
   15MOL    C8510753   6.528   5.979   4.242  0.7381  0.1929 -0.1251
   15MOL    O8610754   6.419   5.996   4.327  0.4414 -0.5254 -0.4474
   15MOL    C8710755   6.386   6.113   4.377 -0.5669  0.4028  0.8903
   15MOL    O8810756   6.424   6.218   4.322  0.5226  0.4448  0.0627
   15MOL    C8910757   6.309   6.105   4.504 -0.4434  0.1416  0.2834
   15MOL    C9010758   6.289   5.981   4.572  0.7419  0.0685  0.1811
   15MOL    C9110759   6.199   5.966   4.683  0.3366 -0.2832  0.0670
   15MOL    C9210760   6.138   6.085   4.739  0.2105 -0.2545  0.5349
   15MOL    C9310761   6.049   6.072   4.857 -0.4766 -0.5367  0.2451
   15MOL    O9410762   6.046   5.974   4.929  0.0822  0.3342  0.3302
   15MOL    O9510763   5.979   6.187   4.890 -0.7256  0.7258  0.1696
   15MOL    C9610764   6.175   6.215   4.690  0.5256 -0.7001  0.1886
   15MOL    C9710765   6.259   6.225   4.570 -1.0092  0.0538 -0.2703
   15MOL    H9810766   6.598   5.782   4.400  1.9279 -1.9684 -0.4802
   15MOL    H9910767   6.428   5.755   4.361 -1.9169  2.3294 -3.9047
   15MOL   H10010768   6.473   5.564   4.219  0.6078  0.1687 -0.7308
   15MOL   H10110769   6.543   5.549   4.377  1.6116  1.5543  1.4367
   15MOL   H10210770   6.759   5.598   4.313 -0.7581 -0.9106  0.1774
   15MOL   H10310771   6.815   5.415   4.132 -0.8471 -1.9509 -1.9677
   15MOL   H10410772   6.645   5.389   4.126  0.7323 -0.2534 -0.3943
   15MOL   H10510773   6.667   5.631   4.019  0.6446 -3.5590  0.6276
   15MOL   H10610774   6.825   5.661   4.068 -0.2702 -2.7907  0.2363
   15MOL   H10710775   6.767   5.857   4.202 -0.1710  1.8780 -0.7669
   15MOL   H10810776   6.698   5.867   4.043 -1.7851  0.0644  0.5354
   15MOL   H10910777   6.473   5.817   4.124 -1.1713  2.7561 -0.3326
   15MOL   H11010778   6.504   6.044   4.159 -0.4055 -1.6847 -1.3007
   15MOL   H11110779   6.619   6.010   4.293  1.9648 -1.2108 -1.3804
   15MOL   H11210780   6.340   5.892   4.538  1.3548 -0.4548  2.3842
   15MOL   H11310781   6.194   5.868   4.726 -0.0064 -0.2558  0.0915
   15MOL   H11410782   6.132   6.305   4.731 -0.2125 -0.6479 -0.6888
   15MOL   H11510783   6.267   6.314   4.509  0.2681  1.0905  1.3930
   15MOL   C11610784   5.544   6.076   4.819  0.0347  0.2093  0.2150
   15MOL   C11710785   5.692   6.133   4.825 -0.1691 -0.6597 -0.9351
   15MOL   C11810786   5.748   6.120   4.968 -0.5212 -0.0126 -0.1885
   15MOL   C11910787   5.881   6.199   4.993  0.0676 -0.5990  0.3657
   15MOL   C12010788   5.650   6.163   5.081  0.3794 -0.5575  0.1036
   15MOL   C12110789   5.512   6.104   5.073  0.2365  0.8489 -0.8428
   15MOL   C12210790   5.450   6.127   4.934  0.1183 -0.2487  0.2292
   15MOL   C12310791   5.307   6.080   4.920 -0.1272  0.1520 -0.0655
   15MOL   O12410792   5.219   6.136   5.019  0.8211  0.3445 -0.5816
   15MOL   C12510793   5.079   6.118   4.999 -0.2453  0.7701 -0.3352
   15MOL   O12610794   5.025   6.041   4.921 -0.2177 -0.4884 -0.4341
   15MOL   C12710795   5.002   6.209   5.086 -0.1295  0.6455  0.7937
   15MOL   C12810796   5.053   6.277   5.192  0.3521  0.1057  0.2886
   15MOL   C12910797   4.982   6.376   5.259 -0.1658 -0.0305  0.5907
   15MOL   C13010798   4.848   6.415   5.219 -0.2041 -0.4036  0.3334
   15MOL   C13110799   4.775   6.529   5.282  0.5847  0.7294  0.0067
   15MOL   O13210800   4.821   6.584   5.379 -0.2187 -0.4035  0.3351
   15MOL   O13310801   4.671   6.568   5.220  0.3143  0.3741  0.1405
   15MOL   C13410802   4.794   6.335   5.116  0.1824 -0.1643 -0.4098
   15MOL   C13510803   4.862   6.232   5.056  0.1600 -0.2314  0.0504
   15MOL   H13610804   5.548   5.967   4.830 -0.3448 -0.1810 -3.0331
   15MOL   H13710805   5.490   6.100   4.728 -1.0060  2.1107  1.3182
   15MOL   H13810806   5.685   6.240   4.802  1.0934 -0.0614  1.2889
   15MOL   H13910807   5.756   6.080   4.755  1.6833 -0.4164  0.5300
   15MOL   H14010808   5.774   6.018   4.994 -0.7600 -0.1692 -0.5597
   15MOL   H14110809   5.923   6.174   5.090 -1.1157 -2.2471  0.4630
   15MOL   H14210810   5.858   6.305   5.011 -1.6233 -1.1822  1.8005
   15MOL   H14310811   5.645   6.271   5.094 -0.6354 -0.8931  2.6768
   15MOL   H14410812   5.690   6.128   5.176 -0.6080  0.9787  1.1129
   15MOL   H14510813   5.509   5.996   5.089  1.4198  0.8580 -0.4988
   15MOL   H14610814   5.456   6.163   5.145 -3.0575 -2.0569 -0.8735
   15MOL   H14710815   5.464   6.233   4.911  1.1589 -0.5510 -0.5974
   15MOL   H14810816   5.299   5.972   4.921  0.6818  0.0977  0.4663
   15MOL   H14910817   5.281   6.118   4.821 -1.2119  0.7893  0.4528
   15MOL   H15010818   5.158   6.269   5.217  0.6614 -1.5824 -1.4858
   15MOL   H15110819   5.032   6.422   5.342 -0.9917  0.5736  0.7583
   15MOL   H15210820   4.692   6.359   5.091  0.2773 -1.0043 -1.6349
   15MOL   H15310821   4.809   6.167   4.987  2.6154 -2.2340 -0.0521
   15MOL   C15410822   4.576   6.991   5.069 -0.3211  0.6108 -0.2087
   15MOL   C15510823   4.633   6.870   5.141  0.1978 -0.2388  0.0254
   15MOL   C15610824   4.529   6.771   5.191 -0.0016 -0.1603  0.4894
   15MOL   C15710825   4.581   6.659   5.283  0.0123 -0.0027  0.0738
   15MOL   C15810826   4.421   6.850   5.265 -0.3593 -0.7268  0.0368
   15MOL   C15910827   4.359   6.950   5.176  0.1490  0.6746 -0.7284
   15MOL   C16010828   4.462   7.060   5.133 -0.4463 -0.0623 -0.2493
   15MOL   C16110829   4.396   7.156   5.036 -0.4492 -0.0551  0.2585
   15MOL   O16210830   4.300   7.228   5.109  0.0942 -0.7678 -0.0583
   15MOL   C16310831   4.336   7.344   5.177  0.6625 -0.1919  0.3149
   15MOL   O16410832   4.453   7.390   5.182 -0.3939 -0.0027  0.3172
   15MOL   C16510833   4.219   7.407   5.242 -0.5991 -0.1845 -0.3240
   15MOL   C16610834   4.086   7.364   5.217  0.0045 -0.2488  0.2633
   15MOL   C16710835   3.972   7.438   5.253  0.3616  0.2564 -0.2906
   15MOL   C16810836   3.990   7.560   5.325  0.2787  0.3525 -0.4016
   15MOL   C16910837   3.879   7.640   5.369 -0.4604 -0.2196 -0.2844
   15MOL   O17010838   3.895   7.742   5.435  0.7911 -0.3143 -0.5119
   15MOL   O17110839   3.768   7.588   5.318 -0.1855 -0.1317 -0.2242
   15MOL   C17210840   4.125   7.594   5.364  0.1409  0.7139  0.4843
   15MOL   C17310841   4.235   7.524   5.313  0.2099 -0.0653 -0.0552
   15MOL   H17410842   4.550   6.964   4.966  2.2031  1.2483 -1.0640
   15MOL   H17510843   4.650   7.068   5.047  1.1700 -0.2324  1.7424
   15MOL   H17610844   4.695   6.914   5.220  0.5729 -0.3441 -0.2130
   15MOL   H17710845   4.701   6.830   5.066  0.8448  0.4180  0.2605
   15MOL   H17810846   4.477   6.736   5.101  0.7972 -0.0322 -0.0235
   15MOL   H17910847   4.496   6.603   5.323  0.7160  0.8048  2.7705
   15MOL   H18010848   4.630   6.703   5.370 -3.5174 -1.3114  2.8390
   15MOL   H18110849   4.468   6.897   5.351 -2.6396  1.1756  0.2906
   15MOL   H18210850   4.358   6.779   5.318  0.6684 -1.1734  0.6690
   15MOL   H18310851   4.307   6.912   5.089  1.2992 -0.0046 -1.1341
   15MOL   H18410852   4.282   7.007   5.228 -0.1814  2.2987 -2.9472
   15MOL   H18510853   4.509   7.117   5.213  0.6931  0.5040 -1.3022
   15MOL   H18610854   4.352   7.105   4.950 -1.3942 -0.9625  1.2677
   15MOL   H18710855   4.476   7.222   5.003  1.8672 -1.7825  2.2261
   15MOL   H18810856   4.073   7.274   5.158 -1.1846  1.8787 -2.8793
   15MOL   H18910857   3.871   7.411   5.225  0.7574 -0.9215 -0.6193
   15MOL   H19010858   4.151   7.684   5.417  0.2152  0.6814  0.5044
   15MOL   H19110859   4.332   7.561   5.342 -0.0297 -0.3987  1.2414
   15MOL   C19210860   3.393   7.345   5.334  0.2331  0.3692 -0.0586
   15MOL   C19310861   3.527   7.419   5.367  1.1373  0.3668  0.4455
   15MOL   C19410862   3.534   7.553   5.292 -0.0396 -0.1432  0.2152
   15MOL   C19510863   3.643   7.651   5.339 -0.3646 -0.2743  0.0524
   15MOL   C19610864   3.537   7.524   5.141 -0.3046 -0.4185 -0.1403
   15MOL   C19710865   3.408   7.452   5.095  0.3693 -0.3354 -0.2787
   15MOL   C19810866   3.382   7.323   5.175  0.0277 -0.1074  0.6015
   15MOL   C19910867   3.255   7.255   5.128  1.0321 -0.0816 -0.3769
   15MOL   O20010868   3.151   7.352   5.130  0.6671 -0.2890 -0.8168
   15MOL   C20110869   3.084   7.375   5.022 -0.6908 -0.1073 -0.2155
   15MOL   O20210870   3.126   7.331   4.914 -0.0131  0.1047  0.0950
   15MOL   C20310871   2.965   7.464   5.030  0.4728 -0.2308  0.2878
   15MOL   C20410872   2.897   7.489   5.151  0.2338  0.6188  0.4943
   15MOL   C20510873   2.797   7.588   5.152 -0.0859 -0.9747 -0.8154
   15MOL   C20610874   2.753   7.646   5.031  0.1578 -0.8532  0.8685
   15MOL   C20710875   2.632   7.734   5.025 -0.2835 -0.2317 -0.1520
   15MOL   O20810876   2.564   7.757   4.923 -0.2025  0.4522 -0.7405
   15MOL   O20910877   2.606   7.781   5.145  1.2513 -0.3106  0.1017
   15MOL   C21010878   2.819   7.617   4.915  0.1030  0.0550 -0.8193
   15MOL   C21110879   2.921   7.529   4.912  0.1141 -0.3837 -0.8434
   15MOL   H21210880   3.307   7.398   5.375 -1.8389 -2.2600 -0.9189
   15MOL   H21310881   3.391   7.250   5.388 -0.1156 -0.5780 -1.7276
   15MOL   H21410882   3.621   7.369   5.341  0.7375  1.1564 -2.5925
   15MOL   H21510883   3.534   7.427   5.476 -0.9732 -1.3071  0.7391
   15MOL   H21610884   3.447   7.614   5.316  0.2985  0.4597 -0.0782
   15MOL   H21710885   3.630   7.685   5.441  0.7794  0.0613  0.0915
   15MOL   H21810886   3.640   7.744   5.282  2.0209 -0.9310 -1.2083
   15MOL   H21910887   3.629   7.472   5.116 -1.1083 -1.2718 -1.3754
   15MOL   H22010888   3.541   7.622   5.094  0.5097 -0.2404  0.2942
   15MOL   H22110889   3.321   7.517   5.101  1.2819  0.8093  0.8724
   15MOL   H22210890   3.416   7.424   4.990 -0.3288  0.8330 -0.6484
   15MOL   H22310891   3.464   7.257   5.148  0.4570  0.9369 -0.6861
   15MOL   H22410892   3.228   7.182   5.204 -0.9131  0.3811 -0.5868
   15MOL   H22510893   3.271   7.204   5.033 -0.6812  0.3148 -0.9049
   15MOL   H22610894   2.931   7.435   5.238  1.2139 -2.3877 -1.6321
   15MOL   H22710895   2.740   7.611   5.241 -2.0925 -0.5632 -2.1689
   15MOL   H22810896   2.783   7.660   4.823  1.3666  0.0925 -1.3102
   15MOL   H22910897   2.982   7.514   4.824  2.0438  0.3357  0.3526
   15MOL   C23010898   2.482   0.166   4.952  0.0048  0.4311  0.2779
   15MOL   C23110899   2.483   0.016   4.978 -0.7056 -0.6490  0.1106
   15MOL   C23210900   2.515   8.016   5.128  0.6583  0.1039  0.2054
   15MOL   C23310901   2.500   7.870   5.167 -0.0963  0.5128 -0.2264
   15MOL   C23410902   2.640   0.047   5.188  0.1001 -0.4996 -0.2214
   15MOL   C23510903   2.608   0.193   5.169  0.0051  0.1043 -0.4941
   15MOL   C23610904   2.611   0.230   5.022  0.0226 -0.1829  0.7121
   15MOL   C23710905   2.613   0.380   4.991  0.1907  0.5910 -0.1198
   15MOL   O23810906   2.739   0.440   5.024  0.2717 -0.2405  0.4987
   15MOL   C23910907   2.823   0.475   4.931 -0.7154  0.1129 -0.1373
   15MOL   O24010908   2.815   0.455   4.811  0.1616 -0.2112  0.3353
   15MOL   C24110909   2.941   0.541   4.999 -0.1996  0.3108  0.3974
   15MOL   C24210910   2.944   0.573   5.135 -0.2627  0.0307  0.2248
   15MOL   C24310911   3.048   0.642   5.187  0.0385 -0.7302  0.2397
   15MOL   C24410912   3.145   0.690   5.098  0.6805 -0.7363  0.4918
   15MOL   C24510913   3.256   0.764   5.158  0.6248  0.2637  0.3000
   15MOL   O24610914   3.243   0.824   5.267 -0.2693 -0.2963  0.1811
   15MOL   O24710915   3.362   0.765   5.084  0.0975 -0.5767  0.7415
   15MOL   C24810916   3.144   0.657   4.958 -0.1902 -0.5621  0.2510
   15MOL   C24910917   3.034   0.595   4.911 -0.0212  0.1469 -0.2234
   15MOL   H25010918   2.390   0.206   4.994  0.2151  3.0301 -1.6176
   15MOL   H25110919   2.480   0.193   4.846 -1.9769 -1.4492 -0.1951
   15MOL   H25210920   2.558   8.007   4.910  0.5987  1.4401  0.2249
   15MOL   H25310921   2.386   8.003   4.960  0.9016 -3.4002 -2.1575
   15MOL   H25410922   2.428   0.023   5.179  1.5299  1.1774  0.8901
   15MOL   H25510923   2.403   7.841   5.125 -0.3273  1.7604 -0.5663
   15MOL   H25610924   2.480   7.873   5.274 -1.9900 -0.3711 -0.5204
   15MOL   H25710925   2.731   0.013   5.139  0.9328 -0.2551  1.1292
   15MOL   H25810926   2.660   0.027   5.293 -0.6423 -2.5859 -0.4502
   15MOL   H25910927   2.511   0.229   5.205 -0.2661 -0.1598 -0.9652
   15MOL   H26010928   2.687   0.252   5.216  0.7728 -1.0480 -0.3194
   15MOL   H26110929   2.699   0.187   4.974  0.7702  2.1949 -0.1174
   15MOL   H26210930   2.540   0.436   5.049 -0.7676 -1.7708  1.0147
   15MOL   H26310931   2.583   0.402   4.888  1.4383  0.3730 -0.5487
   15MOL   H26410932   2.861   0.540   5.196  0.7165 -0.4698  1.3121
   15MOL   H26510933   3.047   0.679   5.288 -0.2836  0.3164 -0.1461
   15MOL   H26610934   3.226   0.684   4.892  0.1243 -0.3246  0.7339
   15MOL   H26710935   3.037   0.566   4.807  4.5405  0.8873 -0.3918
   15MOL   C26810936   3.743   0.684   4.871  0.6576 -0.3818 -0.1560
   15MOL   C26910937   3.651   0.705   4.995 -0.2506  0.0252 -0.3004
   15MOL   C27010938   3.567   0.841   4.988  0.2421  0.6242 -0.3813
   15MOL   C27110939   3.470   0.856   5.106 -0.5122  0.9749  0.2719
   15MOL   C27210940   3.670   0.949   4.974  0.5876  0.5076  0.2942
   15MOL   C27310941   3.743   0.933   4.838  0.1229  0.5512  0.0633
   15MOL   C27410942   3.830   0.806   4.841  0.2538 -0.1476  0.1961
   15MOL   C27510943   3.917   0.788   4.715 -0.1521 -0.1607 -0.6171
   15MOL   O27610944   3.830   0.760   4.610 -0.3469  0.3791  0.0437
   15MOL   C27710945   3.874   0.747   4.489  0.0893  0.4794 -0.2033
   15MOL   O27810946   3.980   0.791   4.449  0.4332  0.1592 -0.1543
   15MOL   C27910947   3.771   0.693   4.391 -1.2566  0.7058 -0.5206
   15MOL   C28010948   3.791   0.712   4.251  0.6002 -0.2313  0.1989
   15MOL   C28110949   3.704   0.644   4.164  0.0021  0.0126  0.4159
   15MOL   C28210950   3.596   0.575   4.207 -0.0189  0.0391 -0.5626
   15MOL   C28310951   3.497   0.521   4.117  0.2435  0.3121 -0.1048
   15MOL   O28410952   3.392   0.473   4.162  0.7278 -0.3595 -0.3856
   15MOL   O28510953   3.533   0.516   3.988  0.3035 -0.3842  0.0478
   15MOL   C28610954   3.571   0.563   4.346  0.5113 -0.0878 -0.1314
   15MOL   C28710955   3.665   0.619   4.434  0.0155  0.0980  0.1320
   15MOL   H28810956   3.677   0.658   4.788  0.9076  2.0725 -1.1620
   15MOL   H28910957   3.804   0.596   4.888 -0.7058 -1.7301 -2.0276
   15MOL   H29010958   3.717   0.704   5.081 -0.0897 -0.2088 -0.4250
   15MOL   H29110959   3.589   0.615   5.006 -0.9476  0.6789  1.1574
   15MOL   H29210960   3.505   0.848   4.899  0.1426  0.9013 -0.2877
   15MOL   H29310961   3.438   0.959   5.118 -0.7013  0.7104  2.1534
   15MOL   H29410962   3.527   0.834   5.196  0.6342 -0.5829 -0.8049
   15MOL   H29510963   3.733   0.953   5.063  0.0481  2.7104  0.6114
   15MOL   H29610964   3.612   1.041   4.972  1.3583  0.9914 -2.4667
   15MOL   H29710965   3.673   0.933   4.754  1.1613  1.4921 -0.8126
   15MOL   H29810966   3.808   1.018   4.815  2.4464 -1.7246 -2.0172
   15MOL   H29910967   3.905   0.818   4.920  0.8078  1.2083 -0.5293
   15MOL   H30010968   3.986   0.708   4.744  0.1084  0.3100  0.0828
   15MOL   H30110969   3.968   0.878   4.682  1.7785 -1.0526 -0.1509
   15MOL   H30210970   3.865   0.779   4.210  1.1723 -1.0533 -0.1172
   15MOL   H30310971   3.731   0.644   4.060 -4.9276  0.6769 -1.0152
   15MOL   H30410972   3.486   0.510   4.386 -0.7486  2.5480  0.8128
   15MOL   H30510973   3.649   0.612   4.540 -1.7353  1.0107 -0.0604
   15MOL   C30610974   3.722   0.514   3.611 -0.0008 -0.0211  0.1205
   15MOL   C30710975   3.610   0.545   3.711  0.3314 -0.0980 -0.0215
   15MOL   C30810976   3.542   0.430   3.771 -0.1623  0.2438  0.0299
   15MOL   C30910977   3.451   0.464   3.891 -0.6086  0.1392 -0.3886
   15MOL   C31010978   3.471   0.347   3.658 -0.3167 -0.1181 -0.5539
   15MOL   C31110979   3.586   0.301   3.570 -0.4159 -0.1187  0.3661
   15MOL   C31210980   3.670   0.412   3.504  0.4372 -0.3573 -0.3639
   15MOL   C31310981   3.765   0.361   3.396  0.1479 -0.1451 -0.7861
   15MOL   O31410982   3.887   0.310   3.449 -0.2743  0.1132  0.0605
   15MOL   C31510983   3.973   0.258   3.369  0.6856 -0.2925  0.3338
   15MOL   O31610984   3.978   0.270   3.244  0.0303 -0.0296 -0.0865
   15MOL   C31710985   4.076   0.183   3.454 -0.1169  0.2303 -0.2845
   15MOL   C31810986   4.204   0.167   3.395  0.1151  0.6805 -0.6490
   15MOL   C31910987   4.311   0.122   3.467  0.2737  0.6183  0.4204
   15MOL   C32010988   4.293   0.067   3.597  0.3486 -0.1933  0.3479
   15MOL   C32110989   4.415   0.023   3.659  0.7011  0.2244 -0.2387
   15MOL   O32210990   4.526   0.045   3.617  0.0359 -0.2628  0.1291
   15MOL   O32310991   4.389   8.001   3.779  0.0781 -0.1683  0.1115
   15MOL   C32410992   4.159   0.073   3.656  0.4949 -0.4917 -0.1664
   15MOL   C32510993   4.053   0.135   3.586 -0.5789  0.3244  0.8910
   15MOL   H32610994   3.802   0.460   3.661 -0.8560  1.1732  2.8453
   15MOL   H32710995   3.760   0.604   3.563  0.3912 -0.5300 -0.5347
   15MOL   H32810996   3.541   0.614   3.661  0.8989 -0.5579 -1.4630
   15MOL   H32910997   3.659   0.599   3.792  0.7147  2.1080 -1.6626
   15MOL   H33010998   3.622   0.364   3.805  0.2736  0.7523  0.0018
   15MOL   H33110999   3.410   0.372   3.931 -0.8742  0.8847  1.0840
   15MOL   H33211000   3.378   0.545   3.890  1.2034  1.8256  0.0495
   15MOL   H33311001   3.385   0.397   3.614 -0.9384  0.9851  1.8262
   15MOL   H33411002   3.435   0.259   3.710  0.5966 -0.7039 -0.9010
   15MOL   H33511003   3.653   0.241   3.630  1.6492  1.9020  0.1414
   15MOL   H33611004   3.536   0.235   3.499 -0.7555 -0.5725  1.0206
   15MOL   H33711005   3.600   0.478   3.453  0.4255  0.3372  0.5457
   15MOL   H33811006   3.776   0.440   3.322  1.0174  0.0549 -0.4403
   15MOL   H33911007   3.715   0.283   3.339  2.4590 -1.6965 -0.7271
   15MOL   H34011008   4.221   0.199   3.294 -1.0255  2.7441 -0.2079
   15MOL   H34111009   4.406   0.122   3.417 -0.3334 -0.7900 -0.7533
   15MOL   H34211010   4.146   0.031   3.754  0.0693  0.3735  0.1581
   15MOL   H34311011   3.958   0.147   3.635 -0.0091 -0.2077  2.1674
   15MOL   C34411012   4.342   7.641   4.048 -0.0640  0.1431 -0.5465
   15MOL   C34511013   4.379   7.736   3.931 -0.3457  0.2388 -0.9412
   15MOL   C34611014   4.457   7.864   3.973  0.1126 -0.0858 -0.4808
   15MOL   C34711015   4.497   7.951   3.851  0.0636  0.0352  0.0573
   15MOL   C34811016   4.378   7.938   4.089  0.1205 -0.4764  0.2681
   15MOL   C34911017   4.359   7.847   4.208  0.2426 -0.0171 -0.1604
   15MOL   C35011018   4.281   7.717   4.171 -0.0018  0.2294  0.3408
   15MOL   C35111019   4.273   7.618   4.292 -0.5157 -0.1035 -0.1483
   15MOL   O35211020   4.403   7.588   4.329 -0.3100 -0.2918 -0.1604
   15MOL   C35311021   4.431   7.486   4.404  0.2040  0.8272  0.4445
   15MOL   O35411022   4.353   7.416   4.469  0.5510 -0.2935  0.1999
   15MOL   C35511023   4.576   7.471   4.401 -0.3715 -0.1772  0.1611
   15MOL   C35611024   4.633   7.355   4.462 -0.1685  0.3294 -0.1727
   15MOL   C35711025   4.774   7.337   4.456 -0.0622  0.2890 -0.5677
   15MOL   C35811026   4.857   7.429   4.386  0.6209  0.0809  0.0310
   15MOL   C35911027   5.007   7.413   4.382  0.0981 -0.4226 -0.5567
   15MOL   O36011028   5.080   7.512   4.374  0.3547  0.5526  0.2645
   15MOL   O36111029   5.052   7.288   4.376 -0.3251 -0.4626  0.2092
   15MOL   C36211030   4.803   7.542   4.322  0.4942  0.3916 -0.2827
   15MOL   C36311031   4.666   7.564   4.338  0.1576 -0.3777  0.9968
   15MOL   H36411032   4.437   7.603   4.085  0.1150  1.9778  0.9783
   15MOL   H36511033   4.284   7.556   4.013 -1.5021  1.1858 -0.7184
   15MOL   H36611034   4.282   7.772   3.896 -1.5325 -0.0878  1.8628
   15MOL   H36711035   4.424   7.670   3.856  0.1300  0.2050 -0.6260
   15MOL   H36811036   4.557   7.838   4.006  0.2609  1.4977  0.3855
   15MOL   H36911037   4.567   7.893   3.791  1.6824  2.5099 -0.4983
   15MOL   H37011038   4.555   0.006   3.882  0.5668 -0.3202  0.1339
   15MOL   H37111039   4.282   7.978   4.056  0.3253  0.2669  0.5525
   15MOL   H37211040   4.443   8.025   4.103  0.2067 -0.6696  1.1114
   15MOL   H37311041   4.460   7.823   4.242  0.1770 -0.3976 -0.2398
   15MOL   H37411042   4.312   7.883   4.300  1.2291 -0.5833  0.5704
   15MOL   H37511043   4.185   7.752   4.134  0.9071  1.7071 -0.7025
   15MOL   H37611044   4.216   7.527   4.275 -1.6098  0.7058 -0.8242
   15MOL   H37711045   4.220   7.659   4.378  0.0421  1.1712 -0.4091
   15MOL   H37811046   4.563   7.288   4.510  0.6558 -0.4995 -0.1224
   15MOL   H37911047   4.807   7.246   4.502 -1.5747 -0.1173 -0.2576
   15MOL   H38011048   4.860   7.616   4.269 -1.1300  0.0755 -2.5141
   15MOL   H38111049   4.619   7.655   4.303 -0.3178 -0.4112  1.5348
   15MOL   C38211050   5.382   6.992   4.159  0.0852  0.2686 -0.1727
   15MOL   C38311051   5.363   7.105   4.266  0.4049 -0.5404 -0.2798
   15MOL   C38411052   5.219   7.161   4.272  0.0612 -0.0783 -0.2336
   15MOL   C38511053   5.190   7.267   4.377  0.0084 -0.5276  0.6286
   15MOL   C38611054   5.173   7.203   4.134 -1.0750 -0.7285  0.4428
   15MOL   C38711055   5.185   7.083   4.025 -0.8897 -0.9120 -0.8198
   15MOL   C38811056   5.331   7.027   4.018  0.0664  0.2890 -0.1657
   15MOL   C38911057   5.346   6.913   3.918  0.2462  0.4609  0.5369
   15MOL   O39011058   5.459   6.834   3.950  0.3892 -0.0934  0.6483
   15MOL   C39111059   5.445   6.699   3.967 -0.6646  0.1152 -0.9424
   15MOL   O39211060   5.339   6.641   3.966 -0.2486  0.3577 -0.9415
   15MOL   C39311061   5.576   6.626   3.976  0.1063 -0.0644 -0.0398
   15MOL   C39411062   5.700   6.693   3.979 -0.0667 -0.9620  0.1180
   15MOL   C39511063   5.815   6.620   4.008  0.2913 -0.1385 -0.6448
   15MOL   C39611064   5.817   6.478   4.026 -0.3509 -1.1227 -0.2032
   15MOL   C39711065   5.947   6.401   4.053 -0.5372  0.2137 -0.7344
   15MOL   O39811066   5.939   6.276   4.062 -0.5603  0.0691 -0.0728
   15MOL   O39911067   6.062   6.473   4.068  0.1347 -0.0048 -0.0972
   15MOL   C40011068   5.693   6.413   4.025  0.3737  0.3285 -0.2160
   15MOL   C40111069   5.578   6.485   3.991  0.0564 -0.2252  0.1269
   15MOL   H40211070   5.303   6.924   4.191 -0.0007  0.0582 -0.8169
   15MOL   H40311071   5.473   6.933   4.165 -0.4177 -0.4575  0.3818
   15MOL   H40411072   5.421   7.192   4.236 -1.8276  0.9594 -0.3896
   15MOL   H40511073   5.399   7.087   4.367 -1.1691  1.7720  0.7346
   15MOL   H40611074   5.140   7.087   4.290 -1.3521  0.9633 -2.0096
   15MOL   H40711075   5.248   7.354   4.349  0.5892 -1.0376  0.2248
   15MOL   H40811076   5.226   7.238   4.476 -1.0660  1.3863  1.5930
   15MOL   H40911077   5.229   7.292   4.104 -0.0490 -0.7221  2.3145
   15MOL   H41011078   5.074   7.249   4.129 -1.4733 -1.6278 -0.0389
   15MOL   H41111079   5.120   7.001   4.055 -0.3213 -1.0211  0.1229
   15MOL   H41211080   5.165   7.118   3.924 -0.6367 -0.3960 -0.6946
   15MOL   H41311081   5.392   7.106   3.974 -0.1210  1.0644  0.9295
   15MOL   H41411082   5.348   6.963   3.821 -0.8450 -0.9362 -0.2232
   15MOL   H41511083   5.253   6.856   3.908 -0.1339  1.2757 -0.8933
   15MOL   H41611084   5.714   6.800   3.971  1.5718 -1.0537  1.5088
   15MOL   H41711085   5.904   6.681   4.014 -0.4347  0.9808 -0.9673
   15MOL   H41811086   5.688   6.310   4.057 -0.6738  0.6106  0.6011
   15MOL   H41911087   5.485   6.431   3.986 -0.4856  0.6248  0.9221
   15MOL   C42011088   6.358   6.667   4.345 -0.0249 -0.1914 -0.7154
   15MOL   C42111089   6.252   6.577   4.287  0.0168  0.5065 -0.3253
   15MOL   C42211090   6.292   6.501   4.159 -0.3968 -0.2918 -0.1432
   15MOL   C42311091   6.185   6.405   4.099 -0.3903  0.7785  0.1110
   15MOL   C42411092   6.349   6.609   4.061  0.8256  0.2006 -0.2961
   15MOL   C42511093   6.465   6.683   4.119 -0.6075  0.3470  1.3969
   15MOL   C42611094   6.431   6.757   4.241  0.0891  0.0761 -0.4102
   15MOL   C42711095   6.560   6.817   4.312 -0.0461 -0.0913  0.2128
   15MOL   O42811096   6.631   6.894   4.216  0.5891  0.3310  1.1062
   15MOL   C42911097   6.715   6.993   4.261 -0.1308  0.4118  0.3789
   15MOL   O43011098   6.730   7.022   4.379 -0.6430  0.2819  0.4501
   15MOL   C43111099   6.781   7.063   4.151 -0.0641  0.1762  0.3678
   15MOL   C43211100   6.840   7.182   4.183 -0.1020  0.1343  0.1603
   15MOL   C43311101   6.923   7.246   4.085  0.5141  0.6943 -0.8073
   15MOL   C43411102   6.936   7.198   3.955  0.2311  0.4518 -0.4921
   15MOL   C43511103   7.013   7.259   3.843  0.2077 -0.6113 -0.1228
   15MOL   O43611104   6.981   7.246   3.726 -0.0025 -0.2752 -0.7861
   15MOL   O43711105   7.118   7.323   3.890  0.8359  0.9250 -0.0488
   15MOL   C43811106   6.857   7.086   3.929  0.0682  0.0330  0.5290
   15MOL   C43911107   6.784   7.013   4.022 -0.1819 -0.6663  0.3794
   15MOL   H44011108   6.445   6.610   4.378 -1.1520 -0.5700  1.6873
   15MOL   H44111109   6.317   6.724   4.428  0.2131  0.4280 -1.0177
   15MOL   H44211110   6.165   6.639   4.267 -1.0600 -0.7894  0.2471
   15MOL   H44311111   6.218   6.510   4.366 -1.2912  1.2278 -0.2652
   15MOL   H44411112   6.377   6.438   4.187 -0.6892 -0.5276  0.2122
   15MOL   H44511113   6.175   6.326   4.174  3.0497  0.8323  0.7058
   15MOL   H44611114   6.222   6.354   4.010 -1.4792  1.8369 -0.9513
   15MOL   H44711115   6.271   6.683   4.045 -0.8774 -1.6520 -0.7096
   15MOL   H44811116   6.373   6.568   3.963  0.4852 -0.2386 -0.1967
   15MOL   H44911117   6.544   6.614   4.149 -1.2743 -1.5263 -0.9316
   15MOL   H45011118   6.514   6.749   4.048 -0.2102 -1.3096  0.1025
   15MOL   H45111119   6.369   6.844   4.216  0.8860  1.0630  0.9851
   15MOL   H45211120   6.629   6.744   4.356 -2.0123 -2.5501 -0.6778
   15MOL   H45311121   6.527   6.874   4.399 -1.2163 -2.4877  1.3786
   15MOL   H45411122   6.835   7.233   4.278  0.0839  1.9109 -0.7594
   15MOL   H45511123   6.983   7.332   4.112  0.6406  0.4643 -0.3458
   15MOL   H45611124   6.848   7.046   3.829 -0.9044  0.7649  0.3180
   15MOL   H45711125   6.737   6.921   3.992 -0.6920 -0.8234  1.6453
   15MOL   C45811126   7.541   7.574   3.790  0.4002  0.4034  0.1406
   15MOL   C45911127   7.406   7.527   3.738  0.2439 -0.1730  0.5826
   15MOL   C46011128   7.326   7.457   3.849 -0.1976 -0.6956  0.6522
   15MOL   C46111129   7.199   7.387   3.796  0.0292 -1.2846 -0.0672
   15MOL   C46211130   7.411   7.340   3.901  0.3608 -0.0855  0.1826
   15MOL   C46311131   7.548   7.384   3.964  0.2178 -0.1154 -0.4840
   15MOL   C46411132   7.628   7.455   3.853 -0.1473 -0.1750 -0.1567
   15MOL   C46511133   7.758   7.512   3.905 -0.2162  0.3860  0.3396
   15MOL   O46611134   7.861   7.428   3.951 -0.3008 -0.2187  0.3514
   15MOL   C46711135   7.942   7.370   3.856 -0.1905  0.4133  0.0362
   15MOL   O46811136   7.936   7.392   3.735 -0.0718 -0.1983  0.0720
   15MOL   C46911137   8.024   7.258   3.908  0.6064  0.1730 -0.1345
   15MOL   C47011138   0.080   7.190   3.820 -0.3998 -0.6135  0.0160
   15MOL   C47111139   0.179   7.105   3.871  0.1396  0.0130  0.4979
   15MOL   C47211140   0.186   7.076   4.009  0.1472  0.4353 -0.3180
   15MOL   C47311141   0.286   6.981   4.051 -0.8028 -0.3595  0.0211
   15MOL   O47411142   0.376   6.942   3.978 -0.2774 -0.5594 -0.3941
   15MOL   O47511143   0.269   6.941   4.178 -0.1665  0.0036  0.0352
   15MOL   C47611144   0.086   7.132   4.099  0.2449  0.4260 -0.7457
   15MOL   C47711145   8.025   7.224   4.046  0.2768 -0.2494  0.7511
   15MOL   H47811146   7.516   7.659   3.854 -0.5487  0.9071 -0.8898
   15MOL   H47911147   7.599   7.619   3.710 -0.4241 -0.8747 -1.1985
   15MOL   H48011148   7.407   7.462   3.650 -2.6460  0.1302  0.2801
   15MOL   H48111149   7.343   7.610   3.706  0.9134  0.6111  1.2811
   15MOL   H48211150   7.312   7.532   3.927 -1.8149 -0.4202  0.1062
   15MOL   H48311151   7.225   7.317   3.716 -0.4834 -2.6939  0.9916
   15MOL   H48411152   7.136   7.457   3.741  1.0954 -0.0975  0.2101
   15MOL   H48511153   7.424   7.274   3.815 -1.3902 -1.0931  0.6632
   15MOL   H48611154   7.347   7.274   3.960 -0.2671 -1.1939 -1.6779
   15MOL   H48711155   7.538   7.445   4.054 -0.0611  1.9906 -1.9248
   15MOL   H48811156   7.611   7.304   4.003 -0.9316 -0.6410  0.3541
   15MOL   H48911157   7.655   7.390   3.771  2.3432 -0.0249  0.5041
   15MOL   H49011158   7.717   7.564   3.992 -1.4578  0.7543 -0.4462
   15MOL   H49111159   7.801   7.589   3.840 -0.4197  0.4859  0.3210
   15MOL   H49211160   0.072   7.208   3.714  2.1778  0.6269 -0.0003
   15MOL   H49311161   0.254   7.068   3.803  0.2255  1.2169 -0.0843
   15MOL   H49411162   0.078   7.118   4.206 -2.0417 -2.1993 -1.2314
   15MOL   H49511163   7.951   7.272   4.108 -0.7830  2.1781 -2.2598
   15MOL   C49611164   0.133   6.710   4.531 -0.2502  0.3153 -0.3880
   15MOL   C49711165   0.211   6.813   4.454  0.3246  0.1022  0.3662
   15MOL   C49811166   0.275   6.756   4.322 -0.0227  0.3473  0.0302
   15MOL   C49911167   0.367   6.861   4.243  0.1453  0.7725  0.0756
   15MOL   C50011168   0.346   6.617   4.344 -0.4629 -0.0906  0.0386
   15MOL   C50111169   0.250   6.512   4.413 -0.3797  0.2300 -0.4054
   15MOL   C50211170   0.198   6.569   4.549 -0.2012  0.0066 -0.8986
   15MOL   C50311171   0.111   6.464   4.626  0.1884 -0.5746 -0.1900
   15MOL   O50411172   8.029   6.447   4.547 -0.0876 -0.1970 -0.1533
   15MOL   C50511173   7.910   6.495   4.596  0.9702 -0.4147  0.7196
   15MOL   O50611174   7.897   6.545   4.707 -0.4276  0.1409 -0.9296
   15MOL   C50711175   7.799   6.486   4.492  0.1558  0.5124  0.5368
   15MOL   C50811176   7.674   6.532   4.534 -0.7073  0.1971  0.4002
   15MOL   C50911177   7.568   6.535   4.443 -0.6002 -0.1877  0.2111
   15MOL   C51011178   7.597   6.499   4.309 -0.4473 -0.0483  0.2774
   15MOL   C51111179   7.491   6.520   4.210  0.4819  0.0464 -0.5835
   15MOL   O51211180   7.504   6.507   4.092 -0.0491 -0.4412 -0.0882
   15MOL   O51311181   7.370   6.559   4.257 -0.0989  0.9871 -0.4496
   15MOL   C51411182   7.722   6.445   4.262  0.4303  0.1093 -0.1851
   15MOL   C51511183   7.825   6.448   4.356  0.1699 -0.2095  0.6601
   15MOL   H51611184   0.039   6.703   4.477 -0.7560  0.8756  0.4105
   15MOL   H51711185   0.118   6.753   4.629 -2.1704 -0.0592 -0.4910
   15MOL   H51811186   0.294   6.853   4.513  0.8220 -0.8829  0.3554
   15MOL   H51911187   0.157   6.901   4.420  0.2550 -1.3905 -3.6371
   15MOL   H52011188   0.187   6.737   4.260 -0.0094 -2.0495  0.6868
   15MOL   H52111189   0.433   6.802   4.180  0.2978  1.6254 -0.5670
   15MOL   H52211190   0.415   6.915   4.324  1.1750 -0.3005  0.2012
   15MOL   H52311191   0.434   6.628   4.408 -0.8813 -2.5011  1.1204
   15MOL   H52411192   0.379   6.574   4.250 -0.2250  1.5522 -0.6394
   15MOL   H52511193   0.169   6.486   4.345 -1.7219  1.5321  0.6550
   15MOL   H52611194   0.285   6.411   4.430 -0.4180  0.3905  0.6489
   15MOL   H52711195   0.285   6.599   4.607 -0.8196 -0.6329  0.3825
   15MOL   H52811196   0.093   6.502   4.726 -0.2203  1.1506 -0.9054
   15MOL   H52911197   0.164   6.369   4.629 -0.7159 -1.0333  1.8224
   15MOL   H53011198   7.656   6.552   4.639 -2.6867  2.0253 -0.2568
   15MOL   H53111199   7.468   6.556   4.480 -1.1222  0.5251 -1.5199
   15MOL   H53211200   7.738   6.428   4.157  1.6944  0.1073 -0.0016
   15MOL   H53311201   7.925   6.426   4.323  0.2317  1.8826 -0.6079
   15MOL   C53411202   7.274   6.965   4.347 -0.8926 -0.6629  0.6957
   15MOL   C53511203   7.246   6.818   4.334 -0.1346  0.3168  0.4547
   15MOL   C53611204   7.285   6.772   4.192 -0.1173 -0.2599  0.0970
   15MOL   C53711205   7.265   6.617   4.182  0.9922 -0.1422  0.0374
   15MOL   C53811206   7.203   6.853   4.087  0.6050  0.1639 -0.3804
   15MOL   C53911207   7.229   7.006   4.096  0.1612 -1.0089 -0.0359
   15MOL   C54011208   7.203   7.059   4.241 -0.4235  0.3409  0.2201
   15MOL   C54111209   7.268   7.195   4.254 -0.3893 -0.9291  0.1690
   15MOL   O54211210   7.247   7.248   4.380 -0.3092 -0.2785  0.2770
   15MOL   C54311211   7.332   7.330   4.438 -0.7065  0.1433 -0.2732
   15MOL   O54411212   7.416   7.398   4.373 -0.0194  0.6124  0.6905
   15MOL   C54511213   7.334   7.322   4.585  1.0849 -0.0181  0.1468
   15MOL   C54611214   7.248   7.230   4.658 -0.2056 -0.2640 -0.1827
   15MOL   C54711215   7.259   7.215   4.792  0.9445 -0.2055 -0.0284
   15MOL   C54811216   7.347   7.295   4.866 -0.6320  0.1792  0.0867
   15MOL   C54911217   7.361   7.281   5.014  0.7975 -0.2076  0.2110
   15MOL   O55011218   7.419   7.370   5.077 -0.4466  0.3070  0.4644
   15MOL   O55111219   7.324   7.162   5.060 -0.0879  0.5707 -0.0727
   15MOL   C55211220   7.424   7.396   4.800  0.2121  0.3966 -0.0512
   15MOL   C55311221   7.416   7.411   4.660 -0.4620  0.1834 -0.4457
   15MOL   H55411222   7.381   6.981   4.335 -1.1628  1.1032  0.4551
   15MOL   H55511223   7.250   7.001   4.447 -1.6869  0.0173  0.2691
   15MOL   H55611224   7.143   6.787   4.350 -0.2794  0.1177 -0.7610
   15MOL   H55711225   7.315   6.769   4.402  0.1408 -0.6832 -0.5353
   15MOL   H55811226   7.388   6.800   4.170 -0.6547  1.0519 -0.7961
   15MOL   H55911227   7.271   6.572   4.083 -1.4423 -1.2988  0.3984
   15MOL   H56011228   7.163   6.592   4.211  0.6355 -0.9103 -1.8063
   15MOL   H56111229   7.099   6.827   4.104  1.0561  0.1534  2.6888
   15MOL   H56211230   7.227   6.818   3.986 -3.0034 -0.7021 -1.0302
   15MOL   H56311231   7.331   7.033   4.068 -0.2027 -0.2268 -0.6420
   15MOL   H56411232   7.168   7.066   4.029 -1.5458 -0.5236  1.8990
   15MOL   H56511233   7.095   7.062   4.254 -0.6138  0.6469 -1.3600
   15MOL   H56611234   7.240   7.263   4.173 -0.5578  0.1391  1.1063
   15MOL   H56711235   7.376   7.185   4.245 -0.4303 -1.8810  0.6723
   15MOL   H56811236   7.180   7.165   4.606  0.0731 -0.5528 -0.1857
   15MOL   H56911237   7.198   7.144   4.845  1.7734 -0.9424 -0.0373
   15MOL   H57011238   7.495   7.449   4.862  0.1432 -1.2957  1.5309
   15MOL   H57111239   7.478   7.484   4.611  0.8231  0.0730  0.9785
   15MOL   C57211240   7.228   6.782   5.293 -0.0571  0.8193 -1.0909
   15MOL   C57311241   7.227   6.931   5.253  0.3497  0.3922  0.0704
   15MOL   C57411242   7.370   6.982   5.227  0.1900 -0.4311  0.5762
   15MOL   C57511243   7.362   7.139   5.200 -0.2715 -0.4679  0.0321
   15MOL   C57611244   7.456   6.955   5.352 -0.3106 -0.1652  0.2589
   15MOL   C57711245   7.468   6.807   5.380 -0.2054  0.2049  0.2694
   15MOL   C57811246   7.329   6.751   5.408  0.5131 -0.0378  0.1892
   15MOL   C57911247   7.320   6.598   5.446  0.7429  0.3948  1.0217
   15MOL   O58011248   7.356   6.524   5.330 -0.4389 -0.3043 -0.1928
   15MOL   C58111249   7.379   6.389   5.348 -0.7297 -0.5313  0.1158
   15MOL   O58211250   7.363   6.332   5.454 -0.6837  0.7784 -0.2992
   15MOL   C58311251   7.420   6.331   5.218  0.2769 -0.0991 -0.0213
   15MOL   C58411252   7.444   6.400   5.101 -0.5869 -0.0746 -0.1013
   15MOL   C58511253   7.475   6.339   4.979  0.4561  0.7559 -0.3811
   15MOL   C58611254   7.478   6.198   4.970  0.4905 -0.1841 -0.3158
   15MOL   C58711255   7.493   6.129   4.839 -1.0532  0.1795  1.0164
   15MOL   O58811256   7.478   6.006   4.840  0.1281 -0.1947  0.4831
   15MOL   O58911257   7.520   6.213   4.737  0.4077  0.0840 -0.5112
   15MOL   C59011258   7.465   6.127   5.095 -0.9537 -0.7533 -0.4082
   15MOL   C59111259   7.442   6.194   5.215  0.9396 -0.4635 -0.2364
   15MOL   H59211260   7.256   6.726   5.204  1.2561  0.9320 -0.7611
   15MOL   H59311261   7.127   6.748   5.318  0.0668  1.9502  1.1534
   15MOL   H59411262   7.192   6.989   5.338  0.0932 -1.5571  1.3355
   15MOL   H59511263   7.158   6.950   5.171  0.9747  2.2087 -0.0532
   15MOL   H59611264   7.407   6.942   5.132 -1.3138  3.6039 -1.8703
   15MOL   H59711265   7.455   7.183   5.234 -0.1191 -0.4993 -0.3462
   15MOL   H59811266   7.288   7.179   5.270 -0.0821 -1.4517  0.8047
   15MOL   H59911267   7.415   7.019   5.430  1.2090  1.3519 -0.1617
   15MOL   H60011268   7.555   6.998   5.340  1.0727 -3.2814 -0.1290
   15MOL   H60111269   7.515   6.768   5.290 -1.9364  0.1534 -0.6387
   15MOL   H60211270   7.532   6.787   5.465  0.6380  0.6827 -0.2487
   15MOL   H60311271   7.293   6.808   5.494 -2.6104 -1.0700 -0.3643
   15MOL   H60411272   7.219   6.567   5.473  0.3615  0.8184  0.1044
   15MOL   H60511273   7.371   6.558   5.534 -0.2994 -3.2169  0.0554
   15MOL   H60611274   7.443   6.508   5.100  1.3950  0.0149  2.0589
   15MOL   H60711275   7.496   6.401   4.894  0.1129  2.5914  0.8542
   15MOL   H60811276   7.483   6.020   5.094 -1.7673 -0.8897 -0.9475
   15MOL   H60911277   7.425   6.127   5.297  0.7661 -1.3200 -0.9648
   15MOL   C61011278   7.264   6.142   4.320  0.7854 -0.4094 -0.2248
   15MOL   C61111279   7.410   6.146   4.379  0.5522  0.1882  0.1856
   15MOL   C61211280   7.396   6.165   4.531 -0.7813 -0.1546  0.3830
   15MOL   C61311281   7.534   6.161   4.604 -0.0294 -0.5110  0.1117
   15MOL   C61411282   7.320   6.299   4.554  0.3354  0.9555  0.3140
   15MOL   C61511283   7.183   6.304   4.486  0.1911 -0.0323 -0.4252
   15MOL   C61611284   7.183   6.271   4.337 -0.0977  0.3427  0.1181
   15MOL   C61711285   7.040   6.263   4.280  0.4738  0.4801 -0.5490
   15MOL   O61811286   7.037   6.187   4.157  0.7948 -0.3982 -0.3313
   15MOL   C61911287   7.030   6.250   4.040  0.2558  1.2584  0.1263
   15MOL   O62011288   7.051   6.372   4.030 -0.0940  0.0230 -0.1013
   15MOL   C62111289   6.987   6.160   3.928  0.0912  0.3767  0.5447
   15MOL   C62211290   6.921   6.223   3.819 -0.3591  0.5610 -0.3161
   15MOL   C62311291   6.882   6.155   3.706  0.3624  0.3529  0.8342
   15MOL   C62411292   6.887   6.012   3.711 -0.5333 -0.2523  0.0620
   15MOL   C62511293   6.822   5.932   3.600  0.2262 -0.9008 -0.7281
   15MOL   O62611294   6.738   5.978   3.525  0.4245  0.1872 -0.1589
   15MOL   O62711295   6.852   5.804   3.610 -0.3853 -0.0591  0.0134
   15MOL   C62811296   6.931   5.943   3.824 -0.5499 -1.0853  0.1059
   15MOL   C62911297   6.992   6.020   3.934 -0.5495  0.2126  0.2343
   15MOL   H63011298   7.201   6.060   4.353  0.5764 -0.3971 -0.5847
   15MOL   H63111299   7.268   6.114   4.214 -0.2079 -0.2517 -0.3074
   15MOL   H63211300   7.468   6.223   4.330  0.9504 -1.3712 -1.8510
   15MOL   H63311301   7.464   6.056   4.350  2.5433  1.2499  0.5547
   15MOL   H63411302   7.334   6.079   4.556  1.7041 -2.2769 -0.5585
   15MOL   H63511303   7.610   6.212   4.546 -0.6662 -1.1100 -1.2945
   15MOL   H63611304   7.567   6.057   4.612  1.3953 -0.1155 -0.5248
   15MOL   H63711305   7.376   6.385   4.519 -0.7633  1.2142 -0.8284
   15MOL   H63811306   7.302   6.326   4.658 -0.6534 -0.1314  0.4427
   15MOL   H63911307   7.113   6.240   4.540 -1.2588  2.4863  0.7778
   15MOL   H64011308   7.135   6.398   4.514 -1.5965 -0.9657 -0.3025
   15MOL   H64111309   7.232   6.349   4.279 -0.5800  0.9272  0.4887
   15MOL   H64211310   7.010   6.368   4.270  1.3434  0.7293 -0.5491
   15MOL   H64311311   6.970   6.209   4.344  0.1186  1.5937  0.0215
   15MOL   H64411312   6.909   6.330   3.825  1.3737  0.7963 -0.5833
   15MOL   H64511313   6.832   6.212   3.630  1.1910  1.4421  1.0902
   15MOL   H64611314   6.919   5.836   3.829  1.3307 -1.2270  2.1629
   15MOL   H64711315   7.033   5.970   4.020 -2.8402 -2.1784  0.0090
   15MOL   C64811316   6.600   5.382   3.571  0.3936 -0.7240  0.0730
   15MOL   C64911317   6.660   5.501   3.490 -0.5570 -0.4587  0.9556
   15MOL   C65011318   6.738   5.597   3.580 -1.0289  0.8916  0.5054
   15MOL   C65111319   6.803   5.718   3.504  0.1428  0.7222 -0.2717
   15MOL   C65211320   6.638   5.645   3.686  0.1338  0.2058  0.4549
   15MOL   C65311321   6.567   5.536   3.764 -0.2855  0.3069 -0.3372
   15MOL   C65411322   6.503   5.427   3.680  0.6715  0.5063  0.9976
   15MOL   C65511323   6.455   5.310   3.761  1.0779 -0.2976  0.4278
   15MOL   O65611324   6.561   5.272   3.840  0.1247 -0.1360 -0.2279
   15MOL   C65711325   6.580   5.137   3.862  0.6060  0.2670  0.7095
   15MOL   O65811326   6.503   5.044   3.830 -0.5956 -0.9162 -0.2335
   15MOL   C65911327   6.715   5.119   3.920  0.2324 -0.9227  0.5934
   15MOL   C66011328   6.807   5.232   3.929  0.3004  0.1133  0.3117
   15MOL   C66111329   6.929   5.216   4.005  0.0854 -0.0912 -0.3251
   15MOL   C66211330   6.952   5.096   4.068 -0.1556  0.2021 -0.3489
   15MOL   C66311331   7.086   5.081   4.150 -0.2659  0.1880  0.2563
   15MOL   O66411332   7.164   5.173   4.164  0.2162 -0.1381  1.0130
   15MOL   O66511333   7.099   4.965   4.194  0.0464  0.3526  0.3438
   15MOL   C66611334   6.867   4.990   4.061 -0.4557  1.0894 -0.7449
   15MOL   C66711335   6.747   4.997   3.987 -0.5879  0.5556 -0.0361
   15MOL   H66811336   6.683   5.326   3.613  0.5957 -1.3588 -1.1374
   15MOL   H66911337   6.561   5.305   3.504  1.7478 -1.7682  0.4494
   15MOL   H67011338   6.592   5.561   3.430  1.4199  1.1555  0.2934
   15MOL   H67111339   6.733   5.455   3.424 -2.5805  0.5266 -2.1016
   15MOL   H67211340   6.816   5.539   3.631  1.1360  2.3112 -1.0965
   15MOL   H67311341   6.742   5.759   3.423  1.0427 -1.3378 -2.0697
   15MOL   H67411342   6.899   5.686   3.464  0.3384 -0.7300  1.2823
   15MOL   H67511343   6.560   5.704   3.636  0.1225  0.5637  0.8884
   15MOL   H67611344   6.685   5.716   3.754 -1.6987  1.0096  0.9139
   15MOL   H67711345   6.645   5.496   3.830  0.5360 -0.7090 -1.8938
   15MOL   H67811346   6.496   5.578   3.835  0.7013 -1.6075  1.8733
   15MOL   H67911347   6.421   5.471   3.623  0.2462  1.4261  2.2999
   15MOL   H68011348   6.412   5.233   3.697  3.0169 -1.5192  0.5551
   15MOL   H68111349   6.375   5.347   3.825  1.0421 -0.0053  0.2205
   15MOL   H68211350   6.787   5.321   3.872 -1.1539 -1.4693 -1.6746
   15MOL   H68311351   6.995   5.299   4.026  0.4587 -0.2622 -0.8139
   15MOL   H68411352   6.885   4.897   4.114  2.2436  1.1877 -1.4592
   15MOL   H68511353   6.674   4.917   3.986 -1.4465  1.3306  0.3071
   15MOL   C68611354   7.199   5.076   4.626  0.0008  0.0437  0.7781
   15MOL   C68711355   7.190   5.063   4.470 -0.0806  0.8254  1.1130
   15MOL   C68811356   7.207   4.920   4.420 -0.0718  0.2958 -0.3765
   15MOL   C68911357   7.220   4.923   4.268  0.1332 -0.8282  0.0471
   15MOL   C69011358   7.336   4.859   4.474 -0.1104 -0.7481 -0.4419
   15MOL   C69111359   7.335   4.854   4.623  0.2084 -0.0117  0.3086
   15MOL   C69211360   7.321   5.000   4.678 -0.5595 -0.3791 -0.7013
   15MOL   C69311361   7.321   5.004   4.833 -0.4312  0.1148 -0.7805
   15MOL   O69411362   7.311   5.140   4.882  0.6131  0.3255  0.4093
   15MOL   C69511363   7.418   5.213   4.897 -0.3621  0.8015  0.5197
   15MOL   O69611364   7.533   5.181   4.855 -0.1793  0.0369 -0.6023
   15MOL   C69711365   7.386   5.340   4.963 -0.0794 -0.0543 -0.2937
   15MOL   C69811366   7.257   5.382   5.001  0.2323  0.3213  0.4461
   15MOL   C69911367   7.226   5.494   5.088 -0.0691  0.8041 -0.3739
   15MOL   C70011368   7.334   5.570   5.135  0.2483 -0.2304  0.0578
   15MOL   C70111369   7.317   5.683   5.226  0.2042 -0.1487 -0.3587
   15MOL   O70211370   7.404   5.765   5.243 -0.1460 -0.1851  0.1943
   15MOL   O70311371   7.195   5.683   5.278  0.0580  0.0629 -0.3555
   15MOL   C70411372   7.469   5.534   5.093  0.1524 -0.3638  0.2108
   15MOL   C70511373   7.493   5.416   5.017  0.1806 -0.2216  0.7572
   15MOL   H70611374   7.113   5.022   4.667 -0.1614 -0.8675 -0.7293
   15MOL   H70711375   7.187   5.176   4.668 -1.1173 -0.0913  0.7841
   15MOL   H70811376   7.261   5.130   4.422  0.9492 -1.5107 -0.7167
   15MOL   H70911377   7.094   5.107   4.443  0.4612  1.3597  0.0314
   15MOL   H71011378   7.121   4.859   4.446  0.2257  0.8279  1.9510
   15MOL   H71111379   7.255   4.827   4.231  3.9489 -0.2506  1.9022
   15MOL   H71211380   7.295   4.999   4.244 -0.7926  0.1934  0.3465
   15MOL   H71311381   7.427   4.914   4.451 -0.4331 -0.1585 -0.2978
   15MOL   H71411382   7.352   4.760   4.430  2.9402 -0.4366 -0.1981
   15MOL   H71511383   7.247   4.798   4.654  0.5288 -1.3752 -1.1556
   15MOL   H71611384   7.413   4.801   4.677 -1.3153 -1.2607  1.3392
   15MOL   H71711385   7.407   5.057   4.641  0.9848 -0.2557  2.8749
   15MOL   H71811386   7.418   4.961   4.860 -0.6012 -0.8783 -1.7284
   15MOL   H71911387   7.240   4.937   4.862 -0.1225  0.0965  0.0790
   15MOL   H72011388   7.173   5.323   4.966 -1.4842  2.4675  0.8371
   15MOL   H72111389   7.121   5.516   5.100 -0.6329 -2.5659  1.2269
   15MOL   H72211390   7.556   5.584   5.134  0.5177  0.0431 -1.0174
   15MOL   H72311391   7.597   5.396   4.995 -0.2024 -1.0763 -0.3120
   15MOL   C72411392   7.068   6.163   5.416 -0.1702 -0.2377  0.5979
   15MOL   C72511393   7.074   6.007   5.449 -0.9034 -0.1999 -0.3270
   15MOL   C72611394   7.143   5.922   5.338 -0.3404  0.0283  0.0495
   15MOL   C72711395   7.150   5.776   5.376 -0.2259 -0.0468 -0.0711
   15MOL   C72811396   7.067   5.944   5.204  0.4612  0.3235 -0.0239
   15MOL   C72911397   7.067   6.096   5.165  0.2497 -0.4160  0.0319
   15MOL   C73011398   7.011   6.184   5.276 -0.2433  0.2149 -0.7648
   15MOL   C73111399   7.012   6.337   5.244 -0.2401 -0.3325  0.1114
   15MOL   O73211400   6.928   6.402   5.340 -1.2228 -0.1546 -0.1101
   15MOL   C73311401   6.829   6.488   5.293 -0.2532  0.4228 -0.2137
   15MOL   O73411402   6.841   6.530   5.177  0.0909 -0.1036 -0.3058
   15MOL   C73511403   6.728   6.523   5.401 -0.4337  0.1276  0.0350
   15MOL   C73611404   6.743   6.484   5.531 -0.1266 -0.0817  0.0095
   15MOL   C73711405   6.639   6.516   5.622  0.1057  0.6368 -0.6364
   15MOL   C73811406   6.524   6.583   5.585  0.2442  0.5079 -0.2207
   15MOL   C73911407   6.407   6.617   5.677  1.0654  0.2863  0.3623
   15MOL   O74011408   6.317   6.688   5.645 -0.0004 -0.1896  0.3811
   15MOL   O74111409   6.413   6.552   5.796 -0.1140 -0.5939 -0.2742
   15MOL   C74211410   6.507   6.625   5.450 -0.2186 -0.4856 -0.0487
   15MOL   C74311411   6.608   6.589   5.358  0.2020 -0.2791 -0.0402
   15MOL   H74411412   7.169   6.206   5.415  1.7155 -4.3782 -0.2067
   15MOL   H74511413   7.007   6.207   5.494 -0.3615 -1.5969  1.2322
   15MOL   H74611414   6.979   5.965   5.481 -1.0848  1.5339  1.5175
   15MOL   H74711415   7.136   5.992   5.537 -2.0926  1.0593  0.7469
   15MOL   H74811416   7.244   5.961   5.346 -0.2499 -0.2402  0.2268
   15MOL   H74911417   7.055   5.729   5.402  0.5185 -1.3136  0.4055
   15MOL   H75011418   7.214   5.765   5.464  0.5134  0.3811 -0.5524
   15MOL   H75111419   6.963   5.914   5.218  0.6063  0.0572  0.4919
   15MOL   H75211420   7.113   5.899   5.117  0.1711  0.4835 -0.2611
   15MOL   H75311421   7.167   6.134   5.145  0.3739  0.1555  1.6551
   15MOL   H75411422   7.008   6.101   5.074  0.2651 -0.1366  0.0370
   15MOL   H75511423   6.907   6.152   5.282 -0.3518  1.0005  2.3086
   15MOL   H75611424   6.977   6.347   5.141 -0.5550 -1.5462  0.1017
   15MOL   H75711425   7.114   6.377   5.246 -0.9684  1.6153 -0.2546
   15MOL   H75811426   6.833   6.434   5.564 -1.1761 -1.4861  0.8131
   15MOL   H75911427   6.654   6.474   5.721  1.7075  0.8930 -0.7580
   15MOL   H76011428   6.422   6.683   5.416  0.6427  0.9642  0.2251
   15MOL   H76111429   6.596   6.620   5.256  1.3119 -0.6984 -0.2971
   15MOL   H76211430   6.329   6.543   5.837  0.2073 -3.0992 -0.1187
   16MOL     C111431   2.273   4.936   2.609 -0.3749 -0.2915  0.7542
   16MOL     C211432   2.306   4.999   2.469 -0.4824  0.0733  0.2776
   16MOL     C311433   2.190   5.080   2.416 -0.7669 -0.7291  0.2742
   16MOL     C411434   2.228   5.146   2.280  0.5707 -0.5939 -0.2687
   16MOL     C511435   2.071   4.987   2.405  0.2763  0.4516  0.3302
   16MOL     C611436   2.031   4.913   2.537 -0.2930  0.0006  0.2009
   16MOL     C711437   2.147   4.841   2.603 -0.6223  0.4364 -0.9255
   16MOL     C811438   2.115   4.804   2.751 -0.2579  0.0070  0.4008
   16MOL     O911439   2.215   4.727   2.815 -0.2814 -0.3773  0.4530
   16MOL    C1011440   2.194   4.692   2.939  0.0247 -1.1550 -0.1280
   16MOL    O1111441   2.084   4.692   2.992  0.4852 -0.0552 -0.0099
   16MOL    C1211442   2.312   4.633   3.008 -0.1823 -0.2274 -0.1917
   16MOL    C1311443   2.446   4.630   2.950 -0.3035  0.0466 -0.4135
   16MOL    C1411444   2.555   4.578   3.027 -0.6755  0.4590 -0.2168
   16MOL    C1511445   2.534   4.531   3.156 -0.6470 -0.4980  0.4169
   16MOL    C1611446   2.653   4.472   3.228  0.5623 -0.3499 -0.3332
   16MOL    O1711447   2.639   4.384   3.313 -0.0727 -0.5093 -0.1894
   16MOL    O1811448   2.769   4.522   3.188 -0.4383  0.4123  0.0354
   16MOL    C1911449   2.406   4.535   3.215 -0.8716 -0.4649 -0.2530
   16MOL    C2011450   2.296   4.595   3.144 -0.3383  0.5763  0.0950
   16MOL    H2111451   2.252   5.021   2.673 -2.8372  1.1524 -1.8339
   16MOL    H2211452   2.365   4.886   2.639 -0.6810 -1.4292 -0.1685
   16MOL    H2311453   2.333   4.920   2.398 -0.6412  0.5192 -0.2860
   16MOL    H2411454   2.396   5.060   2.471 -0.2321 -0.2459 -0.7529
   16MOL    H2511455   2.189   5.157   2.492  2.9897  1.5277 -1.8327
   16MOL    H2611456   2.151   5.213   2.241  1.6689  1.0690  0.3768
   16MOL    H2711457   2.236   5.077   2.196  0.2187  0.8511 -1.5194
   16MOL    H2811458   2.079   4.911   2.327 -1.5625  0.3830  0.1768
   16MOL    H2911459   1.986   5.043   2.366 -1.0138 -0.8673  1.1588
   16MOL    H3011460   2.001   4.990   2.608 -1.5746  0.6066 -0.9538
   16MOL    H3111461   1.944   4.850   2.515 -0.2783 -0.2511  0.8585
   16MOL    H3211462   2.170   4.745   2.557  0.9953  0.3864 -0.0393
   16MOL    H3311463   2.022   4.749   2.766 -0.0721 -1.4029 -3.1828
   16MOL    H3411464   2.100   4.897   2.806  0.7637  1.1124 -1.1283
   16MOL    H3511465   2.469   4.678   2.856  0.5905  2.2512  0.8989
   16MOL    H3611466   2.655   4.571   2.987 -0.3670 -2.1194  0.8585
   16MOL    H3711467   2.394   4.492   3.314  0.3738  1.5615  0.8374
   16MOL    H3811468   2.194   4.599   3.179 -0.2305 -0.2742  0.5059
   16MOL    H3911469   2.319   5.205   2.290  0.6064 -0.1498 -2.8612
   16MOL    C4011470   3.053   4.360   2.888 -0.0723  0.0205 -0.4193
   16MOL    C4111471   2.973   4.447   2.983 -0.1318  0.6129  0.1010
   16MOL    C4211472   2.947   4.378   3.114  0.0238  0.0522  0.3520
   16MOL    C4311473   2.893   4.474   3.229 -0.4819 -0.6777 -0.0482
   16MOL    C4411474   2.854   4.258   3.084  0.1419  0.0838 -0.2599
   16MOL    C4511475   2.913   4.163   2.977  0.5384  0.3404  1.3182
   16MOL    C4611476   2.963   4.236   2.848 -0.9121 -0.0681  0.1440
   16MOL    C4711477   3.030   4.138   2.752 -0.2775  0.1242 -0.1552
   16MOL    O4811478   3.026   4.201   2.624  0.3678 -0.4121  0.8352
   16MOL    C4911479   2.939   4.155   2.533  0.0628  0.6092  0.2686
   16MOL    O5011480   2.865   4.060   2.543  0.5580  0.4976  0.3199
   16MOL    C5111481   2.952   4.240   2.409  0.0344  0.3585 -0.8505
   16MOL    C5211482   2.852   4.241   2.313  0.0545  0.5265 -0.2457
   16MOL    C5311483   2.863   4.332   2.200 -0.0945 -0.1484  0.2404
   16MOL    C5411484   2.973   4.421   2.189 -0.4389 -0.1785 -0.1776
   16MOL    C5511485   3.000   4.519   2.077  0.8096  0.1146  0.3719
   16MOL    O5611486   3.091   4.601   2.068  0.4516  0.0273  0.1889
   16MOL    O5711487   2.901   4.504   1.986  0.0811 -0.4583  0.8926
   16MOL    C5811488   3.080   4.411   2.285  0.3047  0.3928 -0.2430
   16MOL    C5911489   3.057   4.332   2.398 -0.1212 -0.3039  0.5470
   16MOL    H6011490   3.147   4.326   2.931  0.0992 -0.6350 -1.3136
   16MOL    H6111491   3.071   4.419   2.798  2.6598  0.2377  0.2511
   16MOL    H6211492   2.875   4.457   2.937  0.1100  0.5651 -0.4336
   16MOL    H6311493   3.029   4.540   2.997 -0.4346  0.8533 -0.2822
   16MOL    H6411494   3.044   4.353   3.158 -0.4985  2.7001  3.1623
   16MOL    H6511495   2.962   4.556   3.247 -2.9578  1.3794  0.2864
   16MOL    H6611496   2.881   4.414   3.319  0.0839 -2.1699 -0.9524
   16MOL    H6711497   2.755   4.280   3.044 -0.2641 -0.7332  0.2705
   16MOL    H6811498   2.836   4.204   3.177  0.2610 -0.1401 -0.3647
   16MOL    H6911499   2.994   4.104   3.021  1.2905  0.3467 -0.0608
   16MOL    H7011500   2.833   4.097   2.944  0.8478  0.1143  1.0209
   16MOL    H7111501   2.868   4.268   2.805 -0.2866 -0.9374 -1.9394
   16MOL    H7211502   2.972   4.045   2.747  0.0913 -0.2190  1.5599
   16MOL    H7311503   3.129   4.115   2.790 -0.5482  0.6952  0.9355
   16MOL    H7411504   2.769   4.172   2.311 -0.2583  0.9195 -1.3298
   16MOL    H7511505   2.787   4.333   2.124 -0.2965  1.5665  0.4600
   16MOL    H7611506   3.168   4.473   2.275  1.4388 -1.3177 -1.1768
   16MOL    H7711507   3.137   4.336   2.471  2.1889 -1.3487 -1.8163
   16MOL    C7811508   2.533   4.505   1.733  0.5187  0.0045  0.1449
   16MOL    C7911509   2.681   4.502   1.764 -0.1031  0.3702 -0.0899
   16MOL    C8011510   2.728   4.609   1.869 -0.0901 -0.1384 -0.0336
   16MOL    C8111511   2.885   4.601   1.886  0.7310 -0.5058  0.1453
   16MOL    C8211512   2.679   4.746   1.818  0.1597 -0.6474 -0.5919
   16MOL    C8311513   2.531   4.753   1.776  0.2829  0.1529 -0.4713
   16MOL    C8411514   2.484   4.645   1.680  0.2442 -0.0168 -0.3235
   16MOL    C8511515   2.333   4.642   1.652  0.2438 -0.2967  0.4734
   16MOL    O8611516   2.293   4.775   1.613  0.2052  0.6478 -0.0461
   16MOL    C8711517   2.309   4.810   1.488  0.1741  0.0368  0.0840
   16MOL    O8811518   2.357   4.738   1.401  0.6705  0.0834  0.5334
   16MOL    C8911519   2.270   4.954   1.455  0.0147 -0.6782 -0.5590
   16MOL    C9011520   2.284   5.001   1.323  0.1698  0.0016  0.6225
   16MOL    C9111521   2.249   5.136   1.293 -0.4328 -0.2063 -0.3357
   16MOL    C9211522   2.198   5.225   1.389 -0.2936 -0.5883  0.2598
   16MOL    C9311523   2.147   5.358   1.347 -0.1898 -0.2284 -0.5920
   16MOL    O9411524   2.182   5.418   1.245  0.0925  0.3570 -0.0538
   16MOL    O9511525   2.047   5.393   1.427  0.0699  0.2399  0.0694
   16MOL    C9611526   2.195   5.174   1.524  0.1681  0.3509 -0.4299
   16MOL    C9711527   2.225   5.039   1.559 -0.0031 -0.2574  0.6928
   16MOL    H9811528   2.464   4.484   1.814 -1.8100  1.9484 -1.2468
   16MOL    H9911529   2.513   4.427   1.660  0.5552  0.2141 -0.0934
   16MOL   H10011530   2.729   4.512   1.667 -1.1647  2.5152 -0.4339
   16MOL   H10111531   2.709   4.407   1.810  2.6990  0.4057 -1.6245
   16MOL   H10211532   2.689   4.591   1.969  1.7309  0.7920  0.8635
   16MOL   H10311533   2.928   4.698   1.910  1.1720 -0.8877  0.9456
   16MOL   H10411534   2.934   4.569   1.794 -1.5920 -1.1096 -0.9141
   16MOL   H10511535   2.733   4.772   1.726 -0.8496  0.2194 -0.9605
   16MOL   H10611536   2.704   4.818   1.896 -2.5093  1.0230 -1.2105
   16MOL   H10711537   2.468   4.752   1.865  1.5004 -3.1932  0.4302
   16MOL   H10811538   2.510   4.856   1.746  2.6271  0.8438  0.1698
   16MOL   H10911539   2.532   4.670   1.586  1.7826 -0.5796  0.2949
   16MOL   H11011540   2.283   4.626   1.747 -2.3025 -2.4516 -1.1533
   16MOL   H11111541   2.305   4.559   1.587  2.1233 -0.3013 -0.3496
   16MOL   H11211542   2.312   4.947   1.233 -0.0662  0.2309  0.4105
   16MOL   H11311543   2.260   5.173   1.192 -2.7309  0.3866 -0.3893
   16MOL   H11411544   2.155   5.242   1.599 -0.6510  1.2436 -1.6610
   16MOL   H11511545   2.211   4.998   1.658  0.1004 -2.0514 -0.0233
   16MOL   C11611546   2.025   5.864   1.582  0.2568  0.1943  0.1854
   16MOL   C11711547   1.972   5.761   1.484 -0.2683  0.8104 -0.0256
   16MOL   C11811548   2.052   5.628   1.499 -0.2906  0.7676  0.0360
   16MOL   C11911549   1.993   5.524   1.404  0.6110 -0.0608 -0.0984
   16MOL   C12011550   2.195   5.664   1.474 -0.2119 -0.4237 -0.0066
   16MOL   C12111551   2.254   5.768   1.572 -0.1199 -0.4300 -0.5446
   16MOL   C12211552   2.173   5.897   1.566 -0.5235  0.7322 -0.0252
   16MOL   C12311553   2.226   5.990   1.679 -0.6502  0.6411  0.1124
   16MOL   O12411554   2.364   6.011   1.673 -0.3008  0.5861  0.0034
   16MOL   C12511555   2.418   6.118   1.621  0.7659  0.5598  0.4245
   16MOL   O12611556   2.357   6.211   1.574 -0.3981 -0.1333 -0.3207
   16MOL   C12711557   2.561   6.122   1.636 -0.5075  0.3051 -0.2697
   16MOL   C12811558   2.639   6.223   1.578 -0.0214 -0.1786 -0.4376
   16MOL   C12911559   2.777   6.236   1.597 -0.6956 -0.4250 -0.7977
   16MOL   C13011560   2.833   6.153   1.695 -0.0925  0.1049 -0.0375
   16MOL   C13111561   2.974   6.163   1.741 -0.4686  0.2957  0.0196
   16MOL   O13211562   3.040   6.082   1.803 -0.0104  0.4319  0.5086
   16MOL   O13311563   3.017   6.277   1.699  0.0343  0.0876 -0.1526
   16MOL   C13411564   2.755   6.052   1.751 -1.3562 -0.1237 -0.0824
   16MOL   C13511565   2.629   6.032   1.718  0.0222  0.1775  0.0534
   16MOL   H13611566   2.002   5.832   1.683  1.2921 -0.7759  0.1228
   16MOL   H13711567   1.974   5.960   1.569 -0.8937 -0.5401 -0.8455
   16MOL   H13811568   1.964   5.793   1.380  0.8404  1.3428  0.0461
   16MOL   H13911569   1.870   5.735   1.512  0.0557  0.4576  0.8492
   16MOL   H14011570   2.043   5.592   1.602  0.3796  0.8918  0.1368
   16MOL   H14111571   2.001   5.544   1.297  1.5478  1.0077  0.1580
   16MOL   H14211572   1.887   5.514   1.428  0.6528 -0.9403 -0.2741
   16MOL   H14311573   2.215   5.694   1.371 -1.1210  0.0813 -0.0396
   16MOL   H14411574   2.255   5.573   1.477  0.0629 -0.3114 -1.4857
   16MOL   H14511575   2.245   5.721   1.670  1.3175 -0.8728 -0.6169
   16MOL   H14611576   2.358   5.789   1.548  0.9395 -0.9151  3.2851
   16MOL   H14711577   2.181   5.937   1.465 -1.3194 -2.7789 -1.5663
   16MOL   H14811578   2.194   5.938   1.769 -0.1896  2.4178  1.3138
   16MOL   H14911579   2.170   6.083   1.672 -1.0471  0.6633  2.9833
   16MOL   H15011580   2.587   6.290   1.511 -0.4640  0.6359  0.6973
   16MOL   H15111581   2.840   6.303   1.542 -0.4174 -0.4507 -0.5094
   16MOL   H15211582   2.805   5.993   1.826  2.2701  1.4011 -1.1715
   16MOL   H15311583   2.569   5.965   1.778  1.2032 -1.2676 -0.3418
   16MOL   C15411584   3.230   6.475   1.473  0.1278 -0.6405  0.8362
   16MOL   C15511585   3.107   6.522   1.561  0.0019 -0.1526  0.3731
   16MOL   C15611586   3.129   6.492   1.705  0.4651 -0.2358  0.5178
   16MOL   C15711587   3.137   6.342   1.739  0.3885 -0.1019  0.4012
   16MOL   C15811588   3.259   6.564   1.744 -0.0219 -0.3865  0.1586
   16MOL   C15911589   3.380   6.523   1.662 -0.2657 -0.1564 -0.4351
   16MOL   C16011590   3.364   6.537   1.510 -0.6484 -0.3075  0.4471
   16MOL   C16111591   3.377   6.679   1.453  0.1590 -0.2051 -1.0266
   16MOL   O16211592   3.406   6.685   1.310  0.0633 -0.1151 -0.1093
   16MOL   C16311593   3.534   6.712   1.272 -0.0155  0.2923  0.1454
   16MOL   O16411594   3.626   6.711   1.357 -0.2792  0.6831  0.0785
   16MOL   C16511595   3.563   6.721   1.132  0.6679 -0.2942 -0.1285
   16MOL   C16611596   3.693   6.741   1.093 -0.2210  0.2374  0.0522
   16MOL   C16711597   3.731   6.759   0.958 -0.2277  0.5174 -0.3167
   16MOL   C16811598   3.633   6.755   0.856  0.1673  0.5196 -0.5841
   16MOL   C16911599   3.675   6.775   0.712 -0.4602 -0.7163 -0.7773
   16MOL   O17011600   3.792   6.804   0.675  0.4827 -0.4079 -0.3443
   16MOL   O17111601   3.568   6.759   0.631  0.5222 -0.0691  0.6057
   16MOL   C17211602   3.497   6.735   0.893  0.5524 -0.5172  0.1455
   16MOL   C17311603   3.460   6.712   1.030 -0.1114 -0.5271  0.3229
   16MOL   H17411604   3.220   6.504   1.368 -0.7085  0.5918  1.2462
   16MOL   H17511605   3.237   6.367   1.482  1.9542 -0.8484 -2.2570
   16MOL   H17611606   3.022   6.467   1.521  0.0659  0.2462 -0.3213
   16MOL   H17711607   3.099   6.630   1.553 -1.5166 -0.1642  1.5030
   16MOL   H17811608   3.043   6.534   1.757 -0.4335 -0.1919 -0.9922
   16MOL   H17911609   3.150   6.327   1.846 -1.8821 -0.4896  0.6556
   16MOL   H18011610   3.221   6.289   1.694  1.8309  1.4313  1.2601
   16MOL   H18111611   3.270   6.558   1.852 -0.0760  4.0934  0.5278
   16MOL   H18211612   3.251   6.673   1.733  1.7999 -0.1571  0.9310
   16MOL   H18311613   3.465   6.585   1.689 -0.5360  0.5265 -1.1368
   16MOL   H18411614   3.409   6.424   1.698  0.4950 -0.8593 -2.8499
   16MOL   H18511615   3.446   6.476   1.472 -0.4501  0.9313 -1.1173
   16MOL   H18611616   3.462   6.709   1.516 -0.4817 -3.4017  1.4886
   16MOL   H18711617   3.303   6.746   1.496  0.0548  0.1240 -1.7123
   16MOL   H18811618   3.772   6.744   1.167  0.0277  0.1138 -0.2068
   16MOL   H18911619   3.839   6.759   0.948 -0.0964  1.0165  0.9473
   16MOL   H19011620   3.414   6.737   0.825 -1.9632 -0.9611  3.0791
   16MOL   H19111621   3.355   6.703   1.054 -0.3643 -0.6004 -0.7946
   16MOL   C19211622   3.204   6.805   0.413 -0.0511  0.4350 -0.5220
   16MOL   C19311623   3.338   6.753   0.458  0.2767 -0.3704 -0.5018
   16MOL   C19411624   3.451   6.859   0.443  0.2050  0.6447  0.1666
   16MOL   C19511625   3.579   6.795   0.493 -0.5348 -0.0658  0.2900
   16MOL   C19611626   3.459   6.905   0.299 -0.8194  0.0125  0.6642
   16MOL   C19711627   3.328   6.963   0.254 -0.0482  0.1221 -0.1227
   16MOL   C19811628   3.219   6.858   0.268 -0.1315 -0.5786 -0.4399
   16MOL   C19911629   3.078   6.907   0.226  0.0924 -0.3055 -0.0424
   16MOL   O20011630   3.047   7.026   0.300 -0.0641 -0.4727 -0.2423
   16MOL   C20111631   3.009   7.135   0.238 -0.4327  0.3654 -0.0268
   16MOL   O20211632   2.985   7.136   0.119  0.4481 -0.3467  0.3429
   16MOL   C20311633   2.998   7.253   0.323 -0.4386  0.4972  0.3984
   16MOL   C20411634   3.050   7.256   0.456 -0.0711  0.0464 -0.1770
   16MOL   C20511635   3.037   7.366   0.543  0.3488 -0.1814  0.3398
   16MOL   C20611636   2.971   7.478   0.494  0.2898 -0.4003 -0.1148
   16MOL   C20711637   2.938   7.585   0.587  0.1094 -0.6801  0.1001
   16MOL   O20811638   2.875   7.688   0.556  0.5931  0.1647  0.0333
   16MOL   O20911639   2.962   7.552   0.715  0.3361 -0.3063 -0.2855
   16MOL   C21011640   2.924   7.480   0.362  0.3421  0.0057  0.4386
   16MOL   C21111641   2.940   7.368   0.275 -0.3121  0.3965 -0.3026
   16MOL   H21211642   3.161   6.880   0.480 -3.6730 -1.6761 -0.3377
   16MOL   H21311643   3.125   6.730   0.405  0.1600  0.4486 -3.1391
   16MOL   H21411644   3.364   6.660   0.408 -1.4976 -1.2577  0.1980
   16MOL   H21511645   3.323   6.723   0.562  0.8008  0.1052 -0.2856
   16MOL   H21611646   3.425   6.941   0.510 -1.0430 -0.3774  0.9600
   16MOL   H21711647   3.659   6.863   0.463 -1.1893  0.0664 -1.2321
   16MOL   H21811648   3.593   6.699   0.443 -1.9999 -1.3199  2.2270
   16MOL   H21911649   3.497   6.833   0.227 -0.3128  1.2430 -0.3104
   16MOL   H22011650   3.520   6.995   0.298  0.8566 -1.1091 -0.1548
   16MOL   H22111651   3.315   7.052   0.316  2.7541 -1.8905  3.6007
   16MOL   H22211652   3.328   6.993   0.149  0.0898  0.6573  0.0294
   16MOL   H22311653   3.238   6.776   0.198 -0.9773  0.9494 -2.5246
   16MOL   H22411654   3.004   6.834   0.258 -1.1551 -0.0429 -2.1790
   16MOL   H22511655   3.066   6.926   0.119  0.8070 -1.2136 -0.2913
   16MOL   H22611656   3.102   7.167   0.487 -0.1268  0.2941  0.6331
   16MOL   H22711657   3.072   7.355   0.645 -0.2384  2.4282  0.8585
   16MOL   H22811658   2.876   7.569   0.324 -0.6912 -0.3304  0.9544
   16MOL   H22911659   2.906   7.379   0.174 -1.6027 -0.4632  0.0304
   16MOL   C23011660   3.128   7.495   1.131 -0.1189  0.6503 -0.1351
   16MOL   C23111661   3.021   7.515   1.016  0.4309 -0.3121 -0.4572
   16MOL   C23211662   3.062   7.627   0.927  0.1392 -0.2058  0.0971
   16MOL   C23311663   2.957   7.652   0.810 -0.4264 -0.0178  0.6510
   16MOL   C23411664   3.088   7.759   1.009  0.3267  0.1391  0.2456
   16MOL   C23511665   3.191   7.742   1.126 -0.7122 -0.1226  0.6684
   16MOL   C23611666   3.153   7.621   1.214  0.1601 -0.3250  0.3738
   16MOL   C23711667   3.253   7.602   1.332  0.3369 -0.4814 -0.2011
   16MOL   O23811668   3.198   7.520   1.426 -0.4677  0.2891  0.2328
   16MOL   C23911669   3.134   7.573   1.530  0.0733  0.9799 -0.0742
   16MOL   O24011670   3.135   7.697   1.553 -0.1180 -0.1039 -0.1102
   16MOL   C24111671   3.051   7.476   1.616 -0.2092 -0.6630  1.0983
   16MOL   C24211672   2.990   7.517   1.733  0.1599 -0.0431 -0.0367
   16MOL   C24311673   2.918   7.429   1.818 -0.4416  0.2893  0.5409
   16MOL   C24411674   2.910   7.294   1.769 -0.3043  0.6341 -0.1377
   16MOL   C24511675   2.832   7.198   1.855  0.4253  0.2277 -0.2910
   16MOL   O24611676   2.796   7.220   1.968  0.3329 -0.2396  0.0455
   16MOL   O24711677   2.824   7.074   1.792  0.4820 -0.1239  0.0388
   16MOL   C24811678   2.961   7.254   1.653 -0.5902 -0.5214 -0.0075
   16MOL   C24911679   3.042   7.336   1.575 -0.4947 -0.5839 -0.4731
   16MOL   H25011680   3.229   7.470   1.096 -0.1075 -0.6212  0.7524
   16MOL   H25111681   3.097   7.407   1.187  1.1584 -0.1697 -0.6731
   16MOL   H25211682   2.925   7.543   1.058  0.1696 -2.0556  0.1476
   16MOL   H25311683   3.001   7.420   0.966 -1.5153 -0.4721  0.5859
   16MOL   H25411684   3.154   7.599   0.876 -1.9077 -1.0355 -3.2891
   16MOL   H25511685   2.995   7.746   0.770  0.0191 -0.6433 -0.3979
   16MOL   H25611686   2.858   7.685   0.842 -1.3665 -1.5830 -0.6025
   16MOL   H25711687   2.994   7.803   1.041 -0.3802  0.0935 -1.6556
   16MOL   H25811688   3.119   7.827   0.929  1.2997 -2.0626 -1.3119
   16MOL   H25911689   3.291   7.738   1.084 -1.6205 -1.6197 -1.4486
   16MOL   H26011690   3.183   7.831   1.188  1.8174  1.7106 -1.4878
   16MOL   H26111691   3.057   7.650   1.257  1.1252 -0.0042  2.3542
   16MOL   H26211692   3.282   7.702   1.364  1.8612 -0.6382 -1.0386
   16MOL   H26311693   3.344   7.553   1.296 -0.9784 -2.2702 -1.1966
   16MOL   H26411694   3.015   7.613   1.776  0.8263 -1.6209  3.2876
   16MOL   H26511695   2.866   7.465   1.906 -0.8758 -3.3246  1.8250
   16MOL   H26611696   2.949   7.152   1.616  0.0322 -0.6901  0.2646
   16MOL   H26711697   3.078   7.297   1.481  2.5089  1.9909 -0.5053
   16MOL   C26811698   3.033   6.759   2.021  0.2586 -0.0569  0.0918
   16MOL   C26911699   2.966   6.835   1.909 -0.4263  0.3367 -0.6883
   16MOL   C27011700   2.822   6.893   1.953  0.4490  0.1853  0.4761
   16MOL   C27111701   2.743   6.972   1.851  0.2226 -0.5906  0.2175
   16MOL   C27211702   2.735   6.772   2.003  0.1904 -0.1401  0.5468
   16MOL   C27311703   2.802   6.688   2.111 -0.3280 -0.3246  0.1519
   16MOL   C27411704   2.938   6.639   2.064  0.1855 -0.3298 -0.5278
   16MOL   C27511705   2.995   6.566   2.183  0.3363 -0.5176 -0.5179
   16MOL   O27611706   3.125   6.527   2.153 -0.0407  0.0140  0.0720
   16MOL   C27711707   3.180   6.408   2.200  0.2801 -0.0743 -0.3642
   16MOL   O27811708   3.124   6.340   2.283  0.1424  0.3937  0.0421
   16MOL   C27911709   3.312   6.372   2.141  0.1694  0.4458 -0.0175
   16MOL   C28011710   3.391   6.466   2.075 -0.2049 -0.7804  0.0480
   16MOL   C28111711   3.514   6.438   2.015  1.0465 -0.1381 -0.1255
   16MOL   C28211712   3.559   6.308   2.022 -0.0236  0.0241 -0.0280
   16MOL   C28311713   3.692   6.261   1.967 -0.3186  0.1207 -0.1442
   16MOL   O28411714   3.726   6.150   1.962  0.2249  0.0521  0.3769
   16MOL   O28511715   3.758   6.363   1.908 -1.0692 -0.0984  0.2788
   16MOL   C28611716   3.481   6.206   2.079 -0.1372 -0.6782  0.0617
   16MOL   C28711717   3.354   6.239   2.132 -0.0776  0.0339  0.1521
   16MOL   H28811718   3.060   6.829   2.100  0.7681 -0.7163  0.4935
   16MOL   H28911719   3.123   6.717   1.977 -0.7745 -0.8344 -1.3545
   16MOL   H29011720   2.966   6.765   1.826  1.3986 -0.1989 -0.2546
   16MOL   H29111721   3.041   6.913   1.892  2.9403 -2.5659  0.1742
   16MOL   H29211722   2.850   6.952   2.040 -0.1757 -1.4012  1.7941
   16MOL   H29311723   2.662   7.023   1.904 -1.6664 -1.7131 -1.5064
   16MOL   H29411724   2.705   6.903   1.776 -2.1234  0.0158  0.8085
   16MOL   H29511725   2.715   6.705   1.919  1.4133  0.0047  0.1188
   16MOL   H29611726   2.641   6.816   2.037  0.3683  0.9195 -0.2895
   16MOL   H29711727   2.814   6.743   2.204  0.4277  1.6894 -1.0909
   16MOL   H29811728   2.746   6.595   2.116  2.3910 -2.1352 -1.6656
   16MOL   H29911729   2.919   6.579   1.976  1.0730 -0.3985 -0.6686
   16MOL   H30011730   2.939   6.480   2.220 -1.1616  0.0969 -1.2955
   16MOL   H30111731   3.003   6.629   2.272  0.9218 -0.8084 -0.3640
   16MOL   H30211732   3.351   6.565   2.063  0.9789 -0.3073 -0.0746
   16MOL   H30311733   3.568   6.514   1.961 -1.7184  2.8297  1.1298
   16MOL   H30411734   3.498   6.099   2.076  1.7627 -0.3821 -0.0331
   16MOL   H30511735   3.289   6.162   2.171  1.9942 -0.9811  1.6934
   16MOL   C30611736   4.169   6.622   1.935  0.2679  0.3659  0.3091
   16MOL   C30711737   4.107   6.489   1.873 -0.3366 -0.2826  0.5235
   16MOL   C30811738   3.967   6.468   1.935  0.1078 -0.4734  0.0587
   16MOL   C30911739   3.893   6.357   1.872 -0.2626  0.1029 -0.0338
   16MOL   C31011740   3.981   6.443   2.092  0.3964 -0.1839 -0.0174
   16MOL   C31111741   4.053   6.558   2.160 -0.4752 -1.1399 -0.3925
   16MOL   C31211742   4.180   6.595   2.087  0.2880  0.3177  0.0657
   16MOL   C31311743   4.256   6.706   2.160  0.0537 -0.0851 -0.4523
   16MOL   O31411744   4.184   6.831   2.168  0.0420  0.2224 -0.7012
   16MOL   C31511745   4.212   6.936   2.085 -1.1291 -0.2973 -0.7276
   16MOL   O31611746   4.289   6.921   1.990  0.4811 -0.3309  0.1118
   16MOL   C31711747   4.132   7.056   2.115  0.2662 -0.2859 -0.9769
   16MOL   C31811748   4.164   7.177   2.048 -0.7221  0.0686  0.4645
   16MOL   C31911749   4.105   7.299   2.085 -0.1032  0.2879  0.0774
   16MOL   C32011750   4.014   7.306   2.197 -0.2237  0.0043  0.3356
   16MOL   C32111751   3.980   7.442   2.254 -0.7088 -0.0943 -0.3146
   16MOL   O32211752   3.986   7.548   2.198 -0.0138 -0.2877  0.1889
   16MOL   O32311753   3.938   7.439   2.380  0.0993 -0.1650  0.0760
   16MOL   C32411754   3.975   7.183   2.258  0.3065 -0.1565 -0.0865
   16MOL   C32511755   4.034   7.063   2.221  0.8207 -0.0037  0.5741
   16MOL   H32611756   4.100   6.701   1.905  1.3365  0.8609 -0.8654
   16MOL   H32711757   4.265   6.654   1.896 -0.2426  0.8078 -0.5902
   16MOL   H32811758   4.164   6.398   1.893  1.0974  0.4719 -0.1015
   16MOL   H32911759   4.103   6.494   1.765  0.9043  1.5502  0.5452
   16MOL   H33011760   3.911   6.559   1.917 -1.0370 -0.8696  1.5314
   16MOL   H33111761   3.932   6.266   1.918  0.5380 -0.4500 -1.7619
   16MOL   H33211762   3.909   6.349   1.764  0.0056  0.9030 -0.0486
   16MOL   H33311763   4.045   6.356   2.104 -1.1438 -1.2618  0.5187
   16MOL   H33411764   3.883   6.422   2.136 -1.2488  4.0094 -1.3857
   16MOL   H33511765   3.998   6.651   2.152 -0.9253 -1.4322 -0.7007
   16MOL   H33611766   4.081   6.522   2.260  0.8038  0.8076 -0.0350
   16MOL   H33711767   4.239   6.505   2.099  0.3867  0.3350 -0.2849
   16MOL   H33811768   4.362   6.711   2.133  0.1769 -0.1230  0.0196
   16MOL   H33911769   4.266   6.663   2.260 -0.5463  0.8134  0.0001
   16MOL   H34011770   4.230   7.193   1.965 -0.0675 -0.7034  0.8324
   16MOL   H34111771   4.147   7.389   2.041 -2.2797  1.2870 -0.0225
   16MOL   H34211772   3.915   7.182   2.348 -0.4560  2.8881 -0.5134
   16MOL   H34311773   4.007   6.973   2.273  0.3583 -0.2387 -0.0730
   16MOL   C34411774   3.601   7.790   2.497 -0.0349 -0.2922  0.4282
   16MOL   C34511775   3.748   7.734   2.525 -0.0430  0.2795 -0.2484
   16MOL   C34611776   3.778   7.618   2.427  0.9556  0.1040  0.4299
   16MOL   C34711777   3.916   7.558   2.454 -0.0182  0.1523 -0.6359
   16MOL   C34811778   3.673   7.511   2.435  0.2391  0.3405 -0.4823
   16MOL   C34911779   3.529   7.557   2.416 -0.1402 -0.8090  0.2925
   16MOL   C35011780   3.494   7.679   2.506  0.4395  0.3061 -0.4735
   16MOL   C35111781   3.357   7.739   2.489  0.2056 -0.0762  0.1811
   16MOL   O35211782   3.255   7.641   2.484  0.1340 -0.0307 -0.6356
   16MOL   C35311783   3.171   7.636   2.380 -0.0172  0.3068  0.2822
   16MOL   O35411784   3.141   7.732   2.303 -0.4555  0.5216 -0.1227
   16MOL   C35511785   3.093   7.512   2.373 -0.4986  0.4321 -0.1658
   16MOL   C35611786   2.991   7.503   2.278 -0.1286 -0.8180  0.2307
   16MOL   C35711787   2.917   7.382   2.260 -0.3976  0.3239  0.5230
   16MOL   C35811788   2.946   7.271   2.346  1.3275 -0.3805  0.1973
   16MOL   C35911789   2.866   7.148   2.345  0.2153 -0.3676 -0.3564
   16MOL   O36011790   2.893   7.055   2.422  0.0060 -0.1091 -0.5259
   16MOL   O36111791   2.761   7.145   2.267 -0.2437 -0.6326  0.7529
   16MOL   C36211792   3.049   7.284   2.443  0.6471  0.3574  0.1530
   16MOL   C36311793   3.119   7.407   2.460  0.1117 -0.3310  0.0201
   16MOL   H36411794   3.605   7.834   2.398  1.2811 -0.4795  0.3832
   16MOL   H36511795   3.565   7.860   2.573  1.0436  0.8200 -0.0724
   16MOL   H36611796   3.758   7.720   2.633  1.3161  2.9372 -0.0116
   16MOL   H36711797   3.818   7.815   2.510  1.4947 -0.6937  1.4281
   16MOL   H36811798   3.779   7.643   2.321  1.3110 -1.0032  0.1705
   16MOL   H36911799   3.918   7.537   2.561  0.1455 -0.4736 -0.7569
   16MOL   H37011800   3.994   7.635   2.453 -0.4980  0.6358 -1.6278
   16MOL   H37111801   3.690   7.449   2.524  0.6003  0.4330 -0.4881
   16MOL   H37211802   3.693   7.439   2.356  1.2239  0.0539  0.0124
   16MOL   H37311803   3.527   7.589   2.312 -0.7757  1.2834  0.9275
   16MOL   H37411804   3.463   7.472   2.430  0.1422 -0.9835  0.5802
   16MOL   H37511805   3.499   7.641   2.608 -1.0465 -0.0878 -0.5259
   16MOL   H37611806   3.350   7.798   2.398 -0.7714  0.3132  0.5106
   16MOL   H37711807   3.335   7.818   2.561 -2.2635 -0.9752  0.4561
   16MOL   H37811808   2.965   7.587   2.215 -0.6785  1.3684  3.2761
   16MOL   H37911809   2.837   7.376   2.187 -0.8914 -4.2194  1.2329
   16MOL   H38011810   3.064   7.207   2.518  2.3266 -0.4494 -0.9867
   16MOL   H38111811   3.195   7.425   2.535 -0.5731  0.6736  0.4853
   16MOL   C38211812   2.351   7.247   2.134  0.7259 -0.1149  0.5271
   16MOL   C38311813   2.488   7.177   2.138  0.4228  0.6679 -0.2945
   16MOL   C38411814   2.520   7.107   2.273 -0.6552 -0.6300  0.0986
   16MOL   C38511815   2.663   7.049   2.262  0.0391  0.5349 -0.8515
   16MOL   C38611816   2.499   7.211   2.396 -0.7715  0.2099  0.8507
   16MOL   C38711817   2.359   7.273   2.388 -0.9730 -1.0650  0.5521
   16MOL   C38811818   2.338   7.346   2.253 -0.3259  0.1088 -0.0408
   16MOL   C38911819   2.215   7.429   2.257  0.2849 -0.5029  0.1800
   16MOL   O39011820   2.220   7.531   2.158  0.0892 -0.4607 -0.4752
   16MOL   C39111821   2.176   7.512   2.034  0.2024  0.1603  0.2050
   16MOL   O39211822   2.118   7.415   1.988 -0.1501  0.2523  0.4364
   16MOL   C39311823   2.209   7.628   1.947 -0.4261 -0.3024  0.5768
   16MOL   C39411824   2.229   7.757   2.010 -0.5096 -0.3932 -0.2414
   16MOL   C39511825   2.258   7.870   1.925 -0.1914 -0.2106 -0.7571
   16MOL   C39611826   2.266   7.853   1.782  1.0250 -0.3931 -0.3348
   16MOL   C39711827   2.320   7.965   1.703 -0.5783 -0.2637  0.0714
   16MOL   O39811828   2.331   0.042   1.756  0.3862 -0.1659  0.0608
   16MOL   O39911829   2.358   7.935   1.575 -0.7309  0.2714 -0.3009
   16MOL   C40011830   2.229   7.730   1.721 -0.3048  0.4363  0.8892
   16MOL   C40111831   2.198   7.618   1.805 -0.0825  0.2488 -0.8569
   16MOL   H40211832   2.272   7.172   2.127  0.4439 -0.0291  2.4298
   16MOL   H40311833   2.343   7.292   2.035 -0.3211 -1.9580 -0.2682
   16MOL   H40411834   2.563   7.254   2.124 -1.2596  2.3268 -0.3059
   16MOL   H40511835   2.515   7.115   2.053  0.0753  0.4678 -0.2594
   16MOL   H40611836   2.447   7.028   2.295 -0.4634 -0.3093  1.9486
   16MOL   H40711837   2.685   6.995   2.170  0.0144  2.7167 -2.1880
   16MOL   H40811838   2.675   6.982   2.347  1.3417  0.1895 -1.3053
   16MOL   H40911839   2.570   7.292   2.404  1.1256 -1.3274 -0.0150
   16MOL   H41011840   2.506   7.139   2.478  0.9606 -0.8539 -0.2007
   16MOL   H41111841   2.286   7.193   2.398 -0.8065 -1.1248  1.3522
   16MOL   H41211842   2.367   7.342   2.473 -0.1210  1.3003 -1.3881
   16MOL   H41311843   2.423   7.413   2.251 -0.1785 -0.0417  0.9593
   16MOL   H41411844   2.211   7.485   2.351  0.8767  1.1312 -0.7360
   16MOL   H41511845   2.122   7.372   2.255 -1.3152  2.0049 -0.7093
   16MOL   H41611846   2.220   7.762   2.117 -0.2648  1.1373 -0.2832
   16MOL   H41711847   2.276   7.964   1.975  0.3636 -0.9140  0.4069
   16MOL   H41811848   2.233   7.722   1.614  1.6303 -2.4212  1.1123
   16MOL   H41911849   2.176   7.527   1.750 -0.1724 -1.1772  1.4682
   16MOL   C42011850   2.475   0.018   1.110  0.1841 -0.1667  0.8326
   16MOL   C42111851   2.480   0.060   1.254 -1.2490 -0.5624 -0.3179
   16MOL   C42211852   2.398   7.993   1.341 -0.1364 -0.4406  0.1021
   16MOL   C42311853   2.400   0.003   1.489 -0.2715 -0.3214  0.3976
   16MOL   C42411854   2.247   7.992   1.292  0.4119  0.5570  0.0953
   16MOL   C42511855   2.241   7.939   1.148 -0.7859 -0.2705  0.4313
   16MOL   C42611856   2.329   0.009   1.066  0.5066 -0.4165  0.4433
   16MOL   C42711857   2.315   8.020   0.918  0.2223 -0.2553  0.0037
   16MOL   O42811858   2.384   7.899   0.887  0.9409  0.6753 -0.5872
   16MOL   C42911859   2.372   7.851   0.759  0.3311 -0.9118  0.1788
   16MOL   O43011860   2.295   7.899   0.673  0.3747  0.6535  0.1860
   16MOL   C43111861   2.453   7.729   0.733  0.6948 -0.2075 -0.4356
   16MOL   C43211862   2.523   7.665   0.836  0.2171  0.6630  0.2932
   16MOL   C43311863   2.588   7.543   0.819 -0.3659  0.1809  1.6187
   16MOL   C43411864   2.581   7.475   0.694 -0.0997  0.9456 -0.0523
   16MOL   C43511865   2.660   7.350   0.682  0.1770  0.0844 -0.3076
   16MOL   O43611866   2.752   7.321   0.761 -0.2265  0.0171 -0.0071
   16MOL   O43711867   2.621   7.277   0.573  0.0057  0.3426  0.1579
   16MOL   C43811868   2.513   7.536   0.587  0.2831  0.3843 -0.0606
   16MOL   C43911869   2.448   7.659   0.612  0.4798 -0.7533  0.3941
   16MOL   H44011870   2.523   7.956   1.085  0.7975  1.1570 -3.4438
   16MOL   H44111871   2.521   0.098   1.052  0.6951 -0.3795  0.9411
   16MOL   H44211872   2.452   0.165   1.265 -0.0416 -0.1387 -1.1335
   16MOL   H44311873   2.586   0.065   1.278 -1.0165  0.6117 -1.4726
   16MOL   H44411874   2.429   7.889   1.333 -0.5244 -0.7379  2.1756
   16MOL   H44511875   2.344   0.093   1.515  0.8469  0.5523 -0.1915
   16MOL   H44611876   2.504   0.022   1.516  0.1927 -2.4571  0.2745
   16MOL   H44711877   2.214   0.062   1.310 -1.2613  0.0549 -0.1060
   16MOL   H44811878   2.173   7.934   1.345  0.3008  0.2864 -0.3534
   16MOL   H44911879   2.284   7.839   1.147  1.5035  0.6871 -0.0361
   16MOL   H45011880   2.138   7.941   1.111  0.2185  0.7191 -2.5120
   16MOL   H45111881   2.286   0.107   1.088 -1.9607 -1.8963  2.4968
   16MOL   H45211882   2.372   0.072   0.878 -0.1686  0.2553  0.5274
   16MOL   H45311883   2.211   8.024   0.885 -0.2004  0.5129  1.3898
   16MOL   H45411884   2.525   7.714   0.932 -1.5125 -0.5643  0.9870
   16MOL   H45511885   2.657   7.511   0.896  2.1401  0.3162 -0.4818
   16MOL   H45611886   2.509   7.482   0.494  0.3078 -1.8214  1.1699
   16MOL   H45711887   2.407   7.704   0.523  1.1976 -1.6681 -0.4239
   16MOL   C45811888   2.626   7.063   0.169 -0.3496  0.0751  0.0248
   16MOL   C45911889   2.644   7.159   0.297  0.6944  0.1859  0.8237
   16MOL   C46011890   2.647   7.082   0.429 -0.2563 -0.1673 -0.3545
   16MOL   C46111891   2.695   7.157   0.555 -0.4602 -0.8887  0.2627
   16MOL   C46211892   2.522   7.000   0.446  0.3978 -0.1438 -0.2133
   16MOL   C46311893   2.505   6.907   0.327  0.3898  0.1622  0.9981
   16MOL   C46411894   2.500   6.974   0.185 -0.0348  0.0101 -0.5269
   16MOL   C46511895   2.465   6.870   0.069 -0.3746 -0.4180 -0.2020
   16MOL   O46611896   2.431   6.960   7.994 -0.4946  0.3486 -0.0041
   16MOL   C46711897   2.336   6.934   7.899  0.0275  0.0382  0.1281
   16MOL   O46811898   2.265   6.831   7.898  0.2623 -0.3592  0.3408
   16MOL   C46911899   2.331   7.040   7.793 -0.3525  0.3903  0.4037
   16MOL   C47011900   2.295   7.006   7.662 -0.0570 -0.5506  0.2336
   16MOL   C47111901   2.279   7.099   7.558  0.2112  0.7879 -0.0142
   16MOL   C47211902   2.282   7.235   7.587  0.4322  0.2529  0.0184
   16MOL   C47311903   2.277   7.332   7.478  0.5875  0.6244 -0.2212
   16MOL   O47411904   2.252   7.303   7.362  0.2166 -0.0405  0.0764
   16MOL   O47511905   2.309   7.458   7.515  0.6242 -0.4216  0.6358
   16MOL   C47611906   2.313   7.276   7.719  0.0680  0.8491 -0.5753
   16MOL   C47711907   2.333   7.180   7.824 -0.0628 -0.0861 -0.2208
   16MOL   H47811908   2.711   6.998   0.152 -2.2752 -1.8086 -2.9312
   16MOL   H47911909   2.614   7.119   0.076 -0.5282 -0.3252 -0.1944
   16MOL   H48011910   2.555   7.221   0.292 -0.0587 -1.0152 -1.6017
   16MOL   H48111911   2.727   7.227   0.275  2.3790 -1.1046  2.9603
   16MOL   H48211912   2.729   7.011   0.419 -0.5310 -0.3632 -1.3398
   16MOL   H48311913   2.797   7.191   0.536 -0.4235 -0.9067  0.4347
   16MOL   H48411914   2.689   7.100   0.647  0.5935 -0.7071  0.4536
   16MOL   H48511915   2.430   7.057   0.453  0.7098  0.0521  3.0348
   16MOL   H48611916   2.534   6.942   0.538 -0.3070 -0.4296 -0.2990
   16MOL   H48711917   2.575   6.823   0.323 -0.2396 -0.2751 -2.1174
   16MOL   H48811918   2.411   6.858   0.351  0.0943  0.5467  0.6285
   16MOL   H48911919   2.413   7.038   0.198  1.2715  1.6593  0.3634
   16MOL   H49011920   2.373   6.819   0.099 -1.9319  3.0034  1.1764
   16MOL   H49111921   2.551   6.813   0.034 -1.0547 -0.7089 -1.4115
   16MOL   H49211922   2.277   6.903   7.635 -0.6227 -0.3843 -0.0269
   16MOL   H49311923   2.270   7.060   7.458 -0.1028  2.3908 -0.6278
   16MOL   H49411924   2.326   7.380   7.746  2.2381  0.3383  0.5042
   16MOL   H49511925   2.375   7.210   7.919  0.6760  0.0561 -0.5924
   16MOL   C49611926   2.565   7.840   7.345  0.3144 -0.1495 -0.8064
   16MOL   C49711927   2.428   7.774   7.374 -0.5440  0.9236  0.2644
   16MOL   C49811928   2.432   7.623   7.398 -0.0413 -0.3271 -0.2068
   16MOL   C49911929   2.299   7.559   7.418  0.6748 -0.0082 -0.3266
   16MOL   C50011930   2.519   7.555   7.286  0.7958 -0.1466  0.4701
   16MOL   C50111931   2.662   7.610   7.279  0.8873  0.2660 -0.0580
   16MOL   C50211932   2.651   7.761   7.236  0.3185  0.4020  0.0081
   16MOL   C50311933   2.786   7.835   7.219 -0.1121 -0.2202 -0.0868
   16MOL   O50411934   2.881   7.793   7.318 -0.2691  0.1004  0.1841
   16MOL   C50511935   2.901   7.872   7.434  0.1931 -0.1032 -0.0281
   16MOL   O50611936   2.859   7.984   7.448 -0.5818 -0.4088  0.3224
   16MOL   C50711937   2.959   7.805   7.549 -0.0801  0.0082 -0.5604
   16MOL   C50811938   3.017   7.675   7.541 -0.5089 -0.3428  0.0522
   16MOL   C50911939   3.067   7.608   7.652  0.0243  0.0045 -0.5756
   16MOL   C51011940   3.071   7.676   7.778 -0.3408 -0.2823  0.1111
   16MOL   C51111941   3.110   7.597   7.895 -0.6500 -0.4315  0.0106
   16MOL   O51211942   3.134   7.642   8.010  0.3199 -0.2518 -0.0402
   16MOL   O51311943   3.148   7.469   7.864  0.2037  0.6321 -0.6361
   16MOL   C51411944   3.032   7.813   7.784  0.1480 -0.6286  0.2217
   16MOL   C51511945   2.974   7.874   7.671 -0.3046 -0.3793 -0.5381
   16MOL   H51611946   2.622   7.820   7.435 -0.2213 -0.3293 -0.5039
   16MOL   H51711947   2.560   7.945   7.316  2.8755  0.3315  0.3240
   16MOL   H51811948   2.354   7.795   7.297  0.1060  1.0466 -0.3341
   16MOL   H51911949   2.388   7.814   7.467 -0.4680  1.5977  0.0111
   16MOL   H52011950   2.490   7.612   7.490  1.1759  0.7740 -0.8191
   16MOL   H52111951   2.245   7.529   7.328  0.3793  2.7422 -1.1244
   16MOL   H52211952   2.243   7.640   7.466  0.1244 -0.2583 -0.5423
   16MOL   H52311953   2.459   7.572   7.196  2.9390  2.9844 -0.4033
   16MOL   H52411954   2.514   7.446   7.286  0.1701 -0.1241  0.9160
   16MOL   H52511955   2.709   7.611   7.377 -0.6802  1.6493  0.7086
   16MOL   H52611956   2.718   7.549   7.208 -0.5541  1.6131 -2.4390
   16MOL   H52711957   2.600   7.762   7.139 -0.5794 -0.2149  0.4658
   16MOL   H52811958   2.769   7.942   7.207  1.4944 -0.1641 -1.9458
   16MOL   H52911959   2.843   7.821   7.128  1.1518 -0.2155  0.6986
   16MOL   H53011960   3.010   7.628   7.444  2.6536  0.5366 -0.6590
   16MOL   H53111961   3.099   7.506   7.641  0.0673 -0.3834  2.6964
   16MOL   H53211962   3.048   7.864   7.877 -0.1511 -2.0386  1.0689
   16MOL   H53311963   2.945   7.977   7.684 -1.1149 -0.4258 -1.8802
   16MOL   C53411964   3.582   7.400   8.002 -0.7479  0.3199  0.4566
   16MOL   C53511965   3.450   7.365   7.931  0.1337 -0.1373  0.1064
   16MOL   C53611966   3.337   7.409   8.021 -0.5038 -0.2483  0.1573
   16MOL   C53711967   3.197   7.381   7.969  0.0549  0.1258  0.8524
   16MOL   C53811968   3.350   7.352   0.133 -0.6492  1.0048 -0.1188
   16MOL   C53911969   3.489   7.376   0.198  0.2471 -0.1850  0.2743
   16MOL   C54011970   3.600   7.326   0.102  0.1406 -0.2110 -0.0084
   16MOL   C54111971   3.739   7.330   0.176 -1.0883  0.5514  0.2007
   16MOL   O54211972   3.729   7.330   0.320  0.0881 -0.0642 -0.4361
   16MOL   C54311973   3.757   7.222   0.386 -0.2384  0.4978 -0.6610
   16MOL   O54411974   3.786   7.109   0.335 -0.5891 -0.0374  0.2842
   16MOL   C54511975   3.762   7.242   0.537  0.1989  0.8966  0.2606
   16MOL   C54611976   3.786   7.365   0.602 -0.3998  0.0664  0.6984
   16MOL   C54711977   3.796   7.380   0.739 -0.2838 -0.1704  0.5822
   16MOL   C54811978   3.785   7.267   0.823  0.7894  0.7299 -0.8304
   16MOL   C54911979   3.803   7.275   0.972 -0.2402  0.4680 -0.4684
   16MOL   O55011980   3.843   7.184   1.046  0.2404  0.0224  0.5589
   16MOL   O55111981   3.763   7.393   1.012 -0.3629 -0.2375 -0.5222
   16MOL   C55211982   3.756   7.141   0.765  0.1587  0.3111 -0.2292
   16MOL   C55311983   3.746   7.127   0.625 -0.1138  0.2678  0.1621
   16MOL   H55411984   3.586   7.507   8.021  1.5280  0.7681 -2.3229
   16MOL   H55511985   3.667   7.372   7.940 -0.0241 -0.1914  1.6611
   16MOL   H55611986   3.428   7.259   7.918  0.2782  0.0300 -1.6531
   16MOL   H55711987   3.432   7.415   7.836  0.4274  0.6597  0.4722
   16MOL   H55811988   3.341   7.517   0.003 -0.1929 -0.1812 -0.4360
   16MOL   H55911989   3.126   7.389   0.020 -0.1706  0.3590  0.6389
   16MOL   H56011990   3.204   7.275   7.945 -0.5354  0.3081 -0.1640
   16MOL   H56111991   3.335   7.244   0.129 -1.4370  1.1214 -0.2593
   16MOL   H56211992   3.271   7.395   0.193 -2.2990 -0.9854 -0.8099
   16MOL   H56311993   3.504   7.480   0.230  2.9319 -1.0614  1.9971
   16MOL   H56411994   3.484   7.318   0.290  0.0620 -0.8323 -0.1470
   16MOL   H56511995   3.575   7.221   0.088  0.4808 -0.5218  1.5616
   16MOL   H56611996   3.802   7.413   0.142  1.0149 -0.5346  1.3428
   16MOL   H56711997   3.791   7.245   0.132  1.8651  2.3184  0.1512
   16MOL   H56811998   3.787   7.447   0.532  1.3822 -1.0037 -0.5647
   16MOL   H56911999   3.798   7.481   0.777  0.8551 -0.5805  1.6648
   16MOL   H57012000   3.758   7.052   0.826  0.2430  0.6119  0.2080
   16MOL   H57112001   3.729   7.031   0.579  1.1972 -0.3468  0.9224
   16MOL   C57212002   3.603   7.757   1.227  0.1571  0.8756  0.0437
   16MOL   C57312003   3.625   7.613   1.164  0.3834 -0.5296  0.0926
   16MOL   C57412004   3.769   7.573   1.184 -0.3766  0.1536  0.0527
   16MOL   C57512005   3.782   7.417   1.149 -1.1189 -0.8597  0.1339
   16MOL   C57612006   3.848   7.654   1.086 -0.7671 -0.1319 -0.1152
   16MOL   C57712007   3.821   7.804   1.121  0.1069  0.1133 -0.0649
   16MOL   C57812008   3.683   7.855   1.142  0.3009 -0.7960  0.3372
   16MOL   C57912009   3.667   7.995   1.199  0.2407 -0.0280 -0.0272
   16MOL   O58012010   3.534   0.007   1.220 -0.0266  0.5559  0.0992
   16MOL   C58112011   3.497   0.069   1.337 -0.5558 -0.5093  0.0277
   16MOL   O58212012   3.569   0.092   1.429  0.2499  0.3794 -0.3096
   16MOL   C58312013   3.352   0.100   1.345 -0.2642 -0.2698  0.3159
   16MOL   C58412014   3.263   0.037   1.250  1.0117 -0.5141  0.2960
   16MOL   C58512015   3.123   0.068   1.261  0.0697  0.1659 -0.1799
   16MOL   C58612016   3.077   0.150   1.369 -0.4940  0.5634 -0.3285
   16MOL   C58712017   2.934   0.162   1.378 -0.0097 -0.0533  0.7069
   16MOL   O58812018   2.853   0.102   1.312  0.0045  0.0983 -0.3815
   16MOL   O58912019   2.895   0.250   1.473  0.5272 -0.3343 -0.2535
   16MOL   C59012020   3.169   0.205   1.463 -0.7253  0.4850  0.5228
   16MOL   C59112021   3.302   0.192   1.446 -0.4822  0.0140 -0.5610
   16MOL   H59212022   3.623   7.755   1.334 -0.6770  3.1813  0.2693
   16MOL   H59312023   3.499   7.790   1.218 -0.2891 -0.9788 -2.0761
   16MOL   H59412024   3.593   7.621   1.060 -0.3431  1.7166  0.4663
   16MOL   H59512025   3.555   7.539   1.203 -0.5633  0.6735  0.7262
   16MOL   H59612026   3.783   7.589   1.291  1.1786 -0.9424  0.0211
   16MOL   H59712027   3.713   7.362   1.213 -0.1719 -0.1933  1.7573
   16MOL   H59812028   3.877   7.379   1.185 -0.5777  1.4312  1.2477
   16MOL   H59912029   3.839   7.638   0.978  0.3404  0.5866 -0.3209
   16MOL   H60012030   3.954   7.634   1.105 -0.8824  1.3019  2.2915
   16MOL   H60112031   3.877   7.808   1.215  0.6773 -0.2326 -0.3833
   16MOL   H60212032   3.887   7.866   1.060  0.3379 -1.6633 -1.6502
   16MOL   H60312033   3.639   7.861   1.043  1.0610 -1.8748 -0.0674
   16MOL   H60412034   3.696   0.046   1.133  0.3164  1.3080  1.6450
   16MOL   H60512035   3.730   8.011   1.286 -0.3195  0.1428  0.3479
   16MOL   H60612036   3.297   8.006   1.168 -0.9193  0.1464 -1.0543
   16MOL   H60712037   3.060   0.007   1.198 -1.3455 -0.8487  2.1297
   16MOL   H60812038   3.137   0.266   1.546 -0.0023  0.2845  0.9538
   16MOL   H60912039   3.372   0.236   1.516  1.3533 -1.7966 -1.1914
   16MOL   C61012040   2.720   0.183   1.867  0.0088  0.1670  0.0818
   16MOL   C61112041   2.741   0.152   1.718  0.3225 -0.0803 -0.2684
   16MOL   C61212042   2.720   0.284   1.632  0.1035  0.1298  0.8419
   16MOL   C61312043   2.752   0.267   1.490  0.5900  0.0063  0.1710
   16MOL   C61412044   2.565   0.326   1.643 -0.2909  0.4306  0.2964
   16MOL   C61512045   2.538   0.371   1.787 -0.1106 -0.2555 -0.0323
   16MOL   C61612046   2.572   0.251   1.888  0.3916  1.1349 -0.1207
   16MOL   C61712047   2.554   0.279   2.028  0.0349  0.8379  0.0628
   16MOL   O61812048   2.509   0.165   2.100 -0.5094  0.6621 -0.0300
   16MOL   C61912049   2.547   0.159   2.231 -0.4312  0.5689 -0.3663
   16MOL   O62012050   2.627   0.238   2.283  0.6037 -0.2763  0.0516
   16MOL   C62112051   2.470   0.067   2.320 -0.4898 -0.2557  0.3746
   16MOL   C62212052   2.517   0.042   2.451 -0.1951  0.1228  0.1350
   16MOL   C62312053   2.444   7.989   2.534  0.3075 -1.1610  0.2153
   16MOL   C62412054   2.321   7.938   2.495  0.9005 -0.2154 -0.7240
   16MOL   C62512055   2.247   7.844   2.580  0.7557 -0.3106 -0.4371
   16MOL   O62612056   2.151   7.779   2.541  0.3458 -0.1077  0.2375
   16MOL   O62712057   2.296   7.838   2.700  0.2223 -0.2081  0.3826
   16MOL   C62812058   2.277   7.956   2.362 -0.2081 -0.1163 -0.6198
   16MOL   C62912059   2.345   0.021   2.279 -0.2629  0.1941 -0.3483
   16MOL   H63012060   2.798   0.256   1.891  1.2396 -1.6215  1.6058
   16MOL   H63112061   2.734   0.095   1.930 -0.6018 -1.1317 -1.5796
   16MOL   H63212062   2.677   0.071   1.683  1.1529  0.4295 -3.1414
   16MOL   H63312063   2.845   0.120   1.714  0.2825 -0.0625 -2.1209
   16MOL   H63412064   2.780   0.363   1.677  0.4445  0.0716  0.4951
   16MOL   H63512065   2.723   0.352   1.430  0.0347 -1.2264 -1.3258
   16MOL   H63612066   2.690   0.189   1.447  0.5159  0.8326 -1.2279
   16MOL   H63712067   2.504   0.241   1.613 -0.7477  0.1707  1.9218
   16MOL   H63812068   2.539   0.406   1.573 -0.1854  0.7914  0.6630
   16MOL   H63912069   2.604   0.456   1.806 -1.0259  0.3689  0.3555
   16MOL   H64012070   2.436   0.410   1.789 -0.1545 -0.3606 -0.2123
   16MOL   H64112071   2.501   0.175   1.854  1.1498  0.7827 -0.9348
   16MOL   H64212072   2.473   0.352   2.017 -0.2669  0.3691 -0.8442
   16MOL   H64312073   2.637   0.339   2.066  0.5019  1.7037 -2.2539
   16MOL   H64412074   2.602   0.095   2.492  0.9454 -1.3710 -0.2382
   16MOL   H64512075   2.485   7.979   2.634  0.0029 -0.5086  0.4105
   16MOL   H64612076   2.186   7.909   2.329  0.2021 -1.3833  0.0250
   16MOL   H64712077   2.298   0.032   2.182  0.5224 -2.4072 -1.0763
   16MOL   C64812078   2.028   8.028   3.015  0.2233 -0.2480 -0.0143
   16MOL   C64912079   2.153   7.947   2.968 -0.0765  0.2679  0.5048
   16MOL   C65012080   2.107   7.834   2.869  0.1405 -0.5254 -0.2053
   16MOL   C65112081   2.223   7.756   2.799 -0.3314 -0.2868  0.6392
   16MOL   C65212082   2.001   7.750   2.933  0.6422  0.1542 -0.0717
   16MOL   C65312083   1.870   7.833   2.960 -0.8575  0.1477  0.1943
   16MOL   C65412084   1.905   7.947   3.055 -0.3502  0.1644 -0.0740
   16MOL   C65512085   1.779   8.028   3.073  0.5641 -0.4399 -0.1926
   16MOL   O65612086   1.788   0.109   3.150 -0.4238  0.0938  0.2419
   16MOL   C65712087   1.776   0.111   3.287  0.1103  0.5691 -0.2373
   16MOL   O65812088   1.755   0.009   3.348  0.7837  0.0725 -0.0400
   16MOL   C65912089   1.764   0.251   3.349 -0.6684  0.0157 -0.8199
   16MOL   C66012090   1.812   0.365   3.285 -0.9599  0.1215  0.8221
   16MOL   C66112091   1.791   0.493   3.342  0.2729 -0.0995 -0.2532
   16MOL   C66212092   1.716   0.511   3.463  0.1378 -0.2643 -0.4615
   16MOL   C66312093   1.701   0.647   3.518  0.9246  0.1731  0.2395
   16MOL   O66412094   1.765   0.744   3.475 -0.1713  0.0849 -0.0016
   16MOL   O66512095   1.615   0.656   3.613 -0.2792 -0.1477  0.4025
   16MOL   C66612096   1.658   0.398   3.519 -0.5928  0.1820  0.1204
   16MOL   C66712097   1.681   0.268   3.467 -0.1362  0.2452  0.0376
   16MOL   H66812098   1.997   0.046   2.923  0.5395 -1.2701 -0.6853
   16MOL   H66912099   2.046   0.069   3.094 -1.1215  2.3834 -2.0374
   16MOL   H67012100   2.202   7.900   3.053 -1.6833 -2.9110 -0.2412
   16MOL   H67112101   2.219   8.020   2.923 -0.0012 -0.0977  0.0237
   16MOL   H67212102   2.055   7.879   2.784 -0.5304 -2.7130 -0.9950
   16MOL   H67312103   2.182   7.661   2.764 -2.4949  0.0706  2.0608
   16MOL   H67412104   2.290   7.721   2.877  0.1990 -0.5543  0.0740
   16MOL   H67512105   2.037   7.698   3.022  1.3761 -1.6475 -1.3813
   16MOL   H67612106   1.973   7.667   2.867 -2.1958  1.0748 -0.0631
   16MOL   H67712107   1.838   7.872   2.863  1.5112 -0.2552 -0.7725
   16MOL   H67812108   1.782   7.780   2.997 -0.1896 -0.8032  0.4340
   16MOL   H67912109   1.928   7.895   3.148 -0.1692 -1.5125 -1.0341
   16MOL   H68012110   1.697   7.960   3.098 -1.6926  1.6661 -1.7048
   16MOL   H68112111   1.757   0.031   2.972 -2.3719 -0.8291  0.2633
   16MOL   H68212112   1.878   0.358   3.200 -0.1338 -0.8210  1.5477
   16MOL   H68312113   1.830   0.577   3.286 -0.5527 -0.9744 -2.1858
   16MOL   H68412114   1.600   0.410   3.609 -0.7196  3.0602 -0.2946
   16MOL   H68512115   1.641   0.181   3.516  2.0574 -0.5643  0.4418
   16MOL   C68612116   1.321   0.890   3.929 -0.6228  0.3419 -0.4978
   16MOL   C68712117   1.450   0.882   3.848 -0.7636  0.7617 -0.3398
   16MOL   C68812118   1.451   0.765   3.751 -0.8196  0.3802 -0.1859
   16MOL   C68912119   1.595   0.769   3.689 -0.0708  0.0702 -0.4682
   16MOL   C69012120   1.418   0.632   3.832  0.2281 -0.5686 -0.2575
   16MOL   C69112121   1.304   0.646   3.936  0.0894 -0.2242  0.7202
   16MOL   C69212122   1.299   0.777   4.017 -0.2906 -0.0937 -0.7013
   16MOL   C69312123   1.164   0.795   4.085 -0.1674  0.8518 -0.2744
   16MOL   O69412124   1.152   0.907   4.174 -0.4038  0.2937  0.4798
   16MOL   C69512125   1.170   0.895   4.305 -0.3195  0.1484 -0.2180
   16MOL   O69612126   1.210   0.789   4.362  0.3974 -0.3812 -0.3058
   16MOL   C69712127   1.153   1.019   4.379 -0.4031 -0.3775  0.5934
   16MOL   C69812128   1.130   1.014   4.519 -0.3761 -0.0558  0.4238
   16MOL   C69912129   1.108   1.129   4.591 -0.1812  0.1905  0.0754
   16MOL   C70012130   1.122   1.255   4.527  0.4248 -0.3937 -0.9785
   16MOL   C70112131   1.116   1.380   4.608 -0.5742  0.2277  0.1944
   16MOL   O70212132   1.140   1.377   4.730  0.1786  0.2404  0.4702
   16MOL   O70312133   1.088   1.494   4.539  0.3049  0.0814  0.4796
   16MOL   C70412134   1.152   1.256   4.386  0.0513  1.0179 -0.1810
   16MOL   C70512135   1.173   1.138   4.313  0.1541  0.0228 -0.0258
   16MOL   H70612136   1.242   0.899   3.854 -1.7930  0.2831  0.7172
   16MOL   H70712137   1.327   0.975   3.997  1.4104 -1.2008  1.3289
   16MOL   H70812138   1.532   0.852   3.913 -1.2797  1.8356  0.8314
   16MOL   H70912139   1.473   0.974   3.793  0.8564 -0.6983 -2.1767
   16MOL   H71012140   1.377   0.778   3.672  0.3921 -0.2666 -1.4548
   16MOL   H71112141   1.667   0.779   3.770  1.4957  0.5928 -1.9117
   16MOL   H71212142   1.615   0.854   3.625 -0.9882 -1.3236 -2.6513
   16MOL   H71312143   1.516   0.607   3.874  0.2162 -0.0573  0.0794
   16MOL   H71412144   1.381   0.554   3.766  0.2720 -1.3622  0.6466
   16MOL   H71512145   1.214   0.632   3.876  0.5056  2.6703 -0.6596
   16MOL   H71612146   1.308   0.570   4.015  1.1994 -0.7165  0.1982
   16MOL   H71712147   1.386   0.773   4.083 -0.0214  0.4185 -1.0183
   16MOL   H71812148   1.131   0.708   4.142 -2.0853  0.9847 -1.1484
   16MOL   H71912149   1.093   0.804   4.003 -0.2418  0.4033 -0.2602
   16MOL   H72012150   1.134   0.914   4.559 -3.3347 -0.8577 -1.1105
   16MOL   H72112151   1.101   1.122   4.698  1.4053 -2.3962  0.0586
   16MOL   H72212152   1.156   1.343   4.323 -1.2705 -0.0728 -1.8350
   16MOL   H72312153   1.179   1.135   4.205 -1.5370 -0.7856 -0.1136
   16MOL   C72412154   0.820   1.847   4.444  0.8816  0.1170 -0.2051
   16MOL   C72512155   0.894   1.742   4.530 -0.6854 -0.2457 -0.6161
   16MOL   C72612156   1.046   1.734   4.512 -0.5727  0.2595  0.3017
   16MOL   C72712157   1.109   1.624   4.598 -0.1377  0.2010  0.4616
   16MOL   C72812158   1.073   1.713   4.363  0.2785  0.0433  0.2228
   16MOL   C72912159   1.011   1.809   4.271  0.5539 -0.5248  0.0212
   16MOL   C73012160   0.854   1.837   4.298 -0.1126 -0.0877  0.4411
   16MOL   C73112161   0.780   1.945   4.221  0.3154 -0.4129  0.3933
   16MOL   O73212162   0.790   1.932   4.087  0.2160 -0.0654  0.1680
   16MOL   C73312163   0.716   2.013   3.998 -0.5197 -0.3400  0.2009
   16MOL   O73412164   0.669   2.122   4.031 -0.3799 -0.6218  0.0039
   16MOL   C73512165   0.717   1.962   3.861  0.1327  0.8367  0.5070
   16MOL   C73612166   0.807   1.858   3.820  0.7535 -0.1056  0.3316
   16MOL   C73712167   0.799   1.807   3.690 -0.1984  0.8580 -0.4026
   16MOL   C73812168   0.714   1.852   3.595  0.6203  0.0011  0.4298
   16MOL   C73912169   0.713   1.809   3.448 -0.3434  0.2696  0.3532
   16MOL   O74012170   0.617   1.823   3.370  0.4223 -0.2449 -0.3091
   16MOL   O74112171   0.828   1.742   3.415  0.0387  0.6188 -0.4464
   16MOL   C74212172   0.626   1.954   3.630  0.3757  0.6781 -0.1702
   16MOL   C74312173   0.629   2.006   3.763  0.2588  0.4731 -0.7373
   16MOL   H74412174   0.842   1.947   4.483  0.5124  0.3414 -0.5673
   16MOL   H74512175   0.711   1.840   4.451  0.8497  0.0496 -0.7236
   16MOL   H74612176   0.867   1.641   4.499 -2.7114 -0.2281  1.0089
   16MOL   H74712177   0.865   1.737   4.635 -0.6939  2.5095 -0.4499
   16MOL   H74812178   1.090   1.828   4.546  0.0030  0.6442 -1.4219
   16MOL   H74912179   1.066   1.619   4.698  0.8676 -0.4356  0.8720
   16MOL   H75012180   1.217   1.632   4.613 -0.3918  1.1874  1.9040
   16MOL   H75112181   1.064   1.610   4.328  0.1873  0.6809 -1.7053
   16MOL   H75212182   1.181   1.725   4.357  0.2014  0.6604  0.0383
   16MOL   H75312183   1.061   1.903   4.291  0.4129  0.0207 -2.0217
   16MOL   H75412184   1.040   1.791   4.167 -0.3640 -0.3140 -0.2788
   16MOL   H75512185   0.805   1.743   4.270  0.3655 -0.4788  0.9087
   16MOL   H75612186   0.813   2.039   4.264 -0.5377  0.4888 -0.8593
   16MOL   H75712187   0.673   1.921   4.228  0.8065 -2.7061  0.5712
   16MOL   H75812188   0.886   1.843   3.891 -1.9194 -1.7894  3.0342
   16MOL   H75912189   0.878   1.738   3.662 -1.0756 -0.0366 -0.7206
   16MOL   H76012190   0.546   1.988   3.567  2.3774  0.1712 -3.1068
   16MOL   H76112191   0.565   2.091   3.784 -0.2072  0.0222 -0.2949
   16MOL   H76212192   0.837   1.728   3.322 -0.4263  0.6644 -0.5031
   17MOL     C112193   0.228   7.018   5.103 -0.3078 -0.0329 -0.0437
   17MOL     C212194   0.278   6.922   5.218  0.3436 -0.1999  0.0458
   17MOL     C312195   0.311   6.776   5.171  1.2081 -0.2778 -0.2027
   17MOL     C412196   0.359   6.681   5.286 -0.2885  0.0171  0.1073
   17MOL     C512197   0.179   6.706   5.117  0.3452  0.6352 -0.0763
   17MOL     C612198   0.131   6.788   5.001 -0.6510  0.8075  0.0832
   17MOL     C712199   0.108   6.944   5.025  0.6515 -0.4652  0.0542
   17MOL     C812200   0.046   7.017   4.898 -0.0458  0.1026 -0.4300
   17MOL     O912201   0.153   7.063   4.812  0.0428  0.0765 -0.2920
   17MOL    C1012202   0.128   7.120   4.691 -0.1728  0.4680 -0.0374
   17MOL    O1112203   0.016   7.144   4.641  0.2914 -0.0632 -0.0710
   17MOL    C1212204   0.247   7.165   4.615 -1.1688  0.4995  0.3707
   17MOL    C1312205   0.379   7.137   4.665 -0.1453 -0.4636 -0.4248
   17MOL    C1412206   0.493   7.202   4.614 -0.8544 -0.5772  0.5149
   17MOL    C1512207   0.474   7.281   4.499  0.1193 -0.0129 -0.3182
   17MOL    C1612208   0.590   7.351   4.435 -0.3981  0.2472 -0.2003
   17MOL    O1712209   0.707   7.333   4.478 -0.2740 -0.4683  0.3818
   17MOL    O1812210   0.560   7.423   4.332 -0.4177  0.0439  0.8610
   17MOL    C1912211   0.346   7.297   4.441  1.3389 -0.2334  0.2488
   17MOL    C2012212   0.232   7.240   4.501 -0.3970 -0.0786 -0.2199
   17MOL    H2112213   0.305   7.049   5.032  1.0461 -1.5225  0.7508
   17MOL    H2212214   0.196   7.119   5.129 -0.0335  0.1137 -0.2761
   17MOL    H2312215   0.199   6.913   5.293 -0.3224  2.7526 -0.2438
   17MOL    H2412216   0.352   6.964   5.285 -0.2187  2.8729 -1.2063
   17MOL    H2512217   0.391   6.771   5.097  0.9443 -2.0509 -0.4061
   17MOL    H2612218   0.441   6.717   5.349  0.1508 -0.2706 -0.2978
   17MOL    H2712219   0.392   6.587   5.243 -1.3384 -0.5174  0.4699
   17MOL    H2812220   0.107   6.709   5.199  0.6879  1.6688  0.2022
   17MOL    H2912221   0.190   6.601   5.089 -1.6059 -1.0503  4.9996
   17MOL    H3012222   0.203   6.777   4.920  1.5748 -0.4593  2.1840
   17MOL    H3112223   0.036   6.756   4.958 -0.5693  0.2779  0.2856
   17MOL    H3212224   0.030   6.941   5.101 -0.0428  1.7134 -0.5135
   17MOL    H3312225   8.014   7.098   4.933 -0.3412 -0.2718 -0.0873
   17MOL    H3412226   8.012   6.946   4.847 -0.0752 -0.8392  0.8786
   17MOL    H3512227   0.390   7.075   4.753 -0.4783 -1.7825 -1.2921
   17MOL    H3612228   0.590   7.162   4.638 -0.4973 -0.8323 -1.2673
   17MOL    H3712229   0.341   7.358   4.353  1.7938 -0.3817  0.1195
   17MOL    H3812230   0.135   7.260   4.456 -0.3334  0.7172 -0.0048
   17MOL    H3912231   0.273   6.653   5.347  0.7594 -1.3810  0.9659
   17MOL    C4012232   0.839   7.846   4.231  0.6459  0.1924  0.8212
   17MOL    C4112233   0.804   7.706   4.188  0.5296  0.2251 -0.6435
   17MOL    C4212234   0.691   7.637   4.278 -0.2314 -0.1988 -0.5609
   17MOL    C4312235   0.665   7.490   4.245 -0.2237 -0.4876 -0.0304
   17MOL    C4412236   0.738   7.651   4.425  0.1949 -0.3953  0.4797
   17MOL    C4512237   0.791   7.792   4.471 -0.2630 -0.1100 -0.2096
   17MOL    C4612238   0.894   7.863   4.375 -0.1336 -0.5212  0.0470
   17MOL    C4712239   0.925   8.008   4.423  0.4011 -1.0990  0.6749
   17MOL    O4812240   0.811   0.058   4.396  0.1614 -0.3155  0.0920
   17MOL    C4912241   0.794   0.172   4.469 -0.6269  0.2506  0.5936
   17MOL    O5012242   0.876   0.208   4.550 -0.6124 -0.3270  0.1521
   17MOL    C5112243   0.675   0.248   4.431 -0.0593  0.0803 -0.2496
   17MOL    C5212244   0.610   0.228   4.308 -0.0995 -0.9878 -0.1633
   17MOL    C5312245   0.496   0.306   4.277  0.1610  0.3492 -0.0191
   17MOL    C5412246   0.448   0.396   4.374  0.3254  0.8947  0.1997
   17MOL    C5512247   0.325   0.474   4.347  0.7200 -0.0512 -0.8300
   17MOL    O5612248   0.280   0.563   4.416 -0.4212 -0.0920 -0.1405
   17MOL    O5712249   0.276   0.441   4.231 -0.1037 -0.6353  0.5910
   17MOL    C5812250   0.513   0.414   4.496  0.2193  0.3791 -0.6100
   17MOL    C5912251   0.627   0.340   4.525 -0.3114 -0.7836  0.7023
   17MOL    H6012252   0.747   7.902   4.218 -0.0714 -0.5734  2.4205
   17MOL    H6112253   0.918   7.878   4.163 -1.3337  2.0126 -0.6651
   17MOL    H6212254   0.895   7.651   4.208 -0.7412 -1.3143  1.1022
   17MOL    H6312255   0.777   7.707   4.082 -1.7411 -0.7322 -0.1137
   17MOL    H6412256   0.599   7.689   4.253  0.5854  1.5745  0.0435
   17MOL    H6512257   0.763   7.443   4.252 -0.0392  0.0699  1.3017
   17MOL    H6612258   0.634   7.484   4.140 -2.2219  0.9784  0.4282
   17MOL    H6712259   0.828   7.589   4.439  0.9674  0.5374 -0.2885
   17MOL    H6812260   0.668   7.616   4.501 -0.4380 -1.3897 -0.5518
   17MOL    H6912261   0.707   7.859   4.485  0.1505  0.2785  0.4247
   17MOL    H7012262   0.828   7.778   4.572 -0.4842  0.2522 -0.0815
   17MOL    H7112263   0.982   7.801   4.391  0.5648  0.8444  1.7187
   17MOL    H7212264   1.018   0.004   4.372  1.0131 -1.4513  1.5991
   17MOL    H7312265   0.951   8.010   4.528 -0.1087  1.3306  0.7942
   17MOL    H7412266   0.647   0.157   4.236 -0.7303  0.1979 -1.6914
   17MOL    H7512267   0.440   0.293   4.185  0.5522 -0.0242 -0.2102
   17MOL    H7612268   0.481   0.489   4.567 -0.6821  0.2534 -0.8708
   17MOL    H7712269   0.678   0.347   4.620  0.2987 -2.6638  0.5296
   17MOL    C7812270   0.248   0.821   3.995 -0.2298  0.5271 -0.1179
   17MOL    C7912271   0.215   0.721   4.109  0.0714  0.1345  0.0858
   17MOL    C8012272   0.187   0.579   4.059  0.5377  0.3649  0.1347
   17MOL    C8112273   0.156   0.487   4.180  0.3044  0.0421 -0.1638
   17MOL    C8212274   0.071   0.585   3.962 -0.2410 -0.9363 -0.9051
   17MOL    C8312275   0.114   0.674   3.846  0.0765  0.2057  0.3181
   17MOL    C8412276   0.145   0.821   3.883 -0.1165 -0.2879  0.1687
   17MOL    C8512277   0.196   0.907   3.776  0.0369 -0.3226  0.8881
   17MOL    O8612278   0.170   1.048   3.794 -0.1418  0.0594  0.4402
   17MOL    C8712279   0.077   1.108   3.719 -0.2970  0.1231  0.3364
   17MOL    O8812280   0.030   1.051   3.620 -0.2277 -0.1137  0.0548
   17MOL    C8912281   0.059   1.253   3.757  0.2632  0.2437  0.4695
   17MOL    C9012282   0.072   1.288   3.893 -0.3471 -0.0896  0.6229
   17MOL    C9112283   0.059   1.419   3.933  0.0564 -0.5798 -0.3374
   17MOL    C9212284   0.030   1.522   3.844  0.5393  0.1660  0.7366
   17MOL    C9312285   0.024   1.668   3.886  0.1719  0.1262  0.2803
   17MOL    O9412286   0.029   1.758   3.804 -0.0986 -0.1925 -0.4660
   17MOL    O9512287   0.027   1.679   4.017 -1.0736  0.2900  0.4495
   17MOL    C9612288   0.026   1.487   3.710 -0.5523  0.4658  0.0086
   17MOL    C9712289   0.043   1.352   3.665 -0.3226  0.2086  0.3947
   17MOL    H9812290   0.343   0.784   3.956  0.1199 -1.2544  2.3182
   17MOL    H9912291   0.265   0.923   4.030 -1.1409  0.1540  1.4592
   17MOL   H10012292   0.134   0.753   4.176  0.5540 -0.3568  0.9123
   17MOL   H10112293   0.298   0.725   4.179  1.1797  0.7669 -1.2500
   17MOL   H10212294   0.272   0.534   4.008  0.5370  1.0203 -0.4493
   17MOL   H10312295   0.095   0.399   4.163  0.4721 -0.2309  0.6030
   17MOL   H10412296   0.092   0.545   4.246  0.7376  1.0841 -0.6452
   17MOL   H10512297   8.010   0.616   4.008  1.1577 -2.5108  3.2785
   17MOL   H10612298   0.052   0.483   3.929 -0.4254 -1.4272  0.6809
   17MOL   H10712299   0.194   0.621   3.795 -0.3330  1.4259 -1.6731
   17MOL   H10812300   0.036   0.682   3.770  2.5574 -2.1404 -2.6272
   17MOL   H10912301   0.046   0.856   3.911 -0.2717  2.7954 -3.8664
   17MOL   H11012302   0.157   0.876   3.678  1.0482  1.9298 -0.2515
   17MOL   H11112303   0.303   0.889   3.782  0.2717  0.2125 -1.2607
   17MOL   H11212304   0.078   1.214   3.971  0.6511 -1.1861 -0.4595
   17MOL   H11312305   0.085   1.456   4.031 -1.5907  3.3885 -1.2997
   17MOL   H11412306   0.025   1.567   3.638 -1.4307  0.0897 -0.4042
   17MOL   H11512307   0.046   1.337   3.558  0.0442  0.9004  0.3073
   17MOL   C11612308   0.052   1.911   4.456  0.1259 -0.1409 -0.1057
   17MOL   C11712309   0.036   1.932   4.307 -0.1308  0.3944  0.1750
   17MOL   C11812310   0.024   1.793   4.231 -0.2646 -0.9790  0.0839
   17MOL   C11912311   0.033   1.803   4.079  0.4031 -0.5024 -0.0187
   17MOL   C12012312   0.108   1.674   4.288 -0.2034  0.3257  0.2549
   17MOL   C12112313   0.124   1.668   4.440 -0.1425  0.3938 -0.2441
   17MOL   C12212314   0.164   1.815   4.484 -0.0894 -0.0194  0.4855
   17MOL   C12312315   0.194   1.818   4.634  0.0386 -0.4050 -0.3339
   17MOL   O12412316   0.069   1.790   4.703  0.3056  0.2930 -0.3831
   17MOL   C12512317   0.073   1.804   4.840  0.2102 -0.1062 -0.4090
   17MOL   O12612318   0.172   1.840   4.907 -0.0851 -0.0750 -0.4635
   17MOL   C12712319   7.981   1.758   4.903  0.5126  0.1758 -0.3784
   17MOL   C12812320   7.860   1.753   4.831 -0.5736 -0.7339 -0.4104
   17MOL   C12912321   7.744   1.698   4.893  0.5002  0.3099 -0.1962
   17MOL   C13012322   7.749   1.662   5.026  0.6122  0.1729 -0.3031
   17MOL   C13112323   7.633   1.602   5.102 -0.5645  0.5234 -1.3046
   17MOL   O13212324   7.641   1.553   5.212 -0.3285 -0.1409 -0.2112
   17MOL   O13312325   7.527   1.596   5.024  0.6540  0.1083  0.2901
   17MOL   C13412326   7.869   1.672   5.098 -0.0155  0.1532  0.2029
   17MOL   C13512327   7.985   1.715   5.034 -0.2726  0.0830 -0.1747
   17MOL   H13612328   7.986   1.876   4.488  0.5015 -1.0567  0.0779
   17MOL   H13712329   0.072   2.007   4.503 -0.9197  0.8002 -1.5404
   17MOL   H13812330   0.118   1.984   4.257 -1.5364  1.8257 -0.6925
   17MOL   H13912331   7.987   2.004   4.288  0.5193  0.9764 -0.4442
   17MOL   H14012332   7.951   1.767   4.246 -0.2070 -1.3732 -0.1685
   17MOL   H14112333   0.130   1.844   4.053  0.2163  0.2494  0.4459
   17MOL   H14212334   7.984   1.866   4.042  1.6100  1.7733  1.1344
   17MOL   H14312335   0.209   1.676   4.247 -0.1393 -1.4651  0.2805
   17MOL   H14412336   0.081   1.580   4.240  0.6769 -0.9397  2.1796
   17MOL   H14512337   0.030   1.651   4.492 -1.2910  2.4430 -1.5549
   17MOL   H14612338   0.198   1.593   4.468  0.0299  0.4511 -0.5399
   17MOL   H14712339   0.254   1.848   4.432 -1.4921  0.5975 -1.5815
   17MOL   H14812340   0.234   1.913   4.669 -2.9832  0.2976  1.4150
   17MOL   H14912341   0.267   1.739   4.652  1.4816  0.9124 -0.2631
   17MOL   H15012342   7.855   1.770   4.724  0.6846 -1.3133 -0.5794
   17MOL   H15112343   7.649   1.689   4.842  0.2072 -2.7595  0.8410
   17MOL   H15212344   7.872   1.644   5.202 -0.6168  0.9912  0.4518
   17MOL   H15312345   0.048   1.722   5.084 -0.3867  0.2515  0.0183
   17MOL   C15412346   7.152   1.623   5.354  0.0077 -0.0315 -0.2978
   17MOL   C15512347   7.222   1.540   5.242  0.2804  0.8587  0.0171
   17MOL   C15612348   7.337   1.618   5.186  0.0841  0.3252  0.1273
   17MOL   C15712349   7.406   1.539   5.075  0.2569 -0.7114 -0.1143
   17MOL   C15812350   7.278   1.745   5.123  0.0548  0.7707 -0.0765
   17MOL   C15912351   7.186   1.825   5.215  0.0834 -0.7675  0.0099
   17MOL   C16012352   7.077   1.742   5.287 -0.4545 -0.1577 -0.0614
   17MOL   C16112353   6.997   1.825   5.381 -0.7922  0.1196 -0.1803
   17MOL   O16212354   6.877   1.767   5.417 -0.3820 -0.2838  0.3730
   17MOL   C16312355   6.766   1.799   5.340  0.0494 -0.5666 -0.2544
   17MOL   O16412356   6.771   1.874   5.244 -0.6050  0.0428  0.2189
   17MOL   C16512357   6.646   1.707   5.375  0.9550 -0.0272  0.5097
   17MOL   C16612358   6.623   1.653   5.504  0.4988  0.2791  0.1396
   17MOL   C16712359   6.504   1.581   5.539 -0.3561  0.5272 -0.1176
   17MOL   C16812360   6.412   1.554   5.434  0.7230 -0.3330  0.3807
   17MOL   C16912361   6.289   1.475   5.462 -0.2826  0.4902 -0.1650
   17MOL   O17012362   6.244   1.467   5.579 -0.7399 -0.1671 -0.0428
   17MOL   O17112363   6.245   1.417   5.352 -0.0840 -0.2190 -0.2515
   17MOL   C17212364   6.434   1.610   5.304  1.0145 -0.5189 -0.3760
   17MOL   C17312365   6.542   1.695   5.276  0.1711  0.7026  0.6550
   17MOL   H17412366   7.229   1.648   5.427  0.4920 -1.4890 -0.3053
   17MOL   H17512367   7.084   1.546   5.391  2.1578 -2.2823 -0.8944
   17MOL   H17612368   7.153   1.494   5.172 -1.4150  1.1115  1.5104
   17MOL   H17712369   7.263   1.456   5.298 -1.9601 -0.5899 -0.4749
   17MOL   H17812370   7.395   1.642   5.275  1.5396 -0.0021 -0.7142
   17MOL   H17912371   7.337   1.536   4.990  0.3958  2.4404 -0.3844
   17MOL   H18012372   7.419   1.436   5.108 -0.7185 -0.9292 -0.4088
   17MOL   H18112373   7.217   1.712   5.039  1.0673 -2.3631  0.3532
   17MOL   H18212374   7.357   1.809   5.083  1.0922 -0.7100 -0.4573
   17MOL   H18312375   7.240   1.871   5.298 -1.5321 -1.0239  1.2369
   17MOL   H18412376   7.132   1.902   5.161  0.7423 -1.5843 -1.8441
   17MOL   H18512377   7.012   1.704   5.209  0.8056  0.9293 -1.6772
   17MOL   H18612378   6.984   1.930   5.353 -3.7504  0.4892  2.3441
   17MOL   H18712379   7.054   1.837   5.473 -0.2101 -0.2860 -0.4800
   17MOL   H18812380   6.708   1.673   5.567  0.7648  3.4515 -1.1674
   17MOL   H18912381   6.475   1.550   5.638 -0.1884  0.5153 -0.0710
   17MOL   H19012382   6.362   1.585   5.228  1.4262 -0.7003 -0.7060
   17MOL   H19112383   6.552   1.740   5.178  2.4013  1.7436  1.3409
   17MOL   C19212384   6.092   1.235   4.976 -0.7682  0.0078 -0.7411
   17MOL   C19312385   6.158   1.254   5.114 -0.4654 -0.2098 -0.6169
   17MOL   C19412386   6.063   1.316   5.221  0.5409 -0.3043 -0.3079
   17MOL   C19512387   6.131   1.331   5.358  0.1472  0.9900  0.3611
   17MOL   C19612388   6.015   1.450   5.165 -0.1814 -0.4236  0.0250
   17MOL   C19712389   5.946   1.443   5.024 -0.1732  0.4620  0.2425
   17MOL   C19812390   6.038   1.363   4.919  0.4438  0.6123 -0.6325
   17MOL   C19912391   5.978   1.319   4.786 -0.3186  0.6701 -0.0758
   17MOL   O20012392   5.905   1.415   4.720  0.5824 -0.2670  0.4566
   17MOL   C20112393   5.951   1.531   4.671 -0.1211 -0.4939  0.4600
   17MOL   O20212394   6.055   1.577   4.698  0.0018  0.2476 -0.1670
   17MOL   C20312395   5.853   1.600   4.591 -0.4140 -0.2124 -0.3285
   17MOL   C20412396   5.725   1.543   4.565 -0.6680 -0.1254 -0.2397
   17MOL   C20512397   5.642   1.607   4.470  0.8890 -0.2572  0.2072
   17MOL   C20612398   5.676   1.732   4.417  0.2327  0.0694 -0.4259
   17MOL   C20712399   5.588   1.790   4.311 -0.6709  0.3609  0.3592
   17MOL   O20812400   5.508   1.721   4.246  0.0475 -0.8066 -0.2229
   17MOL   O20912401   5.593   1.918   4.301  0.7108 -0.0843  0.1317
   17MOL   C21012402   5.799   1.788   4.449  0.2028 -0.4366 -0.6282
   17MOL   C21112403   5.890   1.722   4.533 -0.3514  0.3095 -0.3468
   17MOL   H21212404   6.008   1.166   4.985 -2.6440  1.8846 -3.1841
   17MOL   H21312405   6.169   1.203   4.907  1.6527 -1.5421  2.5077
   17MOL   H21412406   6.243   1.321   5.104 -1.3951  1.3313  1.4332
   17MOL   H21512407   6.193   1.163   5.164  0.0988  0.0570 -0.5174
   17MOL   H21612408   5.982   1.243   5.216  0.2333  0.0175 -0.0220
   17MOL   H21712409   6.152   1.233   5.400 -0.6943  0.4732 -0.3905
   17MOL   H21812410   6.057   1.375   5.425 -0.7912 -0.8439  0.5607
   17MOL   H21912411   6.101   1.517   5.158 -0.8099  0.1808 -2.9864
   17MOL   H22012412   5.950   1.493   5.241 -0.6840 -0.6888 -0.2466
   17MOL   H22112413   5.847   1.400   5.037 -0.5896  1.3038 -0.0789
   17MOL   H22212414   5.942   1.547   4.990  1.8236  0.5197  0.1060
   17MOL   H22312415   6.114   1.437   4.895  0.6671  0.3034 -0.8565
   17MOL   H22412416   5.904   1.239   4.795  0.2311  0.0816 -0.7404
   17MOL   H22512417   6.051   1.284   4.714 -0.1928  1.7063 -0.4533
   17MOL   H22612418   5.701   1.443   4.599  1.0140 -0.5162 -0.1934
   17MOL   H22712419   5.555   1.565   4.422  0.1436  2.5499 -0.9942
   17MOL   H22812420   5.825   1.883   4.404  0.9505 -0.7769 -0.9200
   17MOL   H22912421   5.983   1.770   4.559  0.0960 -0.8524  0.2408
   17MOL   C23012422   5.608   2.338   4.250 -0.2854  0.4392  0.5849
   17MOL   C23112423   5.620   2.190   4.216  0.4834 -0.8656  0.3642
   17MOL   C23212424   5.481   2.123   4.246  0.3425 -0.4191 -0.0650
   17MOL   C23312425   5.491   1.977   4.224  0.0762 -0.1557  0.4710
   17MOL   C23412426   5.431   2.147   4.392  0.6654 -0.7418 -0.4178
   17MOL   C23512427   5.438   2.291   4.433  0.6683 -0.1926  0.4069
   17MOL   C23612428   5.577   2.353   4.400  0.3527  0.8429 -0.4327
   17MOL   C23712429   5.585   2.497   4.460  0.5589 -0.0385 -0.4931
   17MOL   O23812430   5.701   2.561   4.399  0.4453  0.3648 -0.5712
   17MOL   C23912431   5.740   2.675   4.443 -0.6832 -0.0071  0.0113
   17MOL   O24012432   5.683   2.753   4.517 -0.1607  0.3169 -0.3207
   17MOL   C24112433   5.890   2.692   4.403 -0.5359  0.7566  0.1934
   17MOL   C24212434   5.969   2.592   4.345  0.2099 -0.6220  0.1025
   17MOL   C24312435   6.106   2.615   4.315  0.1412 -0.7009 -0.4311
   17MOL   C24412436   6.164   2.742   4.343  0.5755 -0.4472 -0.5648
   17MOL   C24512437   6.305   2.758   4.321  0.0133 -0.6533  0.1422
   17MOL   O24612438   6.382   2.663   4.305  0.3512  0.0188  0.2297
   17MOL   O24712439   6.338   2.887   4.321  0.3717 -0.4371  0.0110
   17MOL   C24812440   6.079   2.846   4.397 -0.3442 -0.2156 -0.2174
   17MOL   C24912441   5.942   2.824   4.429 -0.5083  0.0471 -0.3551
   17MOL   H25012442   5.523   2.377   4.195 -0.3869 -2.1619 -1.2252
   17MOL   H25112443   5.697   2.393   4.219  0.8636 -0.8352  1.5353
   17MOL   H25212444   5.705   2.146   4.268 -0.0372  0.4444  2.4172
   17MOL   H25312445   5.633   2.172   4.110  0.0607 -0.9827  0.3310
   17MOL   H25412446   5.407   2.150   4.171 -0.2769 -3.4240 -0.5876
   17MOL   H25512447   5.511   1.959   4.119 -0.7135 -0.3009  0.3367
   17MOL   H25612448   5.393   1.930   4.240  0.7058 -1.5618  0.3007
   17MOL   H25712449   5.490   2.079   4.453  0.7410  0.5250  0.9535
   17MOL   H25812450   5.326   2.118   4.399  0.8529 -1.0424  1.3803
   17MOL   H25912451   5.350   2.342   4.392  0.3054 -0.2976  1.0363
   17MOL   H26012452   5.423   2.301   4.541 -0.6797 -0.4110  0.2559
   17MOL   H26112453   5.655   2.289   4.441  0.4075  0.5998 -0.9134
   17MOL   H26212454   5.594   2.481   4.567 -2.1642  0.0358 -0.2167
   17MOL   H26312455   5.491   2.553   4.461  0.6297  0.1114 -1.3405
   17MOL   H26412456   5.920   2.498   4.325 -1.1365  0.0049  0.4192
   17MOL   H26512457   6.158   2.537   4.261  0.3885  0.5490 -2.0707
   17MOL   H26612458   6.110   2.949   4.409 -1.1624  0.0648 -0.4418
   17MOL   H26712459   5.878   2.904   4.460 -1.1821 -1.1423  1.4081
   17MOL   C26812460   6.517   3.297   4.226  0.1815  0.2529  0.1730
   17MOL   C26912461   6.475   3.152   4.212 -0.2003  0.2018 -0.1573
   17MOL   C27012462   6.513   3.063   4.322  0.3346  0.1881 -0.5733
   17MOL   C27112463   6.479   2.913   4.306 -0.2544 -0.0657 -0.9627
   17MOL   C27212464   6.662   3.060   4.343  0.5728 -0.1219  0.5269
   17MOL   C27312465   6.717   3.201   4.364 -0.2971  0.3281 -0.0060
   17MOL   C27412466   6.674   3.301   4.256  0.4093  0.2723  0.3270
   17MOL   C27512467   6.717   3.440   4.288 -0.4322 -0.1082 -0.2865
   17MOL   O27612468   6.858   3.418   4.312  0.2506  0.1906 -0.2450
   17MOL   C27712469   6.907   3.447   4.436  0.5148  1.1343 -0.1410
   17MOL   O27812470   6.843   3.518   4.515 -0.3247  0.1249  0.3015
   17MOL   C27912471   7.047   3.390   4.469  0.3002  0.1903 -0.3490
   17MOL   C28012472   7.095   3.399   4.598 -0.1292  0.0397 -0.3053
   17MOL   C28112473   7.216   3.344   4.630  0.2621 -0.9030 -0.0805
   17MOL   C28212474   7.296   3.274   4.532  0.6128 -0.1705  0.8065
   17MOL   C28312475   7.421   3.211   4.566  0.3036 -0.2492 -0.1221
   17MOL   O28412476   7.477   3.133   4.487  0.5340 -0.4362  0.2353
   17MOL   O28512477   7.464   3.241   4.693  0.5138 -0.3115 -0.8067
   17MOL   C28612478   7.243   3.267   4.404 -0.2070  0.3330  0.1475
   17MOL   C28712479   7.125   3.330   4.370 -0.1658 -0.3584 -0.2057
   17MOL   H28812480   6.457   3.347   4.302  0.0990 -0.3620  0.5199
   17MOL   H28912481   6.495   3.363   4.142 -0.0295 -2.0818 -1.6584
   17MOL   H29012482   6.512   3.104   4.122  1.3384  0.7658  0.1453
   17MOL   H29112483   6.367   3.141   4.202 -0.2061 -0.1590  0.2893
   17MOL   H29212484   6.465   3.099   4.413  2.8919 -0.8132  1.2457
   17MOL   H29312485   6.542   2.860   4.378  0.2840  1.6123 -0.1664
   17MOL   H29412486   6.502   2.894   4.201 -1.2671  1.0585 -1.3955
   17MOL   H29512487   6.717   3.003   4.268  1.6114  1.1638  0.2937
   17MOL   H29612488   6.692   3.001   4.430  0.6096  0.8003  1.1483
   17MOL   H29712489   6.674   3.237   4.458  1.3035  0.8136  0.5555
   17MOL   H29812490   6.825   3.189   4.362 -0.4622 -0.9770 -1.6220
   17MOL   H29912491   6.745   3.269   4.180  0.6290  0.8880  0.2656
   17MOL   H30012492   6.670   3.495   4.370  0.9879  0.5740  0.0886
   17MOL   H30112493   6.701   3.501   4.199  1.3672  0.2385 -0.3990
   17MOL   H30212494   7.038   3.454   4.671 -0.3189  0.6371 -0.9010
   17MOL   H30312495   7.257   3.349   4.730  1.2480  2.6053 -0.5965
   17MOL   H30412496   7.296   3.208   4.330 -1.8153 -1.2621  0.2577
   17MOL   H30512497   7.090   3.327   4.268 -1.5799 -0.0946  0.2562
   17MOL   C30612498   7.430   2.907   4.980  0.0851 -1.1652 -0.0878
   17MOL   C30712499   7.434   2.995   4.865 -0.6004  0.1902 -0.2124
   17MOL   C30812500   7.549   3.095   4.877  0.1918  0.0150 -0.2232
   17MOL   C30912501   7.578   3.171   4.751  0.0550 -0.0382  0.3539
   17MOL   C31012502   7.533   3.187   4.997 -0.7433  0.4526 -0.2539
   17MOL   C31112503   7.519   3.098   5.116 -0.1007  0.1006 -0.2232
   17MOL   C31212504   7.409   2.992   5.108  0.3988 -0.1609 -0.3048
   17MOL   C31312505   7.395   2.908   5.226  0.9021  0.0577  0.0781
   17MOL   O31412506   7.415   2.966   5.353  0.4460 -0.2616  0.0186
   17MOL   C31512507   7.521   2.939   5.434  0.4999 -0.3581 -0.0014
   17MOL   O31612508   7.621   2.881   5.393  0.0614  0.0088  0.6311
   17MOL   C31712509   7.514   2.986   5.577  0.4682 -0.6862 -0.5595
   17MOL   C31812510   7.598   2.921   5.674 -0.2164 -0.0327 -0.5033
   17MOL   C31912511   7.576   2.947   5.810 -0.4061  1.1620  0.2290
   17MOL   C32012512   7.486   3.045   5.851  0.8561  0.0024  0.3455
   17MOL   C32112513   7.465   3.071   5.998  0.4764 -0.6564  0.3555
   17MOL   O32212514   7.544   3.040   6.086 -0.0148 -0.1452 -0.0746
   17MOL   O32312515   7.352   3.146   6.018 -0.1956 -0.0363  0.4597
   17MOL   C32412516   7.411   3.114   5.752  0.0856  0.4195 -0.0046
   17MOL   C32512517   7.425   3.084   5.615 -0.0291  0.4033 -0.1975
   17MOL   H32612518   7.526   2.858   4.995  0.0020 -1.7460 -1.3585
   17MOL   H32712519   7.351   2.833   4.967  0.7652 -1.7003 -1.2680
   17MOL   H32812520   7.344   3.052   4.841  0.9572  2.9462  0.3031
   17MOL   H32912521   7.451   2.932   4.777  0.8473 -0.2295  0.3452
   17MOL   H33012522   7.645   3.045   4.896 -0.3276  0.3964  3.9206
   17MOL   H33112523   7.628   3.109   4.676  0.2664  0.3856  0.1459
   17MOL   H33212524   7.647   3.253   4.769 -1.6576  1.5834 -0.3872
   17MOL   H33312525   7.452   3.259   4.980 -0.4327  0.7929 -0.2938
   17MOL   H33412526   7.625   3.245   4.998 -1.6890  1.9940 -0.0042
   17MOL   H33512527   7.613   3.045   5.127  0.3830  0.6474 -1.6621
   17MOL   H33612528   7.516   3.151   5.211 -0.3030  0.7615 -0.5995
   17MOL   H33712529   7.313   3.045   5.104 -0.2641 -1.2235  1.0846
   17MOL   H33812530   7.469   2.828   5.228  0.2760 -0.5523 -0.7786
   17MOL   H33912531   7.294   2.867   5.230  0.5126  0.8118 -1.4255
   17MOL   H34012532   7.672   2.845   5.652 -0.7268 -0.8246  0.4900
   17MOL   H34112533   7.630   2.895   5.889  1.5735  1.5988 -0.7956
   17MOL   H34212534   7.346   3.195   5.783 -0.5036 -0.3000  0.6353
   17MOL   H34312535   7.363   3.134   5.542  0.1083  1.6283  0.5033
   17MOL   C34412536   6.967   3.034   6.239  0.0907 -0.4162 -0.6080
   17MOL   C34512537   7.116   3.038   6.191 -0.2020  1.0020  0.3653
   17MOL   C34612538   7.163   3.178   6.175  0.1380 -0.4063  0.7393
   17MOL   C34712539   7.317   3.194   6.151  0.0695 -0.2190 -0.3052
   17MOL   C34812540   7.078   3.255   6.071  0.3868  0.2088 -0.3412
   17MOL   C34912541   6.928   3.254   6.107 -0.3775 -0.1314 -0.6322
   17MOL   C35012542   6.884   3.101   6.120 -0.6242 -0.1612 -0.2025
   17MOL   C35112543   6.734   3.081   6.135  0.1908  0.0511  0.0859
   17MOL   O35212544   6.719   2.940   6.141 -0.0704 -0.2110 -0.5724
   17MOL   C35312545   6.596   2.879   6.160  0.6899 -0.0491 -0.4333
   17MOL   O35412546   6.505   2.950   6.199 -0.1206 -0.0848  0.0063
   17MOL   C35512547   6.591   2.727   6.164 -0.5836 -0.7097  0.2190
   17MOL   C35612548   6.700   2.652   6.112 -0.2117  0.4449  0.2777
   17MOL   C35712549   6.690   2.510   6.098 -0.2328  0.9064  0.1855
   17MOL   C35812550   6.576   2.445   6.153 -0.9558 -0.4714  1.0573
   17MOL   C35912551   6.555   2.304   6.122 -0.3017  0.8308 -0.5221
   17MOL   O36012552   6.450   2.243   6.147 -0.6652 -0.0191 -0.1905
   17MOL   O36112553   6.661   2.244   6.063 -0.1111 -0.3709 -0.0512
   17MOL   C36212554   6.475   2.520   6.214  0.0258  0.1582 -0.1950
   17MOL   C36312555   6.481   2.660   6.215  0.2069  0.1274  0.8335
   17MOL   H36412556   6.955   3.091   6.331  3.1274 -0.8346  0.0986
   17MOL   H36512557   6.921   2.935   6.247 -1.0083  0.0945 -0.5624
   17MOL   H36612558   7.126   2.978   6.100 -1.1478  1.3129  0.0457
   17MOL   H36712559   7.185   2.991   6.261 -0.6404  0.4839  0.4517
   17MOL   H36812560   7.140   3.229   6.269  0.0080 -0.9579  1.0115
   17MOL   H36912561   7.373   3.134   6.222 -0.7933 -1.1177 -0.3706
   17MOL   H37012562   7.345   3.299   6.146 -3.9987  0.9020 -1.4344
   17MOL   H37112563   7.087   3.215   5.970  0.3587 -1.2466  0.2244
   17MOL   H37212564   7.118   3.355   6.056  2.1666 -0.6651 -1.4826
   17MOL   H37312565   6.907   3.314   6.196  0.2239 -0.8390 -0.0007
   17MOL   H37412566   6.889   3.311   6.023  2.0185  1.2165 -0.8866
   17MOL   H37512567   6.921   3.051   6.030  0.1826  0.6248 -0.3171
   17MOL   H37612568   6.682   3.117   6.046  0.2268 -0.2769 -0.0650
   17MOL   H37712569   6.692   3.121   6.228 -0.3173  0.2827 -0.2374
   17MOL   H37812570   6.790   2.697   6.072 -0.1997 -0.4249 -0.6820
   17MOL   H37912571   6.764   2.450   6.048 -2.5418 -2.3342  0.5108
   17MOL   H38012572   6.387   2.467   6.246 -1.4776  0.9418 -2.9212
   17MOL   H38112573   6.396   2.712   6.256  0.9226  2.2513 -0.3338
   17MOL   C38212574   6.702   2.030   5.661  0.6189 -0.6406 -0.3464
   17MOL   C38312575   6.739   2.080   5.795 -0.1624 -0.3882  0.5970
   17MOL   C38412576   6.621   2.091   5.890  0.0177  0.7089  0.6031
   17MOL   C38512577   6.656   2.107   6.036  0.2967  0.6331 -0.0452
   17MOL   C38612578   6.507   2.178   5.835  0.7104 -0.5908  0.2191
   17MOL   C38712579   6.463   2.129   5.694  0.3945 -0.2028  0.2200
   17MOL   C38812580   6.590   2.115   5.600 -0.2206 -0.1414 -0.0610
   17MOL   C38912581   6.552   2.075   5.460  0.0615  0.4578 -0.3392
   17MOL   O39012582   6.668   2.099   5.380 -0.3143 -0.0059  0.0832
   17MOL   C39112583   6.663   2.181   5.274 -0.2468 -0.6005 -0.9093
   17MOL   O39212584   6.560   2.210   5.216 -0.3313  0.2107 -0.3579
   17MOL   C39312585   6.798   2.226   5.237 -0.2373 -0.5466 -0.4266
   17MOL   C39412586   6.818   2.290   5.112 -0.1614  0.2503 -0.4125
   17MOL   C39512587   6.938   2.347   5.075  0.3894 -0.7523  0.6154
   17MOL   C39612588   7.052   2.340   5.157  0.7066  0.3572  0.4014
   17MOL   C39712589   7.180   2.405   5.116 -0.5148 -0.8869 -0.3521
   17MOL   O39812590   7.200   2.442   5.001  0.2618  0.3905 -0.1341
   17MOL   O39912591   7.275   2.410   5.211  0.2942 -0.1444  0.3468
   17MOL   C40012592   7.034   2.269   5.280 -0.3395 -0.2944  0.4633
   17MOL   C40112593   6.910   2.215   5.320 -0.2299  0.0707 -0.2155
   17MOL   H40212594   6.671   1.926   5.658  1.1444 -0.8144  0.0657
   17MOL   H40312595   6.784   2.020   5.590 -0.4273  0.0144 -1.6728
   17MOL   H40412596   6.762   2.185   5.776 -1.2122 -0.0338  1.2480
   17MOL   H40512597   6.833   2.046   5.838  1.6911 -0.0591 -3.0246
   17MOL   H40612598   6.582   1.989   5.889 -0.9601  1.0740  0.9511
   17MOL   H40712599   6.751   2.064   6.070 -0.0182  0.5599  0.7509
   17MOL   H40812600   6.588   2.058   6.105 -1.2202  0.8233 -1.3917
   17MOL   H40912601   6.526   2.285   5.835 -1.6570 -0.1628 -0.0414
   17MOL   H41012602   6.417   2.170   5.895  1.2554  0.4702  1.1940
   17MOL   H41112603   6.413   2.033   5.705  1.1658 -0.4382  1.8198
   17MOL   H41212604   6.386   2.195   5.655  1.7837  1.6356  0.5000
   17MOL   H41312605   6.627   2.216   5.584  3.0413 -1.3546 -0.6443
   17MOL   H41412606   6.460   2.124   5.427  1.5214  3.2766 -0.4027
   17MOL   H41512607   6.530   1.969   5.458 -0.3929  0.5181  0.6819
   17MOL   H41612608   6.729   2.312   5.055 -0.3950  1.3604  0.3557
   17MOL   H41712609   6.954   2.394   4.979 -1.0327 -2.2314 -0.3746
   17MOL   H41812610   7.114   2.250   5.351 -0.5817  0.4591  0.9448
   17MOL   H41912611   6.896   2.170   5.417  0.2479 -1.4097 -0.8203
   17MOL   C42012612   7.684   2.351   5.392 -0.0710  0.4968  0.3511
   17MOL   C42112613   7.569   2.349   5.295 -0.1234  0.0648  0.1126
   17MOL   C42212614   7.502   2.491   5.286 -0.1227 -0.1389 -0.1941
   17MOL   C42312615   7.392   2.490   5.179 -0.1721  0.1290 -0.3898
   17MOL   C42412616   7.459   2.537   5.429  0.1511  0.5236  0.3049
   17MOL   C42512617   7.588   2.553   5.506 -0.7410  0.6894 -0.1190
   17MOL   C42612618   7.652   2.410   5.531  0.0995  0.5362  0.4989
   17MOL   C42712619   7.788   2.430   5.613 -0.5963 -0.1309 -0.7683
   17MOL   O42812620   7.826   2.303   5.680 -0.3058  0.8663 -0.1529
   17MOL   C42912621   7.787   2.294   5.813  0.0437 -0.5182  0.6284
   17MOL   O43012622   7.690   2.355   5.859 -0.0669 -0.2730  0.5306
   17MOL   C43112623   7.880   2.225   5.906  0.0054  0.1781 -0.6823
   17MOL   C43212624   8.003   2.170   5.863  0.7089 -0.3706 -0.0392
   17MOL   C43312625   0.074   2.140   5.960 -0.0867  0.6993  0.7070
   17MOL   C43412626   0.044   2.146   6.099 -0.4977 -0.5131 -0.3083
   17MOL   C43512627   0.138   2.106   6.207 -0.5087 -0.2111  0.3496
   17MOL   O43612628   0.119   2.125   6.326 -0.2139  0.0993 -0.7873
   17MOL   O43712629   0.244   2.041   6.150  0.8487  0.7135 -0.3256
   17MOL   C43812630   7.951   2.185   6.136  0.1374  0.7734 -0.3135
   17MOL   C43912631   7.849   2.218   6.046 -0.2049  0.6963 -0.9746
   17MOL   H44012632   7.771   2.398   5.347 -0.1300  0.1266 -0.1538
   17MOL   H44112633   7.722   2.251   5.409 -0.3171  0.3935  0.2976
   17MOL   H44212634   7.503   2.263   5.302  0.5676 -0.3454  1.8419
   17MOL   H44312635   7.609   2.312   5.201  0.0428 -0.5889  0.4329
   17MOL   H44412636   7.581   2.555   5.248  0.8528 -2.5342 -2.4099
   17MOL   H44512637   7.431   2.462   5.081  1.1319  0.4980  0.0102
   17MOL   H44612638   7.354   2.592   5.175  0.9125  0.5046 -1.5053
   17MOL   H44712639   7.399   2.457   5.471 -1.2975 -1.0171 -4.3812
   17MOL   H44812640   7.407   2.633   5.428 -0.7453  0.0551 -1.7486
   17MOL   H44912641   7.650   2.631   5.464  1.4336 -0.7442  0.3603
   17MOL   H45012642   7.563   2.597   5.602 -0.4621 -2.1757  1.3394
   17MOL   H45112643   7.580   2.356   5.591  1.3550  1.2864  2.7248
   17MOL   H45212644   7.771   2.508   5.688  0.3951  1.1268 -1.8305
   17MOL   H45312645   7.873   2.464   5.555  1.2264 -0.6360  1.5463
   17MOL   H45412646   0.006   2.165   5.761  1.3090 -1.5643  0.2061
   17MOL   H45512647   0.169   2.109   5.920 -0.4236  0.2554  0.2482
   17MOL   H45612648   7.924   2.185   6.241  0.1238  0.7244 -0.3174
   17MOL   H45712649   7.750   2.241   6.083  0.3441 -1.0154  1.7638
   17MOL   C45812650   0.651   2.235   6.098  0.0120  0.2848  0.6085
   17MOL   C45912651   0.526   2.133   6.098 -1.0058 -0.7369 -0.1029
   17MOL   C46012652   0.462   2.115   6.238 -0.3990 -0.1628  0.0434
   17MOL   C46112653   0.358   2.004   6.236  0.5848  0.2601 -0.6753
   17MOL   C46212654   0.565   2.086   6.338  0.5746  0.1584 -0.3837
   17MOL   C46312655   0.676   2.197   6.325 -0.5193  0.2822  0.0808
   17MOL   C46412656   0.756   2.187   6.195  0.1740 -0.3348 -0.0412
   17MOL   C46512657   0.884   2.278   6.193  1.0492  0.5405  0.5689
   17MOL   O46612658   0.979   2.237   6.294 -0.0090 -0.8926 -0.4035
   17MOL   C46712659   0.981   2.282   6.418  0.1991  0.0784  0.1891
   17MOL   O46812660   0.891   2.355   6.460 -0.3738  0.5099  0.3213
   17MOL   C46912661   1.099   2.229   6.489  0.8420 -0.4930 -0.3581
   17MOL   C47012662   1.108   2.259   6.625  0.0958  0.4932 -0.8042
   17MOL   C47112663   1.211   2.211   6.704 -0.0763 -0.0809  0.3075
   17MOL   C47212664   1.318   2.138   6.650 -0.3648 -0.4845 -0.3441
   17MOL   C47312665   1.436   2.094   6.725  0.0011  0.2566 -0.0956
   17MOL   O47412666   1.506   2.000   6.687 -0.4864  0.0417  0.2252
   17MOL   O47512667   1.456   2.165   6.833  0.5440  0.5397  0.0421
   17MOL   C47612668   1.305   2.098   6.516 -0.5609 -0.1498  0.1676
   17MOL   C47712669   1.202   2.151   6.433 -0.2158 -0.0096  0.1165
   17MOL   H47812670   0.628   2.341   6.112  0.2334  0.3842  0.2270
   17MOL   H47912671   0.683   2.234   5.994 -0.1903  0.0408  0.5465
   17MOL   H48012672   0.570   2.038   6.067 -2.3189 -1.5062  0.3514
   17MOL   H48112673   0.447   2.146   6.023 -1.1225  0.3302  0.1982
   17MOL   H48212674   0.416   2.212   6.259  0.8509  0.2923  0.7328
   17MOL   H48312675   0.341   1.975   6.340 -2.4339  1.9903 -0.6247
   17MOL   H48412676   0.405   1.917   6.192  1.0702  0.3529 -0.3456
   17MOL   H48512677   0.600   1.985   6.315  1.1207  0.4743 -0.9493
   17MOL   H48612678   0.519   2.096   6.436 -0.5327  1.0056 -0.9753
   17MOL   H48712679   0.637   2.297   6.346 -1.0952  0.0657  0.0743
   17MOL   H48812680   0.747   2.173   6.404  1.3416 -1.3823 -2.0137
   17MOL   H48912681   0.784   2.084   6.174 -0.8121 -0.4047 -1.0826
   17MOL   H49012682   0.852   2.381   6.213  3.3201  1.1824  1.0091
   17MOL   H49112683   0.931   2.284   6.095 -2.3492 -0.4473 -1.2068
   17MOL   H49212684   1.034   2.328   6.663  0.3153  0.0405  0.4863
   17MOL   H49312685   1.203   2.251   6.804  0.7680 -0.3578  0.4912
   17MOL   H49412686   1.380   2.033   6.473 -3.3182 -2.7690 -0.8140
   17MOL   H49512687   1.209   2.121   6.330 -0.5496  2.2146 -0.5854
   17MOL   C49612688   1.771   2.449   6.776  0.8586  0.1226  0.3257
   17MOL   C49712689   1.711   2.310   6.778 -0.4284 -0.2628  0.0936
   17MOL   C49812690   1.656   2.271   6.915  0.0949  0.1223  0.2204
   17MOL   C49912691   1.571   2.138   6.911  0.5220  0.3833  0.2161
   17MOL   C50012692   1.766   2.279   7.015 -0.0901  0.0311  0.7382
   17MOL   C50112693   1.843   2.409   7.012  0.0257 -0.1474  0.4536
   17MOL   C50212694   1.882   2.468   6.876 -0.3133  1.0093 -0.6192
   17MOL   C50312695   1.949   2.604   6.865 -0.3306 -0.4294 -0.3231
   17MOL   O50412696   2.059   2.624   6.954 -0.4674 -0.0657  0.4755
   17MOL   C50512697   2.182   2.591   6.905 -0.2087  0.0492  0.1302
   17MOL   O50612698   2.195   2.503   6.821  0.6429 -0.2901  0.0219
   17MOL   C50712699   2.298   2.665   6.959 -0.2115 -0.3540 -0.2814
   17MOL   C50812700   2.425   2.598   6.955 -0.8896  0.0657  0.0828
   17MOL   C50912701   2.530   2.649   7.031 -0.4165  0.2133  0.6692
   17MOL   C51012702   2.524   2.782   7.075 -0.4896  0.4139 -0.6685
   17MOL   C51112703   2.647   2.847   7.129  0.6205 -0.5725 -0.5749
   17MOL   O51212704   2.646   2.960   7.172 -0.7882 -0.3119 -0.1164
   17MOL   O51312705   2.750   2.760   7.123  0.4370  0.3145 -0.5517
   17MOL   C51412706   2.406   2.859   7.064  0.4485  0.2291 -0.1073
   17MOL   C51512707   2.288   2.790   7.028  0.3375  0.2900 -0.1793
   17MOL   H51612708   1.687   2.514   6.803  1.8382  1.5021  0.1165
   17MOL   H51712709   1.792   2.483   6.674  1.1678 -1.5414 -0.1750
   17MOL   H51812710   1.789   2.237   6.756 -0.1366  0.4698 -1.3760
   17MOL   H51912711   1.632   2.301   6.703 -1.7405 -1.3626  1.5627
   17MOL   H52012712   1.584   2.348   6.943  1.7821  1.0029  2.3126
   17MOL   H52112713   1.541   2.126   7.015 -1.2295 -2.3421 -0.5457
   17MOL   H52212714   1.636   2.057   6.877 -1.7212 -0.4979 -2.1109
   17MOL   H52312715   1.828   2.192   6.996 -2.2690 -1.1626 -1.1507
   17MOL   H52412716   1.723   2.266   7.115  0.7719 -0.2707  1.0744
   17MOL   H52512717   1.776   2.483   7.056  0.8641  0.2308  1.1165
   17MOL   H52612718   1.923   2.407   7.087  1.3460  0.2986 -0.9120
   17MOL   H52712719   1.968   2.407   6.847 -0.9113  1.1681 -2.8353
   17MOL   H52812720   1.880   2.681   6.899 -0.2740 -0.3484 -0.3920
   17MOL   H52912721   1.976   2.638   6.765  0.2431  1.6963  0.5280
   17MOL   H53012722   2.434   2.506   6.900  1.1732 -0.3016  0.9987
   17MOL   H53112723   2.622   2.597   7.051  0.3159  1.1131 -0.3194
   17MOL   H53212724   2.403   2.962   7.096  1.1501 -0.0999  1.0185
   17MOL   H53312725   2.186   2.825   7.030 -0.1620 -1.0097 -1.2143
   17MOL   C53412726   2.875   2.469   7.438  0.3417 -0.5516 -0.0103
   17MOL   C53512727   2.863   2.545   7.304 -0.1644 -0.5112 -0.0491
   17MOL   C53612728   2.892   2.698   7.324  0.0889 -0.9675  0.3598
   17MOL   C53712729   2.870   2.782   7.198 -0.5668 -0.4010 -0.3225
   17MOL   C53812730   2.788   2.755   7.417  0.1324 -0.5424  1.2661
   17MOL   C53912731   2.790   2.688   7.552  0.8388 -0.4812  0.0217
   17MOL   C54012732   2.781   2.531   7.546 -0.3938  0.5213  0.2031
   17MOL   C54112733   2.801   2.465   7.682 -0.9436 -0.0638  0.1883
   17MOL   O54212734   2.701   2.502   7.772  0.5307 -0.1832 -0.0440
   17MOL   C54312735   2.736   2.539   7.903  0.6528  0.0054  0.8661
   17MOL   O54412736   2.851   2.567   7.939  0.1135 -0.7232  0.3188
   17MOL   C54512737   2.616   2.541   7.993  0.4194 -0.7490 -0.5607
   17MOL   C54612738   2.644   2.524   0.096 -0.7840 -0.5187 -0.3445
   17MOL   C54712739   2.539   2.530   0.192  0.5311  0.6407  0.2850
   17MOL   C54812740   2.408   2.561   0.147 -0.2181 -0.0876  0.0618
   17MOL   C54912741   2.299   2.562   0.250  0.2026 -0.3481  0.5407
   17MOL   O55012742   2.318   2.554   0.370 -0.3906 -0.2856  0.2767
   17MOL   O55112743   2.181   2.582   0.187  0.2778  0.1508  0.3589
   17MOL   C55212744   2.384   2.578   0.007 -0.1491  0.7486 -0.0922
   17MOL   C55312745   2.487   2.563   7.950  0.3107  0.0674  0.4798
   17MOL   H55412746   2.976   2.484   7.477 -0.0888  0.5069  0.6937
   17MOL   H55512747   2.875   2.360   7.431 -0.3963 -0.7857  3.1371
   17MOL   H55612748   2.768   2.526   7.253 -1.0504  1.7840  0.6514
   17MOL   H55712749   2.938   2.508   7.234  0.9574 -0.5468  1.1753
   17MOL   H55812750   2.994   2.713   7.360  0.7382 -0.8322 -1.5050
   17MOL   H55912751   2.955   2.774   7.130  0.0429  1.3577  0.1961
   17MOL   H56012752   2.884   2.886   7.228 -0.2521 -0.3322 -0.7029
   17MOL   H56112753   2.689   2.734   7.377  1.2240 -0.4363 -1.6676
   17MOL   H56212754   2.805   2.861   7.433  0.0063 -0.7880  3.1339
   17MOL   H56312755   2.886   2.726   7.588  0.8750  0.1665 -0.7463
   17MOL   H56412756   2.718   2.732   7.620  3.3559 -0.6492  2.8948
   17MOL   H56512757   2.682   2.505   7.510 -0.8253  0.7652  1.2150
   17MOL   H56612758   2.900   2.497   7.713 -1.7133  2.1716  0.4235
   17MOL   H56712759   2.797   2.357   7.670 -1.9657  0.0566 -0.6617
   17MOL   H56812760   2.742   2.508   0.138 -0.5180  1.3970 -0.2260
   17MOL   H56912761   2.561   2.507   0.296 -1.7077 -1.4730  0.3318
   17MOL   H57012762   2.286   2.606   8.005 -0.1441 -0.4868 -1.1750
   17MOL   H57112763   2.457   2.567   7.846  1.2834  1.7533  0.2331
   17MOL   C57212764   1.905   2.978   0.319  0.1628  0.0867 -0.5543
   17MOL   C57312765   1.924   2.821   0.334 -0.2541 -0.9799  0.0161
   17MOL   C57412766   2.045   2.768   0.258 -0.3850 -0.1978  0.0986
   17MOL   C57512767   2.061   2.613   0.254  0.2130 -0.2746  1.4648
   17MOL   C57612768   2.048   2.816   0.108  0.7559 -0.0372 -0.0578
   17MOL   C57712769   2.032   2.973   0.094  0.6358  0.2033 -0.6413
   17MOL   C57812770   1.908   3.024   0.170  0.2305  0.6701  0.5855
   17MOL   C57912771   1.893   3.172   0.148  0.2410  0.0764 -0.2477
   17MOL   O58012772   2.012   3.234   0.185 -0.0619 -0.5189  0.3873
   17MOL   C58112773   2.031   3.285   0.313 -0.1347 -0.5251  0.3274
   17MOL   O58212774   1.946   3.311   0.399  0.4069 -0.3213  0.2489
   17MOL   C58312775   2.169   3.321   0.327  0.1060  0.4255  0.7482
   17MOL   C58412776   2.248   3.380   0.224  0.3182 -0.2213  0.4649
   17MOL   C58512777   2.387   3.403   0.235 -0.8899  0.3038  0.1809
   17MOL   C58612778   2.445   3.364   0.353 -0.2786  0.6420  0.3404
   17MOL   C58712779   2.589   3.397   0.369 -0.0091 -0.1890  0.2614
   17MOL   O58812780   2.648   3.472   0.294  0.7698 -0.3746  0.3018
   17MOL   O58912781   2.637   3.351   0.479 -0.6767  0.4019  0.2655
   17MOL   C59012782   2.369   3.298   0.459 -0.1083  0.3673 -0.1635
   17MOL   C59112783   2.232   3.282   0.450 -0.1177 -0.2685 -0.4783
   17MOL   H59212784   1.986   3.025   0.375  0.9203 -0.0721 -1.4988
   17MOL   H59312785   1.808   3.008   0.358 -0.8749 -0.6729 -2.4726
   17MOL   H59412786   1.849   2.758   0.286 -0.4687 -1.7406  1.3115
   17MOL   H59512787   1.927   2.798   0.441  3.4526 -1.2091 -0.0709
   17MOL   H59612788   2.139   2.810   0.295 -1.0614  1.3541  0.1244
   17MOL   H59712789   1.967   2.577   0.213  1.2236 -2.7162  1.1633
   17MOL   H59812790   2.058   2.560   0.350 -0.9313  0.6608  1.9488
   17MOL   H59912791   1.953   2.787   0.063  1.1499 -0.0435 -0.9012
   17MOL   H60012792   2.127   2.769   0.049  0.8719  3.0769 -2.5181
   17MOL   H60112793   2.127   3.011   0.131 -0.1545  2.6062 -1.0033
   17MOL   H60212794   2.028   2.990   8.018  0.5282 -1.6451 -0.9458
   17MOL   H60312795   1.818   2.975   0.135  1.2857 -1.4573  0.7436
   17MOL   H60412796   1.809   3.213   0.204  0.8982  0.1656  0.6747
   17MOL   H60512797   1.865   3.203   0.047  0.7910  0.2255 -0.3585
   17MOL   H60612798   2.207   3.413   0.130 -3.3602  0.1150  2.0708
   17MOL   H60712799   2.433   3.458   0.153  3.1556 -3.9249 -0.5748
   17MOL   H60812800   2.406   3.269   0.556 -2.0776 -0.6858  0.2941
   17MOL   H60912801   2.176   3.242   0.533 -0.5772  1.0961 -0.1277
   17MOL   C61012802   2.757   3.776   0.637  0.4698  0.6002  0.6127
   17MOL   C61112803   2.756   3.660   0.533 -0.3712 -0.9702  0.0348
   17MOL   C61212804   2.781   3.528   0.612 -0.2890 -0.5966  0.0949
   17MOL   C61312805   2.766   3.397   0.530  0.1589 -0.1139 -0.4256
   17MOL   C61412806   2.923   3.534   0.662  0.0401  0.1632 -0.1755
   17MOL   C61512807   2.940   3.655   0.756 -0.3050 -0.2422 -1.4085
   17MOL   C61612808   2.896   3.792   0.694 -0.7442  0.0976 -0.2127
   17MOL   C61712809   2.919   3.906   0.789 -0.0278 -0.5016 -1.4420
   17MOL   O61812810   2.843   3.884   0.904 -0.3435 -0.4490  0.0454
   17MOL   C61912811   2.865   3.956   1.022 -0.0475  0.1172  0.7628
   17MOL   O62012812   2.935   4.058   1.026 -0.3762  0.4036  0.0930
   17MOL   C62112813   2.796   3.891   1.138  0.6055 -0.5632  0.2909
   17MOL   C62212814   2.759   3.753   1.137  0.3416  0.9923  0.0225
   17MOL   C62312815   2.693   3.698   1.250 -0.5744  0.0889  0.1417
   17MOL   C62412816   2.674   3.778   1.366  0.1021  0.5620 -0.2352
   17MOL   C62512817   2.627   3.726   1.498 -0.7085 -0.6151  0.0374
   17MOL   O62612818   2.637   3.780   1.608  0.9690 -0.5293 -0.7535
   17MOL   O62712819   2.568   3.608   1.480  0.0873 -0.0884  0.2683
   17MOL   C62812820   2.718   3.913   1.363 -0.8011  0.2704 -0.1113
   17MOL   C62912821   2.782   3.975   1.254  0.7296 -0.0813 -0.2564
   17MOL   H63012822   2.686   3.756   0.718 -1.6045 -1.6578 -1.6517
   17MOL   H63112823   2.728   3.863   0.578 -0.9833  0.2809  0.8318
   17MOL   H63212824   2.825   3.676   0.450  2.2341  1.8919  2.6058
   17MOL   H63312825   2.656   3.656   0.491 -0.6100 -0.2823  0.5317
   17MOL   H63412826   2.710   3.522   0.694 -0.9030  1.7334 -0.2521
   17MOL   H63512827   2.788   3.323   0.607 -1.9243  0.8709  1.1987
   17MOL   H63612828   2.850   3.387   0.461  2.8378 -1.3775  2.8295
   17MOL   H63712829   2.988   3.549   0.575  1.7383 -1.2926  0.8059
   17MOL   H63812830   2.943   3.440   0.714 -1.6521 -0.4675 -0.6298
   17MOL   H63912831   2.893   3.641   0.854 -0.1439 -0.1999 -1.3255
   17MOL   H64012832   3.042   3.665   0.791 -0.1569  0.3387 -1.9861
   17MOL   H64112833   2.968   3.801   0.613 -1.3570  0.5309 -0.7048
   17MOL   H64212834   2.892   4.001   0.743 -0.4140 -0.8717 -1.9957
   17MOL   H64312835   3.023   3.904   0.821 -0.1062 -1.0891 -1.2230
   17MOL   H64412836   2.766   3.688   1.052  0.0045 -0.4400  1.0784
   17MOL   H64512837   2.670   3.593   1.244  1.3559 -0.3287 -0.3518
   17MOL   H64612838   2.718   3.976   1.451  0.2834 -0.7915  0.6640
   17MOL   H64712839   2.806   4.080   1.258  1.3204 -0.1377 -1.6941
   17MOL   C64812840   2.441   3.211   1.397 -0.4883  0.1454  0.3277
   17MOL   C64912841   2.439   3.356   1.418 -0.6585  0.1852 -0.7979
   17MOL   C65012842   2.488   3.386   1.565 -1.0896  0.0725 -0.7425
   17MOL   C65112843   2.503   3.540   1.589  0.2321  0.8655 -0.0190
   17MOL   C65212844   2.402   3.321   1.680  0.4528 -0.1076 -0.0833
   17MOL   C65312845   2.381   3.173   1.647 -0.0946  0.3345 -0.6449
   17MOL   C65412846   2.338   3.147   1.502  0.3341 -0.1505 -0.0895
   17MOL   C65512847   2.321   2.990   1.474  0.1276  0.2510 -0.1875
   17MOL   O65612848   2.298   2.964   1.338 -0.3462 -0.3909  0.0161
   17MOL   C65712849   2.394   2.923   1.252  1.0119 -0.0178  0.9232
   17MOL   O65812850   2.503   2.886   1.293  0.2321  0.3343 -0.9482
   17MOL   C65912851   2.354   2.918   1.105  0.4453 -0.3597  0.0411
   17MOL   C66012852   2.231   2.979   1.068  0.3407  0.4202  1.1903
   17MOL   C66112853   2.196   2.992   0.928  0.6810 -0.7802 -0.0687
   17MOL   C66212854   2.281   2.924   0.834  1.0782 -0.5826 -0.0888
   17MOL   C66312855   2.249   2.943   0.690 -0.1046 -0.2129 -0.0942
   17MOL   O66412856   2.134   2.960   0.650 -0.2116 -0.1449 -0.0570
   17MOL   O66512857   2.350   2.923   0.602  0.2636 -0.0680 -0.5016
   17MOL   C66612858   2.395   2.858   0.881 -0.6423 -0.3527  0.1804
   17MOL   C66712859   2.431   2.853   1.011 -0.6999  0.4219  0.5513
   17MOL   H66812860   2.538   3.161   1.403  0.5234  2.0190 -0.2470
   17MOL   H66912861   2.405   3.203   1.294 -1.4270 -0.2831  0.6793
   17MOL   H67012862   2.340   3.397   1.436 -0.5790 -0.0457  0.2424
   17MOL   H67112863   2.492   3.410   1.340  1.9736  0.2248  0.9405
   17MOL   H67212864   2.585   3.336   1.575 -1.0793  0.2506  0.1110
   17MOL   H67312865   2.558   3.562   1.680 -1.7211  2.8916  0.7187
   17MOL   H67412866   2.404   3.586   1.596  0.3988  1.3710 -0.9007
   17MOL   H67512867   2.302   3.364   1.686 -0.7319 -2.7316 -0.3885
   17MOL   H67612868   2.432   3.335   1.784 -0.9421 -0.5512  0.3875
   17MOL   H67712869   2.472   3.114   1.660 -0.3471 -0.3617 -1.9548
   17MOL   H67812870   2.306   3.125   1.710 -0.3786  0.6348 -0.7572
   17MOL   H67912871   2.239   3.192   1.497  0.6567  0.8061  1.6070
   17MOL   H68012872   2.243   2.940   1.531  1.2304 -0.1734  0.9418
   17MOL   H68112873   2.408   2.937   1.511  1.0089  2.8286  1.5849
   17MOL   H68212874   2.172   3.030   1.143 -1.5317 -1.3999  0.9912
   17MOL   H68312875   2.104   3.043   0.901 -0.0446 -3.7808 -3.6990
   17MOL   H68412876   2.452   2.804   0.806 -1.7368 -2.3880  0.7661
   17MOL   H68512877   2.527   2.813   1.040 -1.5105 -1.0583  1.2495
   17MOL   C68612878   2.576   3.022   0.182 -0.5532  0.4489 -0.5584
   17MOL   C68712879   2.449   2.968   0.240  0.7327  0.1254  0.2762
   17MOL   C68812880   2.464   2.946   0.393  0.3822 -0.1706 -0.0027
   17MOL   C68912881   2.327   2.928   0.465 -0.6260  0.0799  0.1715
   17MOL   C69012882   2.575   2.842   0.419 -0.4208 -0.2744 -0.2057
   17MOL   C69112883   2.702   2.881   0.339  0.1130  0.0104 -1.0071
   17MOL   C69212884   2.684   2.918   0.191 -0.0750 -0.3466  0.1042
   17MOL   C69312885   2.823   2.969   0.131  0.2955  0.6146 -0.0626
   17MOL   O69412886   2.800   2.996   8.024 -0.3079 -0.1085  0.0581
   17MOL   C69512887   2.906   3.033   7.944  0.0182 -0.7631  0.5645
   17MOL   O69612888   3.021   3.046   7.985 -0.4126 -0.0987 -0.7855
   17MOL   C69712889   2.866   3.062   7.803 -0.1751  0.6563  0.3342
   17MOL   C69812890   2.737   3.034   7.755  0.8479  0.2069  0.0000
   17MOL   C69912891   2.701   3.066   7.621 -0.5829 -0.1668 -0.6621
   17MOL   C70012892   2.784   3.145   7.543  0.2594  0.1465 -0.0888
   17MOL   C70112893   2.721   3.203   7.423 -0.1655  0.1867  0.0450
   17MOL   O70212894   2.600   3.206   7.396 -0.4830 -0.3950 -0.1988
   17MOL   O70312895   2.814   3.244   7.338  0.1779  0.4176  0.3372
   17MOL   C70412896   2.921   3.164   7.586 -0.2153  0.3633  0.1335
   17MOL   C70512897   2.964   3.118   7.712 -0.2593 -0.0394 -0.7249
   17MOL   H70612898   2.612   3.119   0.216  0.0368 -0.0932  0.3848
   17MOL   H70712899   2.563   3.037   0.075 -0.1031 -0.2337 -0.7154
   17MOL   H70812900   2.424   2.873   0.192 -0.8583  0.6522  0.0338
   17MOL   H70912901   2.371   3.044   0.230  0.3211 -0.1773  1.1594
   17MOL   H71012902   2.505   3.043   0.422  0.3387 -0.3824  0.7649
   17MOL   H71112903   2.282   2.830   0.451 -1.1533  0.5792 -1.8740
   17MOL   H71212904   2.262   3.006   0.424 -0.4557 -0.7538 -1.7448
   17MOL   H71312905   2.532   2.747   0.385  0.2353 -1.1435  1.3679
   17MOL   H71412906   2.607   2.848   0.523 -2.9358  0.1310  0.5738
   17MOL   H71512907   2.736   2.978   0.377 -3.6128  0.1352  2.3783
   17MOL   H71612908   2.783   2.812   0.360  0.9343  0.8108 -1.5404
   17MOL   H71712909   2.660   2.831   0.130  1.6928  1.3006 -3.0694
   17MOL   H71812910   2.889   2.883   0.139 -0.3724  0.1258  0.2425
   17MOL   H71912911   2.855   3.059   0.184 -1.4925  1.2337 -0.0077
   17MOL   H72012912   2.668   2.984   7.822 -0.8467  2.0193 -0.3454
   17MOL   H72112913   2.597   3.059   7.591 -1.0977  2.0481  0.4807
   17MOL   H72212914   2.990   3.226   7.531  1.1397 -2.0582 -0.9920
   17MOL   H72312915   3.064   3.145   7.744  0.4375  0.2403 -3.0497
   17MOL   C72412916   2.567   3.560   7.031  0.2686  0.1631 -0.0792
   17MOL   C72512917   2.612   3.418   7.067  0.3584 -0.1669 -0.1491
   17MOL   C72612918   2.701   3.418   7.187  1.1407 -0.4177 -0.0941
   17MOL   C72712919   2.774   3.280   7.204 -1.7473 -0.2469  0.1711
   17MOL   C72812920   2.805   3.527   7.187  0.1057  0.2593  0.3693
   17MOL   C72912921   2.742   3.664   7.160 -0.2649 -0.2630  0.3804
   17MOL   C73012922   2.677   3.672   7.029  0.0006 -0.0474 -0.6837
   17MOL   C73112923   2.620   3.806   7.000 -0.7744 -0.5671  0.5113
   17MOL   O73212924   2.543   3.814   6.876 -0.0802  0.6924  0.1387
   17MOL   C73312925   2.410   3.801   6.872  0.4279  0.0314 -0.3628
   17MOL   O73412926   2.341   3.762   6.967  0.7335 -0.0895 -0.2029
   17MOL   C73512927   2.355   3.845   6.745  0.8620 -0.0132  0.1255
   17MOL   C73612928   2.217   3.837   6.712 -0.1154 -0.5266 -0.1315
   17MOL   C73712929   2.168   3.879   6.585 -0.6425 -0.2415 -0.1776
   17MOL   C73812930   2.258   3.916   6.479 -0.3918 -0.2842 -0.1617
   17MOL   C73912931   2.215   3.954   6.339  0.5064 -0.5314  0.5640
   17MOL   O74012932   2.100   3.925   6.296  0.0491 -0.7496 -0.4905
   17MOL   O74112933   2.309   4.016   6.268  0.0241  0.0853 -0.3103
   17MOL   C74212934   2.398   3.913   6.511  0.2344  0.3605  0.8877
   17MOL   C74312935   2.445   3.885   6.642 -0.5795  0.3794 -0.1531
   17MOL   H74412936   2.487   3.595   7.095 -1.2563 -0.6472 -1.4846
   17MOL   H74512937   2.524   3.567   6.931  0.1385  2.2166  0.1187
   17MOL   H74612938   2.667   3.375   6.983 -0.6529 -1.1937 -0.2929
   17MOL   H74712939   2.534   3.346   7.090  0.4891  0.3082  1.8561
   17MOL   H74812940   2.629   3.434   7.267 -0.1034 -0.8993 -1.0884
   17MOL   H74912941   2.870   3.288   7.151 -2.3615 -0.7594 -1.0350
   17MOL   H75012942   2.720   3.195   7.164 -1.1184 -0.4199 -0.3261
   17MOL   H75112943   2.893   3.512   7.125  1.1053  0.1049  1.8081
   17MOL   H75212944   2.851   3.534   7.285  1.7294  1.2251 -0.4356
   17MOL   H75312945   2.659   3.685   7.228 -1.0411 -1.5525 -0.1446
   17MOL   H75412946   2.813   3.745   7.174  0.6361 -1.4196  2.7171
   17MOL   H75512947   2.742   3.660   6.943  0.6458  1.1519 -0.3804
   17MOL   H75612948   2.688   3.891   6.993 -0.0204 -1.1087  1.2216
   17MOL   H75712949   2.548   3.828   7.078 -0.0551 -0.1472  1.0620
   17MOL   H75812950   2.147   3.795   6.782 -0.0497  2.4322  1.8406
   17MOL   H75912951   2.065   3.857   6.559 -0.5538 -1.4717  0.5213
   17MOL   H76012952   2.478   3.944   6.444 -0.1607  0.7156  0.5790
   17MOL   H76112953   2.552   3.880   6.659 -0.7213 -0.0704  0.6238
   17MOL   H76212954   2.285   4.022   6.177 -0.0905  0.2116 -0.2710
   18MOL     C112955   2.357   6.317   2.973 -0.1437 -0.1430 -0.1825
   18MOL     C212956   2.432   6.216   3.070  0.5729 -0.1130 -0.1542
   18MOL     C312957   2.363   6.230   3.204  0.0638  0.2284 -0.1173
   18MOL     C412958   2.438   6.146   3.310  0.4127 -0.0184 -0.0687
   18MOL     C512959   2.365   6.378   3.257 -1.0061 -0.2920  0.1437
   18MOL     C612960   2.305   6.470   3.155  0.6189 -0.5484  0.4133
   18MOL     C712961   2.370   6.458   3.015  0.0034  0.5429  0.5760
   18MOL     C812962   2.303   6.542   2.908 -0.3096 -0.7315  0.0759
   18MOL     O912963   2.327   6.680   2.951  0.0319  0.0408 -0.4660
   18MOL    C1012964   2.220   6.751   2.984 -0.1546  0.1512 -0.1897
   18MOL    O1112965   2.103   6.721   2.972  0.1471  0.3764 -0.1314
   18MOL    C1212966   2.253   6.894   3.039 -0.8026 -0.2165  0.1620
   18MOL    C1312967   2.151   6.990   3.044 -0.2931 -0.0098  0.0813
   18MOL    C1412968   2.180   7.126   3.062 -0.4620  0.2864 -0.0600
   18MOL    C1512969   2.314   7.164   3.091  0.0676  0.0293 -0.4953
   18MOL    C1612970   2.357   7.305   3.130  0.5265  0.5372 -0.1318
   18MOL    O1712971   2.472   7.331   3.160 -0.0001 -0.3845  0.4205
   18MOL    O1812972   2.250   7.387   3.148 -0.7455 -0.0184 -0.7832
   18MOL    C1912973   2.413   7.065   3.098  0.1370 -0.5480 -0.4129
   18MOL    C2012974   2.378   6.929   3.079  0.5007 -0.2951  0.9677
   18MOL    H2112975   2.251   6.290   2.972 -0.9368  2.4171  3.2304
   18MOL    H2212976   2.380   6.303   2.868  0.3044  0.1595 -0.1273
   18MOL    H2312977   2.531   6.263   3.076  1.0377 -1.0933 -0.1100
   18MOL    H2412978   2.447   6.120   3.020  2.1521  0.2722 -0.4659
   18MOL    H2512979   2.257   6.209   3.189  0.1706  0.8332 -1.8244
   18MOL    H2612980   2.544   6.169   3.313 -0.0363  2.1666  0.4435
   18MOL    H2712981   2.432   6.038   3.299  0.7474 -0.1204  0.7090
   18MOL    H2812982   2.469   6.403   3.276 -1.5622  0.5673  2.1690
   18MOL    H2912983   2.316   6.394   3.353 -0.3801  0.8209  0.2933
   18MOL    H3012984   2.197   6.468   3.145  0.6087  1.7551 -0.4206
   18MOL    H3112985   2.314   6.576   3.182  1.8339 -0.3509 -0.6743
   18MOL    H3212986   2.472   6.495   3.024  0.2631 -0.2158  0.7692
   18MOL    H3312987   2.204   6.513   2.874 -0.9718  0.1982  1.1779
   18MOL    H3412988   2.363   6.519   2.820  0.2655 -1.6191  0.7000
   18MOL    H3512989   2.053   6.956   3.014 -0.5374  0.0974  0.7613
   18MOL    H3612990   2.106   7.205   3.059 -0.8062  0.2283  4.0382
   18MOL    H3712991   2.513   7.087   3.132 -0.0011  1.6506 -1.3227
   18MOL    H3812992   2.454   6.853   3.095  1.1255  0.4728  1.7090
   18MOL    H3912993   2.389   6.151   3.407  0.2490 -2.4441 -0.0082
   18MOL    C4012994   1.954   7.556   3.408  0.1515 -0.5019  0.0357
   18MOL    C4112995   2.027   7.524   3.280 -0.1910 -0.4374 -0.0266
   18MOL    C4212996   2.176   7.568   3.301 -0.0058  0.1916  0.0686
   18MOL    C4312997   2.256   7.526   3.179 -0.4182  1.0590 -0.5701
   18MOL    C4412998   2.172   7.719   3.317 -0.1334  0.1756  0.4685
   18MOL    C4512999   2.088   7.761   3.436  0.2672 -0.3849  0.1705
   18MOL    C4613000   1.940   7.709   3.421  0.5412 -0.0901  0.4559
   18MOL    C4713001   1.852   7.753   3.534  0.0257 -0.0114 -0.0649
   18MOL    O4813002   1.719   7.716   3.500 -0.1461  0.7211  0.1637
   18MOL    C4913003   1.620   7.730   3.583  0.0392 -0.3050  0.3320
   18MOL    O5013004   1.634   7.748   3.704  0.3317  0.1695 -0.0628
   18MOL    C5113005   1.494   7.710   3.514 -0.1121  0.0127 -0.2144
   18MOL    C5213006   1.471   7.756   3.382 -0.6301  0.0894  0.8868
   18MOL    C5313007   1.342   7.738   3.322 -0.1983  0.2472  0.6257
   18MOL    C5413008   1.234   7.679   3.398  0.1603 -0.2963  0.6103
   18MOL    C5513009   1.097   7.660   3.340  0.5062 -0.8475 -0.5653
   18MOL    O5613010   1.014   7.582   3.392  0.2966 -0.9443 -0.1895
   18MOL    O5713011   1.075   7.732   3.235 -0.1013 -0.1711 -0.0137
   18MOL    C5813012   1.261   7.632   3.525 -0.5672 -0.0492 -1.0196
   18MOL    C5913013   1.391   7.647   3.583 -0.7873  0.0116 -0.0272
   18MOL    H6013014   2.000   7.511   3.496  1.0204  0.6971  0.2076
   18MOL    H6113015   1.851   7.522   3.398 -0.4166  0.8522  1.1438
   18MOL    H6213016   1.984   7.567   3.190 -1.2337 -2.8715 -0.7482
   18MOL    H6313017   2.018   7.418   3.258 -1.4942 -0.0296 -1.5373
   18MOL    H6413018   2.208   7.514   3.390 -1.1908  0.2973  0.5728
   18MOL    H6513019   2.358   7.554   3.206 -0.0856  1.0628 -1.7967
   18MOL    H6613020   2.216   7.580   3.092 -1.1681  0.9285 -0.3131
   18MOL    H6713021   2.121   7.766   3.233 -1.6579 -1.6662  0.3393
   18MOL    H6813022   2.273   7.760   3.327  0.4431 -1.3010  0.9061
   18MOL    H6913023   2.139   7.737   3.530  1.3742 -0.0717 -0.3471
   18MOL    H7013024   2.085   7.870   3.434 -1.2550 -0.4180  0.1570
   18MOL    H7113025   1.913   7.750   3.324 -2.8070  0.0116  1.3421
   18MOL    H7213026   1.853   7.860   3.556 -2.2220 -0.4012  2.1985
   18MOL    H7313027   1.885   7.700   3.624  0.8085  2.8467  1.3924
   18MOL    H7413028   1.542   7.825   3.338 -1.8615  1.4848  1.0460
   18MOL    H7513029   1.321   7.787   3.228 -1.8137 -0.8056  0.4300
   18MOL    H7613030   1.182   7.594   3.588  0.7457 -0.3933  0.4247
   18MOL    H7713031   1.410   7.609   3.682 -1.3716  0.0735  0.1102
   18MOL    C7813032   0.809   7.941   2.870  0.7455  0.2570  0.0833
   18MOL    C7913033   0.816   7.886   3.012  0.2294 -0.0052  1.0980
   18MOL    C8013034   0.948   7.815   3.045 -1.1535 -0.5870 -0.8188
   18MOL    C8113035   0.938   7.755   3.189 -0.1470  0.4677 -0.5675
   18MOL    C8213036   0.975   7.703   2.942  0.1119  0.4296 -0.9863
   18MOL    C8313037   0.989   7.776   2.809  0.3962 -0.2340 -0.5700
   18MOL    C8413038   0.866   7.845   2.760  0.0541 -0.0237 -0.1551
   18MOL    C8513039   0.895   7.930   2.634  0.3439  0.7022 -0.0020
   18MOL    O8613040   0.934   7.849   2.524  0.1117 -0.4965  0.0415
   18MOL    C8713041   1.023   7.901   2.432 -0.4953  0.3973 -0.4781
   18MOL    O8813042   1.070   8.015   2.444 -0.3297 -0.9162  0.2948
   18MOL    C8913043   1.070   7.806   2.325 -0.1638  0.7500 -0.3382
   18MOL    C9013044   1.063   7.662   2.344  0.7549  0.2859  0.4551
   18MOL    C9113045   1.121   7.572   2.249 -0.4255 -0.3964 -0.6043
   18MOL    C9213046   1.182   7.624   2.131  0.4195  0.0494 -0.2305
   18MOL    C9313047   1.244   7.528   2.041  0.1152  0.0401  0.1520
   18MOL    O9413048   1.233   7.408   2.054  0.1913  0.2460  0.4329
   18MOL    O9513049   1.329   7.590   1.947 -0.0982  0.9699  0.1640
   18MOL    C9613050   1.180   7.766   2.108 -0.2098 -0.2541  0.0628
   18MOL    C9713051   1.124   7.857   2.204  0.3761  0.5219  0.1703
   18MOL    H9813052   0.866   0.002   2.872  1.5162 -0.1603 -1.6524
   18MOL    H9913053   0.705   7.970   2.858  0.2600 -1.0358  1.0531
   18MOL   H10013054   0.731   7.818   3.017  0.0252  0.0885 -0.7463
   18MOL   H10113055   0.795   7.965   3.084 -0.3439 -1.1327  2.1990
   18MOL   H10213056   1.035   7.880   3.044 -1.5521  0.1578  3.7336
   18MOL   H10313057   0.866   7.674   3.202 -0.7230  0.5836 -2.8319
   18MOL   H10413058   0.894   7.828   3.257  0.0015  0.5834 -0.5955
   18MOL   H10513059   0.903   7.622   2.935  0.8852 -0.6904  3.0887
   18MOL   H10613060   1.071   7.659   2.967  0.0234 -0.4764 -2.1649
   18MOL   H10713061   1.065   7.854   2.815  0.4328 -0.2856 -0.3420
   18MOL   H10813062   1.022   7.716   2.725  1.4999  2.1806 -1.9147
   18MOL   H10913063   0.790   7.769   2.738  0.4703 -0.1752 -1.0816
   18MOL   H11013064   0.975   8.000   2.653  1.6391 -1.3885  2.5926
   18MOL   H11113065   0.808   7.989   2.605  0.0113 -0.4245 -1.3782
   18MOL   H11213066   1.018   7.618   2.432 -3.6542  1.0607 -1.2771
   18MOL   H11313067   1.119   7.468   2.277  1.3379 -0.0886  0.7852
   18MOL   H11413068   1.233   7.799   2.020  0.2862 -1.2409 -0.0205
   18MOL   H11513069   1.120   7.962   2.179 -0.1038  0.5390  0.3026
   18MOL   C11613070   1.551   7.809   1.631  1.0814  1.4481  0.7773
   18MOL   C11713071   1.506   7.729   1.754 -0.8648 -0.2034 -0.0021
   18MOL   C11813072   1.406   7.627   1.713  0.2579  0.1936 -0.5541
   18MOL   C11913073   1.374   7.521   1.828 -0.6083  0.2576 -0.3071
   18MOL   C12013074   1.282   7.702   1.658 -0.9261  0.1048  0.1294
   18MOL   C12113075   1.313   7.795   1.534 -0.1867  0.9554  1.0212
   18MOL   C12213076   1.436   7.892   1.567  0.4040  0.3734 -0.2959
   18MOL   C12313077   1.466   7.992   1.452 -0.1640 -0.9781 -0.3844
   18MOL   O12413078   1.356   0.040   1.415 -0.0080 -0.1310  0.6428
   18MOL   C12513079   1.357   0.106   1.292  0.5093  0.7723  0.1482
   18MOL   O12613080   1.458   0.118   1.220 -1.1698 -0.0929  0.0723
   18MOL   C12713081   1.225   0.176   1.264  0.8800 -0.0733 -0.1611
   18MOL   C12813082   1.106   0.117   1.326  0.0413 -0.2112 -0.3502
   18MOL   C12913083   0.984   0.184   1.318 -0.3959 -0.6744  0.4635
   18MOL   C13013084   0.963   0.301   1.236 -0.0111 -0.2902  0.0716
   18MOL   C13113085   0.829   0.355   1.233  0.5491 -0.7355  0.5529
   18MOL   O13213086   0.735   0.303   1.293 -0.0082 -0.2694 -0.2579
   18MOL   O13313087   0.808   0.465   1.159 -0.5531  0.3582  0.0924
   18MOL   C13413088   1.074   0.350   1.169  0.8645  0.2306  0.2399
   18MOL   C13513089   1.201   0.291   1.178 -0.6102  0.0396  0.3299
   18MOL   H13613090   1.601   7.748   1.555 -0.2020  1.6099 -0.2114
   18MOL   H13713091   1.621   7.885   1.667  0.7557  2.0277  0.1971
   18MOL   H13813092   1.468   7.784   1.840 -0.2892  0.0512  0.0897
   18MOL   H13913093   1.595   7.678   1.790 -0.9378 -0.0260  0.4346
   18MOL   H14013094   1.437   7.574   1.623 -0.2574 -4.0039  1.6308
   18MOL   H14113095   1.451   7.450   1.859 -0.2885 -0.0565 -1.7745
   18MOL   H14213096   1.292   7.461   1.790 -0.3283 -0.2075 -0.1720
   18MOL   H14313097   1.235   7.769   1.731 -1.2036  1.2286 -1.0476
   18MOL   H14413098   1.209   7.624   1.636 -0.8444 -1.0095  3.4374
   18MOL   H14513099   1.330   7.724   1.453 -0.7242 -0.1728  1.8957
   18MOL   H14613100   1.220   7.847   1.508  0.1189  0.7984 -0.4505
   18MOL   H14713101   1.398   7.954   1.648  0.0076  0.7518 -0.7648
   18MOL   H14813102   1.505   7.937   1.366  0.1120  0.5289 -1.2500
   18MOL   H14913103   1.540   0.033   1.484 -1.6395  1.5808 -2.4749
   18MOL   H15013104   1.099   0.025   1.381  0.2575 -0.9020 -1.4624
   18MOL   H15113105   0.903   0.142   1.376  0.1282  1.0027  2.4742
   18MOL   H15213106   1.064   0.442   1.113 -3.0592 -1.2453 -1.7342
   18MOL   H15313107   1.278   0.335   1.117  0.0621 -0.8756  0.5152
   18MOL   C15413108   0.428   0.757   1.327  0.1102 -0.0199 -0.2375
   18MOL   C15513109   0.483   0.664   1.221  0.2419  0.4293  0.0023
   18MOL   C15613110   0.618   0.599   1.250 -0.1519  0.2074  0.3606
   18MOL   C15713111   0.669   0.505   1.133 -0.2122 -0.4973 -0.9006
   18MOL   C15813112   0.723   0.700   1.292  0.5154 -0.5960 -0.5358
   18MOL   C15913113   0.667   0.788   1.407  0.9764  0.3350 -1.0563
   18MOL   C16013114   0.528   0.857   1.372 -0.5884 -0.3295  0.0833
   18MOL   C16113115   0.489   0.933   1.494 -0.5125 -0.3197  0.1417
   18MOL   O16213116   0.364   0.996   1.463 -0.5529 -0.3668  0.0070
   18MOL   C16313117   0.352   1.131   1.441 -0.2922  0.0911  0.1887
   18MOL   O16413118   0.448   1.204   1.459  0.0213  0.2131  0.6417
   18MOL   C16513119   0.213   1.179   1.407  0.1611  0.5805  0.5737
   18MOL   C16613120   0.127   1.093   1.345 -0.0560 -0.2458  0.2678
   18MOL   C16713121   8.027   1.129   1.314 -0.1047  0.0516  0.3037
   18MOL   C16813122   7.980   1.257   1.342  0.3129 -0.1438 -0.1455
   18MOL   C16913123   7.835   1.293   1.320  0.4647 -0.2752  0.2827
   18MOL   O17013124   7.757   1.201   1.291  0.0787 -0.5013  0.0447
   18MOL   O17113125   7.803   1.420   1.338  0.2226  0.1452 -0.3951
   18MOL   C17213126   0.035   1.350   1.407 -0.3965  0.4549  0.2917
   18MOL   C17313127   0.164   1.308   1.425  0.3342  0.1963  0.5473
   18MOL   H17413128   0.392   0.708   1.418  0.3761  2.4526  1.2229
   18MOL   H17513129   0.351   0.818   1.281 -0.3944  0.3402  1.0812
   18MOL   H17613130   0.498   0.714   1.125  1.8084 -1.6871 -0.8971
   18MOL   H17713131   0.405   0.591   1.197 -0.3990  1.0591  0.1496
   18MOL   H17813132   0.601   0.531   1.334  2.1106  1.3563  1.7807
   18MOL   H17913133   0.675   0.566   1.043  0.9553  0.8520  0.0608
   18MOL   H18013134   0.603   0.422   1.107 -0.3666 -1.4345  2.2935
   18MOL   H18113135   0.746   0.777   1.218  0.5099  0.9580  1.0506
   18MOL   H18213136   0.808   0.643   1.330 -0.0523 -0.2800  1.2505
   18MOL   H18313137   0.657   0.721   1.492 -0.6650  1.3586 -0.4036
   18MOL   H18413138   0.743   0.861   1.435 -1.0213  1.7397  0.9057
   18MOL   H18513139   0.538   0.927   1.290  2.2220 -0.8461 -0.0667
   18MOL   H18613140   0.563   1.007   1.524  0.0679 -1.4581  1.5821
   18MOL   H18713141   0.469   0.875   1.584 -2.1767 -0.4016 -0.2740
   18MOL   H18813142   0.158   0.993   1.319  2.7411  0.5372  0.4581
   18MOL   H18913143   7.957   1.060   1.269 -1.3300  1.3045  0.2836
   18MOL   H19013144   8.031   1.448   1.434 -0.0656  0.5582  0.3615
   18MOL   H19113145   0.235   1.372   1.477  0.9748 -2.0295  2.5182
   18MOL   C19213146   7.590   1.522   1.704  0.0523 -0.0750 -0.3971
   18MOL   C19313147   7.672   1.516   1.574  0.3578  0.3334  0.2100
   18MOL   C19413148   7.590   1.475   1.458  0.0469  0.3965  0.6088
   18MOL   C19513149   7.666   1.468   1.317  0.3922  0.3008 -0.2629
   18MOL   C19613150   7.529   1.331   1.488  0.0168  0.0843  0.5812
   18MOL   C19713151   7.450   1.330   1.622 -0.4647 -0.0914 -0.0353
   18MOL   C19813152   7.533   1.384   1.743  0.0469 -0.0022  0.1083
   18MOL   C19913153   7.433   1.387   1.855 -0.3969  0.4872  0.3867
   18MOL   O20013154   7.510   1.434   1.969 -0.5451 -0.6584  0.4388
   18MOL   C20113155   7.496   1.372   2.088 -0.8832 -0.1223  0.0482
   18MOL   O20213156   7.413   1.291   2.126 -0.2396 -0.1446 -0.4815
   18MOL   C20313157   7.610   1.428   2.171  0.4488 -0.4527 -0.8651
   18MOL   C20413158   7.719   1.502   2.114  0.2873 -0.0259 -0.1424
   18MOL   C20513159   7.830   1.542   2.186  0.4134 -0.1405  0.4173
   18MOL   C20613160   7.836   1.510   2.320  0.3246 -0.0163 -0.3609
   18MOL   C20713161   7.961   1.542   2.394 -0.4277 -0.2698 -0.5138
   18MOL   O20813162   0.029   1.603   2.355 -0.1165  0.5699  0.0398
   18MOL   O20913163   7.949   1.495   2.519  0.5131 -0.2314 -0.2535
   18MOL   C21013164   7.726   1.444   2.383 -0.1625 -0.1952  0.1622
   18MOL   C21113165   7.614   1.403   2.308  0.9052  0.1041  0.0314
   18MOL   H21213166   7.502   1.587   1.702  0.8590  1.1714  1.7136
   18MOL   H21313167   7.654   1.570   1.779 -0.3981  0.3665 -0.2925
   18MOL   H21413168   7.753   1.444   1.586 -0.6658 -1.0751 -1.2353
   18MOL   H21513169   7.716   1.613   1.551 -1.1056  0.7937 -0.7555
   18MOL   H21613170   7.503   1.535   1.432 -1.1404 -1.9651 -0.9831
   18MOL   H21713171   7.674   1.570   1.281  1.2186  0.8312  1.3589
   18MOL   H21813172   7.623   1.404   1.240  2.0328  1.1165 -1.8787
   18MOL   H21913173   7.603   1.252   1.497 -0.6489 -0.6968 -0.6484
   18MOL   H22013174   7.467   1.307   1.402  2.7447 -0.4110 -1.2917
   18MOL   H22113175   7.355   1.381   1.610  0.5959  2.1335  0.6641
   18MOL   H22213176   7.420   1.227   1.645  1.2356 -0.7815 -0.7867
   18MOL   H22313177   7.605   1.303   1.754  0.8267  0.5519 -0.8135
   18MOL   H22413178   7.391   1.289   1.878  0.1873  0.1727  0.1324
   18MOL   H22513179   7.351   1.455   1.830  0.6109  1.0700 -1.4046
   18MOL   H22613180   7.733   1.507   2.007 -2.0437  2.3420 -0.3755
   18MOL   H22713181   7.915   1.575   2.128 -0.3994  0.0783 -0.6804
   18MOL   H22813182   7.736   1.427   2.489 -3.9523 -2.0770  0.3193
   18MOL   H22913183   7.530   1.355   2.355  2.0174 -1.0348  0.8970
   18MOL   C23013184   0.203   1.167   2.765  0.1630  0.1251 -0.0807
   18MOL   C23113185   0.146   1.311   2.760  0.0343 -0.3148  0.4216
   18MOL   C23213186   0.090   1.352   2.626  0.1792  0.6745  0.5336
   18MOL   C23313187   0.023   1.490   2.617 -0.5382  0.0707  0.1051
   18MOL   C23413188   0.189   1.315   2.513 -0.0212  0.0846  0.2454
   18MOL   C23513189   0.226   1.169   2.511  0.0480  0.4219  0.4339
   18MOL   C23613190   0.295   1.141   2.641  0.9167 -0.1852 -0.2224
   18MOL   C23713191   0.352   0.999   2.650  0.7230 -0.0787 -0.8624
   18MOL   O23813192   0.458   0.992   2.746  0.5555  0.1096  0.0285
   18MOL   C23913193   0.454   0.904   2.848  0.4014  0.0438  0.0716
   18MOL   O24013194   0.350   0.841   2.877  0.6855 -0.2505 -0.3299
   18MOL   C24113195   0.578   0.893   2.934 -0.5787 -0.3055 -0.3142
   18MOL   C24213196   0.648   1.010   2.982  0.1419  0.3673  0.7184
   18MOL   C24313197   0.769   1.000   3.051 -0.2415  0.5221  0.3064
   18MOL   C24413198   0.815   0.875   3.098 -0.3391  0.6193 -0.1354
   18MOL   C24513199   0.936   0.871   3.172 -0.5740  0.5696  0.0582
   18MOL   O24613200   0.990   0.974   3.217  0.4290  0.3173 -0.3456
   18MOL   O24713201   0.974   0.747   3.195  0.0862 -0.2446  0.3521
   18MOL   C24813202   0.734   0.759   3.077  0.0564  0.2508 -0.0821
   18MOL   C24913203   0.616   0.768   2.996  0.1158 -0.4387  0.1241
   18MOL   H25013204   0.124   1.092   2.774 -1.5237  1.6636 -1.7038
   18MOL   H25113205   0.268   1.156   2.851  1.0099 -2.3281 -0.9780
   18MOL   H25213206   0.233   1.372   2.786 -0.7137  1.8518 -2.0224
   18MOL   H25313207   0.071   1.321   2.839 -1.1688 -0.1169 -0.7313
   18MOL   H25413208   0.008   1.282   2.614 -0.4613  1.1531  2.0713
   18MOL   H25513209   0.090   1.574   2.597  2.5777 -2.4882 -0.5976
   18MOL   H25613210   8.012   1.512   2.714  2.5446  0.4257  1.4644
   18MOL   H25713211   0.286   1.364   2.504  0.0059  0.0547  0.3763
   18MOL   H25813212   0.143   1.334   2.416 -1.1360  3.7755  1.4247
   18MOL   H25913213   0.141   1.103   2.500  0.6536 -0.4696  1.0013
   18MOL   H26013214   0.283   1.146   2.421 -2.4781  0.7413 -1.2665
   18MOL   H26113215   0.384   1.202   2.659  0.4128  0.8069 -1.0483
   18MOL   H26213216   0.388   0.967   2.552  1.4226  0.2362 -0.7100
   18MOL   H26313217   0.266   0.934   2.670 -0.2221  1.6337  0.8046
   18MOL   H26413218   0.622   1.108   2.947 -0.1662  0.7462  1.9824
   18MOL   H26513219   0.827   1.091   3.060 -0.4213  0.7781 -0.9155
   18MOL   H26613220   0.771   0.663   3.110  0.3785  0.0875 -0.9016
   18MOL   H26713221   0.559   0.677   2.987 -2.4673  1.0894  0.5674
   18MOL   C26813222   1.281   0.456   3.048  0.1337 -0.0033  0.4030
   18MOL   C26913223   1.152   0.508   3.116  1.0391 -0.1968  0.1051
   18MOL   C27013224   1.189   0.637   3.201  0.3989  0.9760  0.6854
   18MOL   C27113225   1.076   0.707   3.274  0.2102 -0.0949  0.5676
   18MOL   C27213226   1.300   0.600   3.301 -0.0053 -0.4453 -0.1519
   18MOL   C27313227   1.419   0.549   3.228 -0.9312  0.2766 -0.1365
   18MOL   C27413228   1.388   0.420   3.150 -1.1446 -0.5861  0.7743
   18MOL   C27513229   1.503   0.354   3.083  1.0997 -0.0744 -0.5664
   18MOL   O27613230   1.460   0.239   3.007 -0.4290 -0.0021 -0.5094
   18MOL   C27713231   1.451   0.115   3.066 -0.6221  0.3524 -0.0275
   18MOL   O27813232   1.477   0.088   3.187 -0.7683  0.1720 -0.5372
   18MOL   C27913233   1.411   0.008   2.968 -0.6290 -0.3358  0.3307
   18MOL   C28013234   1.418   7.911   3.015  0.8257  0.4884  0.0892
   18MOL   C28113235   1.401   7.795   2.933  0.1172  0.2936  0.9481
   18MOL   C28213236   1.361   7.817   2.801 -0.1228 -0.2941 -0.4710
   18MOL   C28313237   1.358   7.704   2.711 -0.2089 -0.3800 -0.3330
   18MOL   O28413238   1.370   7.590   2.745  0.3149 -0.0158 -0.2867
   18MOL   O28513239   1.362   7.752   2.582 -0.1181 -0.0344  0.3223
   18MOL   C28613240   1.343   7.951   2.754  0.2969 -0.0248 -0.2514
   18MOL   C28713241   1.358   0.032   2.842  0.6302  0.8784 -0.3341
   18MOL   H28813242   1.320   0.538   2.988  0.7039 -1.0387 -0.6584
   18MOL   H28913243   1.254   0.370   2.987 -3.0915  0.2308  1.3709
   18MOL   H29013244   1.105   0.437   3.184 -0.0868  2.1118  1.7857
   18MOL   H29113245   1.082   0.545   3.041  2.4494  0.3725 -0.9710
   18MOL   H29213246   1.229   0.709   3.129 -0.9579  1.2822  0.2276
   18MOL   H29313247   1.118   0.794   3.324  0.0489  0.6334 -0.5427
   18MOL   H29413248   1.036   0.634   3.344 -1.5081  0.5113  0.2306
   18MOL   H29513249   1.277   0.540   3.389  2.9941 -1.1799  0.1953
   18MOL   H29613250   1.335   0.691   3.349  1.7954 -0.8570 -0.6401
   18MOL   H29713251   1.460   0.626   3.162 -0.9680  0.6042  0.2159
   18MOL   H29813252   1.499   0.531   3.299 -1.5597 -0.6678  0.3356
   18MOL   H29913253   1.348   0.349   3.222  0.2979 -1.9285  0.2845
   18MOL   H30013254   1.579   0.335   3.158  1.3089  0.2758 -0.6868
   18MOL   H30113255   1.546   0.422   3.009 -0.4279 -0.3943 -1.7968
   18MOL   H30213256   1.460   7.888   3.112 -0.6637 -1.0921  0.3799
   18MOL   H30313257   1.423   7.696   2.969  0.6450  0.5194  1.2620
   18MOL   H30413258   1.301   7.972   2.657 -2.6900 -1.8437  0.5747
   18MOL   H30513259   1.358   0.134   2.805 -0.5232  1.0858  0.2111
   18MOL   C30613260   1.726   7.625   2.355  0.7586 -0.0511 -0.4810
   18MOL   C30713261   1.604   7.692   2.412 -0.0180  0.7967  0.2432
   18MOL   C30813262   1.483   7.594   2.430  0.1575 -0.1671 -0.4749
   18MOL   C30913263   1.348   7.667   2.473  0.5274 -0.6528 -0.3816
   18MOL   C31013264   1.463   7.498   2.310 -0.3015 -0.1429  0.6000
   18MOL   C31113265   1.592   7.443   2.250  0.4384 -0.2195  0.0192
   18MOL   C31213266   1.695   7.561   2.220 -0.4378  0.4271  0.2864
   18MOL   C31313267   1.815   7.531   2.128  0.0380 -0.6722  0.1277
   18MOL   O31413268   1.794   7.568   1.988 -0.2759 -0.4939  0.5617
   18MOL   C31513269   1.846   7.689   1.938  0.6048  0.2697 -1.3686
   18MOL   O31613270   1.878   7.773   2.018 -0.1593  0.0793 -0.0482
   18MOL   C31713271   1.855   7.700   1.789 -0.5945 -0.9364 -0.3061
   18MOL   C31813272   1.823   7.595   1.699 -0.4004 -1.0622  0.7309
   18MOL   C31913273   1.842   7.612   1.563  0.1180  1.0027 -0.5836
   18MOL   C32013274   1.876   7.737   1.507 -0.4908 -0.2579  0.0343
   18MOL   C32113275   1.897   7.761   1.360  0.1169 -0.5438  0.3607
   18MOL   O32213276   1.934   7.873   1.310  0.2159  0.6411  0.2206
   18MOL   O32313277   1.873   7.648   1.292  0.0999  0.3544 -0.0095
   18MOL   C32413278   1.910   7.841   1.597  0.9714  0.2750 -0.3754
   18MOL   C32513279   1.899   7.824   1.737  0.1778  0.1383  0.4346
   18MOL   H32613280   1.767   7.548   2.421  3.6553  3.1161  1.6125
   18MOL   H32713281   1.806   7.700   2.352 -0.7429  1.7303  2.0807
   18MOL   H32813282   1.584   7.772   2.341 -2.3601  1.3155  1.4329
   18MOL   H32913283   1.634   7.736   2.507 -1.1456  0.2986  0.8462
   18MOL   H33013284   1.513   7.525   2.509 -1.2615 -1.3398 -0.9130
   18MOL   H33113285   1.264   7.599   2.493  0.3493 -0.6022 -0.9340
   18MOL   H33213286   1.312   7.728   2.390  1.5699  0.8733  0.2653
   18MOL   H33313287   1.428   7.569   2.235  2.3469  1.8944  1.2123
   18MOL   H33413288   1.401   7.409   2.321 -0.0783 -0.3372  0.2957
   18MOL   H33513289   1.646   7.377   2.318  1.5659  0.9430  0.2701
   18MOL   H33613290   1.578   7.387   2.157  0.4541  2.3755 -1.5977
   18MOL   H33713291   1.646   7.649   2.178  0.4366  2.5659  3.5477
   18MOL   H33813292   1.821   7.423   2.138 -2.5218 -0.7468  1.3058
   18MOL   H33913293   1.906   7.574   2.168 -0.3890 -0.7574  1.2002
   18MOL   H34013294   1.780   7.500   1.729  0.7474 -1.8195  0.0222
   18MOL   H34113295   1.829   7.522   1.506  0.8038 -1.0919  2.4665
   18MOL   H34213296   1.946   7.938   1.567 -0.9580  0.6275 -1.6193
   18MOL   H34313297   1.916   7.913   1.797  0.1663 -0.0780  0.7603
   18MOL   C34413298   2.142   7.562   0.881  0.0988  0.1794 -0.0814
   18MOL   C34513299   2.020   7.626   0.936  0.3872  0.3372  0.3585
   18MOL   C34613300   1.999   7.595   1.089 -0.2921 -0.2435  0.3309
   18MOL   C34713301   1.866   7.646   1.146 -0.1957 -0.2510 -0.1260
   18MOL   C34813302   2.016   7.446   1.117  0.4391 -0.0794 -0.0690
   18MOL   C34913303   2.147   7.392   1.065 -0.2178  0.4520 -0.8495
   18MOL   C35013304   2.171   7.416   0.917  0.1121  0.7474 -0.0858
   18MOL   C35113305   2.303   7.363   0.869 -0.7622 -0.2626 -0.0039
   18MOL   O35213306   2.318   7.228   0.917  0.7878 -0.1618  0.3725
   18MOL   C35313307   2.344   7.132   0.831  0.0068 -0.1367  0.3157
   18MOL   O35413308   2.370   7.144   0.711  0.3977 -0.1938  0.2815
   18MOL   C35513309   2.355   7.000   0.899 -0.4616 -0.1030 -0.1569
   18MOL   C35613310   2.339   6.879   0.824  0.9078  0.1874 -0.0929
   18MOL   C35713311   2.348   6.752   0.889 -0.4133 -0.1031 -0.4903
   18MOL   C35813312   2.384   6.743   1.021  0.4602  0.3519  0.3594
   18MOL   C35913313   2.423   6.609   1.080 -0.6373  0.1722  0.0514
   18MOL   O36013314   2.423   6.593   1.200  0.4375  1.0079 -0.5712
   18MOL   O36113315   2.473   6.513   0.995 -0.2734 -1.0388 -0.5329
   18MOL   C36213316   2.395   6.864   1.091  0.0064 -0.3116 -0.2756
   18MOL   C36313317   2.381   6.991   1.031 -0.4027  0.1984  0.0032
   18MOL   H36413318   2.225   7.622   0.919 -0.0388  1.0792 -1.1946
   18MOL   H36513319   2.141   7.578   0.773  1.6745  0.0357 -0.1264
   18MOL   H36613320   1.938   7.595   0.871 -0.1243  0.4429  0.9513
   18MOL   H36713321   2.028   7.733   0.921  1.8131 -0.1114 -2.4485
   18MOL   H36813322   2.083   7.645   1.139 -2.0229  2.6596  0.4838
   18MOL   H36913323   1.786   7.584   1.105  0.8299 -0.7948 -1.3385
   18MOL   H37013324   1.851   7.748   1.110 -2.2498  0.3564  2.2557
   18MOL   H37113325   1.934   7.382   1.085 -1.1371  2.5943 -1.5438
   18MOL   H37213326   2.011   7.429   1.225  0.0543  0.5689  0.0183
   18MOL   H37313327   2.226   7.448   1.115  0.0027  0.6260 -1.3852
   18MOL   H37413328   2.160   7.286   1.086 -3.0524 -0.4104 -3.1116
   18MOL   H37513329   2.094   7.357   0.866  1.3154 -0.0997 -0.9381
   18MOL   H37613330   2.385   7.428   0.899 -1.0046  0.4894 -0.9465
   18MOL   H37713331   2.299   7.374   0.761  1.1624 -1.0775 -0.1754
   18MOL   H37813332   2.309   6.880   0.720 -0.1776 -2.8553  0.1472
   18MOL   H37913333   2.325   6.660   0.837 -0.7838  0.1490 -0.7689
   18MOL   H38013334   2.399   6.857   1.199  0.8931  0.0252 -0.2828
   18MOL   H38113335   2.384   7.079   1.093  3.7014  0.1108  0.0707
   18MOL   C38213336   2.534   6.088   0.808 -0.3359  0.3755  0.0312
   18MOL   C38313337   2.478   6.203   0.903  1.2974  0.1804  0.6085
   18MOL   C38413338   2.592   6.288   0.958 -0.3865 -0.2261  0.3174
   18MOL   C38513339   2.533   6.394   1.052 -0.4443 -0.9191  0.3363
   18MOL   C38613340   2.703   6.201   1.021  0.1772 -0.2721  0.2943
   18MOL   C38713341   2.744   6.085   0.938  0.0400  0.2260 -0.3791
   18MOL   C38813342   2.635   5.994   0.873 -0.0679  0.4194  0.1205
   18MOL   C38913343   2.697   5.897   0.765 -0.4698  0.2034 -0.8835
   18MOL   O39013344   2.802   5.821   0.824 -0.0152 -0.5975  0.1082
   18MOL   C39113345   2.926   5.834   0.777  0.2786  0.1956  0.4918
   18MOL   O39213346   2.951   5.869   0.663  0.2339  0.2255  0.3343
   18MOL   C39313347   3.035   5.793   0.870 -0.3135  0.2249  0.6308
   18MOL   C39413348   3.006   5.737   0.998 -0.0180 -0.1597 -0.2132
   18MOL   C39513349   3.114   5.687   1.078  0.5975 -0.3657 -0.6072
   18MOL   C39613350   3.248   5.714   1.048  0.4294  0.5131  0.3512
   18MOL   C39713351   3.355   5.681   1.151 -0.7826 -0.0999 -0.2962
   18MOL   O39813352   3.320   5.617   1.250  0.0504 -0.4002  0.4224
   18MOL   O39913353   3.477   5.734   1.115  0.2529 -0.5428 -0.3623
   18MOL   C40013354   3.272   5.788   0.927 -0.0654  0.3755 -0.0760
   18MOL   C40113355   3.169   5.822   0.836 -0.8236  0.1388  0.2613
   18MOL   H40213356   2.584   6.135   0.723 -0.5178  0.4302 -0.0459
   18MOL   H40313357   2.444   6.040   0.768  1.5059 -0.7609 -2.9122
   18MOL   H40413358   2.417   6.174   0.989  0.0591  1.9130  0.3490
   18MOL   H40513359   2.404   6.254   0.840  0.4833  0.6629  1.9164
   18MOL   H40613360   2.640   6.340   0.875 -0.8129  0.2350  0.3586
   18MOL   H40713361   2.623   6.434   1.099  0.7892 -3.7517  0.5412
   18MOL   H40813362   2.475   6.346   1.132  1.4277  1.0378  2.9644
   18MOL   H40913363   2.657   6.167   1.114  1.1643 -1.6252  0.2983
   18MOL   H41013364   2.783   6.267   1.056  1.4055 -1.7964  0.3918
   18MOL   H41113365   2.801   6.116   0.851  1.4400  0.6846  0.6872
   18MOL   H41213366   2.800   6.014   1.000 -2.1650 -1.2596 -0.0306
   18MOL   H41313367   2.583   5.940   0.952 -0.5496  1.0923  0.2674
   18MOL   H41413368   2.731   5.951   0.677 -0.3546  0.6956 -0.5424
   18MOL   H41513369   2.622   5.827   0.728 -0.1723 -1.4605  1.5731
   18MOL   H41613370   2.903   5.719   1.024  0.3765 -1.7977  0.2471
   18MOL   H41713371   3.092   5.625   1.163  0.8762 -1.2909 -1.2075
   18MOL   H41813372   3.371   5.818   0.896 -0.2576 -0.1251 -1.2334
   18MOL   H41913373   3.200   5.850   0.736 -1.2743  1.0427  0.3740
   18MOL   C42013374   3.871   5.677   0.913  0.1438  0.3735  0.0723
   18MOL   C42113375   3.739   5.664   0.987 -0.4383  0.5838  0.1582
   18MOL   C42213376   3.725   5.744   1.116 -0.1490 -0.5115 -0.1593
   18MOL   C42313377   3.595   5.700   1.187  0.0110  0.1318  0.4248
   18MOL   C42413378   3.850   5.725   1.204  0.0345  0.4347 -0.1258
   18MOL   C42513379   3.982   5.745   1.129  0.0703 -0.2005  0.2553
   18MOL   C42613380   3.987   5.645   1.014 -0.4108 -0.1494 -1.1624
   18MOL   C42713381   4.114   5.664   0.938  0.1377  0.6815 -0.0042
   18MOL   O42813382   4.130   5.560   0.843 -0.1363  0.2536 -0.0032
   18MOL   C42913383   4.108   5.570   0.712 -0.1530 -0.0363 -0.8751
   18MOL   O43013384   4.085   5.673   0.650 -0.9347  0.2171  0.0425
   18MOL   C43113385   4.092   5.431   0.658 -0.1172 -0.5984  0.4945
   18MOL   C43213386   4.027   5.418   0.534  0.0328 -0.0199  0.7452
   18MOL   C43313387   4.014   5.283   0.478  0.5226 -0.4960 -0.2341
   18MOL   C43413388   4.059   5.167   0.549 -0.2677  0.4207  0.2942
   18MOL   C43513389   4.066   5.025   0.507  0.1264  0.1802  0.0793
   18MOL   O43613390   4.097   4.926   0.577  0.0935 -0.9589  0.2147
   18MOL   O43713391   4.039   5.015   0.374 -0.1095 -0.0937 -0.3620
   18MOL   C43813392   4.120   5.187   0.676 -0.5685 -0.9310  0.0835
   18MOL   C43913393   4.139   5.320   0.722  0.4670  0.0781 -0.9916
   18MOL   H44013394   3.880   5.777   0.869 -0.9468  0.9953  1.2031
   18MOL   H44113395   3.873   5.616   0.824 -0.1424 -1.5976  1.3887
   18MOL   H44213396   3.719   5.558   1.002 -0.9725  0.4485 -1.4074
   18MOL   H44313397   3.663   5.703   0.919 -0.1542  0.5344 -0.1916
   18MOL   H44413398   3.711   5.849   1.092  1.8557  0.1580  1.4425
   18MOL   H44513399   3.588   5.752   1.283 -1.2789  0.9780 -0.1174
   18MOL   H44613400   3.594   5.592   1.199  1.3110  0.1597  0.9079
   18MOL   H44713401   3.846   5.626   1.250 -1.2453  0.4641 -0.1513
   18MOL   H44813402   3.841   5.800   1.283  1.0014  0.3952  0.0306
   18MOL   H44913403   3.991   5.841   1.078  0.1156 -0.5346 -0.3665
   18MOL   H45013404   4.068   5.736   1.195  1.2189  0.9711 -1.0582
   18MOL   H45113405   3.969   5.547   1.058  1.7790  0.0059  0.1117
   18MOL   H45213406   4.201   5.665   1.003 -0.7568 -0.5070  1.2314
   18MOL   H45313407   4.117   5.761   0.887  0.2666  0.4529 -0.4375
   18MOL   H45413408   3.989   5.511   0.494  0.7319  0.0566  0.2316
   18MOL   H45513409   3.970   5.275   0.380  0.2050 -0.8737 -0.0607
   18MOL   H45613410   4.172   5.107   0.727 -0.2762 -1.2078 -0.6326
   18MOL   H45713411   4.179   5.323   0.822 -1.0022  0.6516 -0.3987
   18MOL   C45813412   3.878   4.595   0.135  0.0694  0.0173 -0.0478
   18MOL   C45913413   4.000   4.690   0.188 -0.6035  0.7131 -0.7729
   18MOL   C46013414   3.956   4.816   0.252 -0.0910  0.7230 -0.0595
   18MOL   C46113415   4.069   4.911   0.290 -0.5259  0.3477 -0.3519
   18MOL   C46213416   3.856   4.886   0.158 -0.0263  0.0368  0.4894
   18MOL   C46313417   3.730   4.800   0.115 -0.4162 -0.7653 -0.1610
   18MOL   C46413418   3.783   4.670   0.039 -0.8507 -0.1490  0.8984
   18MOL   C46513419   3.663   4.577   8.029  0.4339  0.2023  0.4724
   18MOL   O46613420   3.558   4.651   7.968  0.1408 -0.3968  0.0243
   18MOL   C46713421   3.567   4.697   7.842 -0.8909 -0.3676 -0.1026
   18MOL   O46813422   3.667   4.684   7.769  0.3005 -0.6433 -0.7123
   18MOL   C46913423   3.449   4.781   7.800 -0.5654  0.4517 -0.4886
   18MOL   C47013424   3.436   4.842   7.676  0.5934  0.2216 -0.4481
   18MOL   C47113425   3.333   4.932   7.653  0.2737 -0.4601  0.4236
   18MOL   C47213426   3.221   4.946   7.745 -0.7241  1.2529  0.2032
   18MOL   C47313427   3.112   5.045   7.723  0.1569 -0.2365  0.2347
   18MOL   O47413428   3.067   5.083   7.614 -0.1131  0.0335 -0.3640
   18MOL   O47513429   3.072   5.082   7.840 -0.4756  0.4540 -0.4646
   18MOL   C47613430   3.231   4.871   7.869  0.7486  0.7318 -0.6554
   18MOL   C47713431   3.351   4.800   7.898  0.9098 -0.2123 -0.1269
   18MOL   H47813432   3.812   4.555   0.211  1.5252 -0.0846  1.1919
   18MOL   H47913433   3.913   4.506   0.084 -0.8020 -1.1889  1.4186
   18MOL   H48013434   4.052   4.721   0.097 -0.0695  3.2236  0.3142
   18MOL   H48113435   4.066   4.636   0.256 -0.4407  1.0529 -0.6599
   18MOL   H48213436   3.903   4.781   0.340 -2.8469  2.1962 -1.0884
   18MOL   H48313437   4.114   4.957   0.202 -0.7637  0.1487 -0.5796
   18MOL   H48413438   4.160   4.870   0.333 -1.2071 -1.4843 -0.6185
   18MOL   H48513439   3.897   4.941   0.073 -1.8971  0.4110 -0.1855
   18MOL   H48613440   3.821   4.976   0.207  1.7984  0.5875  0.8333
   18MOL   H48713441   3.670   4.782   0.204  1.3384 -1.2242  0.9413
   18MOL   H48813442   3.679   4.867   0.045  0.8481  0.9030  0.5077
   18MOL   H48913443   3.835   4.709   7.983  0.4481 -2.0371  0.7842
   18MOL   H49013444   3.625   4.545   0.094  1.1494 -2.6098 -0.1526
   18MOL   H49113445   3.690   4.492   7.967 -0.6971 -0.6530  1.1177
   18MOL   H49213446   3.512   4.830   7.600  0.5521 -0.9147 -0.3228
   18MOL   H49313447   3.341   4.986   7.559  0.6856 -0.4206  0.4794
   18MOL   H49413448   3.151   4.895   7.937  0.3199 -0.6861 -0.6368
   18MOL   H49513449   3.356   4.749   7.993 -1.4918 -3.2385 -1.5307
   18MOL   C49613450   2.787   5.368   0.091  0.2477 -0.5709  0.2720
   18MOL   C49713451   2.799   5.273   8.004 -0.2290  0.5147  0.1594
   18MOL   C49813452   2.944   5.232   7.980  0.0855 -0.1796  0.8203
   18MOL   C49913453   2.947   5.146   7.852  0.0615 -0.3943 -0.4374
   18MOL   C50013454   3.030   5.359   7.967 -0.4880  0.3834  0.5309
   18MOL   C50113455   3.015   5.451   0.059  0.8544  0.2044  0.3896
   18MOL   C50213456   2.867   5.496   0.069  0.2085  0.8616 -0.0495
   18MOL   C50313457   2.851   5.590   0.182 -0.0906 -0.5489  0.5623
   18MOL   O50413458   2.724   5.656   0.162 -0.4916  0.0559 -0.2225
   18MOL   C50513459   2.659   5.708   0.270  0.6072  0.4667  0.2480
   18MOL   O50613460   2.702   5.701   0.385 -0.1290 -0.4453 -0.1912
   18MOL   C50713461   2.536   5.781   0.235 -0.4751 -0.3487  0.6956
   18MOL   C50813462   2.479   5.767   0.105 -0.5481  0.0558 -0.6510
   18MOL   C50913463   2.356   5.816   0.067  1.0767 -0.5331  0.4296
   18MOL   C51013464   2.279   5.882   0.166 -1.0474 -0.4516 -0.3713
   18MOL   C51113465   2.149   5.955   0.129  0.2734  0.3111 -0.1318
   18MOL   O51213466   2.095   6.035   0.207 -0.4919 -0.0790  0.1264
   18MOL   O51313467   2.102   5.931   0.005 -0.5751  0.4097  0.3520
   18MOL   C51413468   2.331   5.899   0.296 -0.2245 -0.3153 -0.8506
   18MOL   C51513469   2.462   5.856   0.324 -0.7046  0.1024 -0.1627
   18MOL   H51613470   2.814   5.314   0.183 -0.0499 -0.5206  0.3896
   18MOL   H51713471   2.681   5.392   0.105  0.5579 -0.2916  2.3384
   18MOL   H51813472   2.759   5.312   7.910 -1.4871 -2.8209 -0.7669
   18MOL   H51913473   2.743   5.181   8.020  2.0896 -0.5205  2.6586
   18MOL   H52013474   2.979   5.168   0.029 -0.7025 -1.5214  0.1123
   18MOL   H52113475   2.911   5.194   7.762  0.0999  1.1280  0.3382
   18MOL   H52213476   2.879   5.062   7.864  2.2467 -2.1729 -0.0803
   18MOL   H52313477   3.008   5.421   7.880  0.4066  0.7861  0.5840
   18MOL   H52413478   3.137   5.338   7.959 -0.7503 -1.5497  1.7958
   18MOL   H52513479   3.045   5.401   0.151 -0.7164  1.1467  1.4331
   18MOL   H52613480   3.087   5.531   0.039 -1.0929  2.6544  2.8018
   18MOL   H52713481   2.835   5.541   8.007  3.7497  2.0809 -0.7385
   18MOL   H52813482   2.915   5.678   0.173  0.1780 -1.0081 -2.5149
   18MOL   H52913483   2.863   5.544   0.280  1.4936  1.9030  1.5704
   18MOL   H53013484   2.534   5.709   0.032 -0.7998 -0.4580 -0.4392
   18MOL   H53113485   2.330   5.808   7.995  0.8486 -0.0753  0.4537
   18MOL   H53213486   2.268   5.956   0.363  2.0604  0.1019  0.9823
   18MOL   H53313487   2.516   5.871   0.416 -1.5227 -1.4461  0.5789
   18MOL   C53413488   2.117   6.256   7.738 -0.0386  0.2798 -0.3403
   18MOL   C53513489   2.103   6.117   7.803 -0.6111 -0.6383  0.3021
   18MOL   C53613490   2.002   6.135   7.924 -0.1327  0.0480 -0.6150
   18MOL   C53713491   1.974   5.995   7.997  0.0047 -0.4074 -0.0384
   18MOL   C53813492   2.036   6.243   8.015 -0.4013  0.6937 -0.0870
   18MOL   C53913493   2.033   6.379   7.938  0.1683 -0.2590 -0.3540
   18MOL   C54013494   2.148   6.370   7.836 -0.4845 -0.1670  0.6182
   18MOL   C54113495   2.167   6.510   7.772  0.6870  0.4731  0.2035
   18MOL   O54213496   2.274   6.519   7.671  0.5138  0.0262 -0.2926
   18MOL   C54313497   2.257   6.605   7.575  0.0458 -0.4778 -0.3433
   18MOL   O54413498   2.157   6.674   7.558 -0.2214 -0.1518  0.2507
   18MOL   C54513499   2.374   6.619   7.492  0.6301  0.3072  0.9016
   18MOL   C54613500   2.378   6.735   7.408 -0.0623  0.4767  0.8471
   18MOL   C54713501   2.486   6.738   7.318 -0.0231 -0.3934 -0.2159
   18MOL   C54813502   2.587   6.643   7.317 -0.4032 -0.1587 -0.3905
   18MOL   C54913503   2.711   6.666   7.240  0.3599 -0.7013  0.7111
   18MOL   O55013504   2.791   6.582   7.202 -0.5986  0.4328  0.1602
   18MOL   O55113505   2.735   6.801   7.226 -0.0672  0.2961  0.3677
   18MOL   C55213506   2.588   6.535   7.408 -1.0486 -0.3996 -0.0874
   18MOL   C55313507   2.481   6.522   7.496  0.8577  0.7690 -0.4083
   18MOL   H55413508   2.030   6.276   7.676  0.6853  0.9067 -1.1567
   18MOL   H55513509   2.199   6.246   7.667  1.0254 -0.3260  0.9284
   18MOL   H55613510   2.192   6.075   7.848 -1.1901  0.5586  2.6642
   18MOL   H55713511   2.069   6.040   7.735  1.0048  0.6908 -2.0625
   18MOL   H55813512   1.903   6.161   7.886  0.1036  0.2211 -1.1114
   18MOL   H55913513   1.930   5.941   7.913 -0.0319  1.1838 -1.0907
   18MOL   H56013514   1.901   6.004   0.045  1.4286  0.6899  1.1681
   18MOL   H56113515   2.132   6.228   0.032 -1.0098  1.0589  1.2400
   18MOL   H56213516   1.966   6.247   0.066 -2.4929 -0.8656 -1.7437
   18MOL   H56313517   1.943   6.396   7.879 -0.1905  0.2161  0.3346
   18MOL   H56413518   2.045   6.453   8.017  1.3891  0.6501 -1.3642
   18MOL   H56513519   2.243   6.352   7.887 -0.6356  2.8877  2.1298
   18MOL   H56613520   2.186   6.580   7.853  1.1710  0.0415  0.4600
   18MOL   H56713521   2.074   6.533   7.720 -0.3256 -0.6900  1.4664
   18MOL   H56813522   2.295   6.803   7.394  0.3932  0.7782 -0.5003
   18MOL   H56913523   2.493   6.818   7.246 -0.9080  1.4244  1.6981
   18MOL   H57013524   2.676   6.473   7.413  0.3423  1.6410  1.9585
   18MOL   H57113525   2.479   6.442   7.569  0.2622  0.3828 -0.8479
   18MOL   C57213526   2.768   7.216   7.067 -0.2434  0.0340  0.2317
   18MOL   C57313527   2.800   7.093   7.152  0.0780 -0.4166 -0.3903
   18MOL   C57413528   2.798   6.968   7.066 -0.0756 -0.1101 -0.4190
   18MOL   C57513529   2.834   6.841   7.138  0.0207 -0.3027  0.5114
   18MOL   C57613530   2.663   6.954   6.993 -0.0446  0.5208 -0.4075
   18MOL   C57713531   2.630   7.081   6.916 -0.2066 -0.1296 -0.4943
   18MOL   C57813532   2.633   7.209   6.992 -1.2763 -0.3159 -0.4682
   18MOL   C57913533   2.600   7.337   6.908  0.0842 -0.6292 -0.4092
   18MOL   O58013534   2.462   7.328   6.880  0.0296 -0.8926 -0.7463
   18MOL   C58113535   2.416   7.339   6.755  0.5154  0.1619 -0.3407
   18MOL   O58213536   2.491   7.361   6.661  0.0959  0.1692 -0.0437
   18MOL   C58313537   2.267   7.305   6.742  0.3595  0.5758 -0.4278
   18MOL   C58413538   2.183   7.304   6.861 -0.4258  0.0960 -0.3036
   18MOL   C58513539   2.056   7.251   6.854 -0.3676 -0.1863  0.2280
   18MOL   C58613540   2.007   7.199   6.731  0.2986  0.6548 -0.1245
   18MOL   C58713541   1.871   7.137   6.721  0.4782 -0.8423 -0.5948
   18MOL   O58813542   1.785   7.152   6.813 -0.1608 -0.5404  0.0489
   18MOL   O58913543   1.857   7.052   6.625 -0.3686  0.2589  0.0836
   18MOL   C59013544   2.083   7.207   6.611  0.4546 -0.2655  0.2410
   18MOL   C59113545   2.212   7.258   6.622  0.0435 -0.4181  0.4940
   18MOL   H59213546   2.850   7.240   6.999  0.5728  0.5213  1.3769
   18MOL   H59313547   2.756   7.299   7.137 -1.6014 -1.2366  1.5478
   18MOL   H59413548   2.719   7.080   7.223 -1.1065  1.0351 -1.4447
   18MOL   H59513549   2.894   7.102   7.207 -0.6402  2.5217  0.4711
   18MOL   H59613550   2.868   6.980   6.984 -0.1518  0.6165 -0.3819
   18MOL   H59713551   2.932   6.849   7.184  0.2844  0.1380 -0.1212
   18MOL   H59813552   2.844   6.766   7.059 -2.6676 -0.0772 -0.1145
   18MOL   H59913553   2.576   6.934   7.055 -0.0178  1.1413 -0.1626
   18MOL   H60013554   2.669   6.863   6.933 -1.0856 -1.5520  2.5060
   18MOL   H60113555   2.696   7.087   6.830  0.1134 -2.8647 -0.4896
   18MOL   H60213556   2.536   7.068   6.861 -1.3548  1.8329  0.9444
   18MOL   H60313557   2.562   7.192   7.073 -0.2068  0.2049  0.5928
   18MOL   H60413558   2.659   7.341   6.817 -0.0518 -1.9209 -0.5687
   18MOL   H60513559   2.613   7.427   6.968 -1.9067 -0.1951 -0.5860
   18MOL   H60613560   2.219   7.342   6.955 -2.5790 -1.9633  1.4188
   18MOL   H60713561   2.000   7.239   6.946  1.0293  1.5399  1.3568
   18MOL   H60813562   2.041   7.179   6.516  1.3516  2.0469 -0.8949
   18MOL   H60913563   2.269   7.265   6.530 -1.4962 -0.1916 -0.4651
   18MOL   C61013564   1.775   6.889   6.224 -0.5047 -0.3884 -0.6735
   18MOL   C61113565   1.809   6.910   6.374  0.2242 -0.2142 -0.1854
   18MOL   C61213566   1.708   6.992   6.445  0.1274  0.6134  0.3611
   18MOL   C61313567   1.727   6.998   6.596  0.2359  0.4947 -1.0508
   18MOL   C61413568   1.691   7.133   6.378 -0.1244 -0.3301  0.2578
   18MOL   C61513569   1.679   7.125   6.226 -0.0988  0.2457  0.4377
   18MOL   C61613570   1.777   7.026   6.157  0.1123  0.3266 -0.9861
   18MOL   C61713571   1.734   7.015   6.012  0.4499  0.4574 -0.0186
   18MOL   O61813572   1.617   6.930   5.996 -0.4280  0.3434  0.3787
   18MOL   C61913573   1.637   6.800   5.959  0.6948  0.1255 -0.0276
   18MOL   O62013574   1.749   6.746   5.955  0.1531  0.3050 -0.4884
   18MOL   C62113575   1.509   6.729   5.941 -0.1335  0.9843  0.0608
   18MOL   C62213576   1.391   6.791   5.881  0.5215  0.5994  0.3028
   18MOL   C62313577   1.271   6.717   5.882  0.6081 -0.3127 -0.2019
   18MOL   C62413578   1.266   6.584   5.926 -0.6302 -0.7030  0.0264
   18MOL   C62513579   1.142   6.507   5.906  0.1402  0.4715 -0.1906
   18MOL   O62613580   1.038   6.557   5.869  0.0713 -0.5630  0.0698
   18MOL   O62713581   1.159   6.373   5.939 -0.0555 -0.3185 -0.2357
   18MOL   C62813582   1.386   6.528   5.978  0.0912  0.2301  0.3620
   18MOL   C62913583   1.507   6.600   5.989 -0.2494 -0.5453 -0.2234
   18MOL   H63013584   1.676   6.843   6.219 -1.5502  1.9152 -2.0764
   18MOL   H63113585   1.853   6.828   6.178 -0.3541  0.2791 -1.3187
   18MOL   H63213586   1.911   6.942   6.393  0.5865 -0.6319 -1.3939
   18MOL   H63313587   1.811   6.805   6.402 -2.0046  0.3150  2.2233
   18MOL   H63413588   1.607   6.951   6.437  0.4822 -0.5445  1.5625
   18MOL   H63513589   1.713   6.903   6.649  0.7842  0.8181 -0.3128
   18MOL   H63613590   1.651   7.067   6.633 -0.5011 -0.6635 -0.3325
   18MOL   H63713591   1.777   7.197   6.394  0.2326 -0.7845  0.1676
   18MOL   H63813592   1.610   7.196   6.414  0.9945  0.2398  1.8322
   18MOL   H63913593   1.578   7.117   6.186  0.5048  1.7533 -1.4835
   18MOL   H64013594   1.699   7.223   6.182  1.1333 -0.2794 -0.2124
   18MOL   H64113595   1.881   7.057   6.158 -0.2727  1.6324  0.9715
   18MOL   H64213596   1.812   6.966   5.955  0.8590  1.4595 -0.3264
   18MOL   H64313597   1.713   7.105   5.955 -0.1943  0.5953  0.4324
   18MOL   H64413598   1.387   6.892   5.844 -0.2324  0.1593 -0.8519
   18MOL   H64513599   1.186   6.761   5.832 -0.1203  0.0651  1.3496
   18MOL   H64613600   1.386   6.431   6.024 -1.0686 -1.2895 -2.7082
   18MOL   H64713601   1.590   6.555   6.041  0.0555 -0.5380 -0.6962
   18MOL   C64813602   1.034   5.910   5.848  0.3724  0.2316 -0.0837
   18MOL   C64913603   0.988   6.044   5.895  0.2732 -0.8464  1.0204
   18MOL   C65013604   1.096   6.150   5.885 -0.1228 -0.2541 -0.5516
   18MOL   C65113605   1.049   6.287   5.934 -0.1400  0.3435  0.3201
   18MOL   C65213606   1.216   6.096   5.972 -0.5736 -0.6853 -0.4494
   18MOL   C65313607   1.263   5.957   5.939  0.1986 -0.0490  0.3055
   18MOL   C65413608   1.146   5.857   5.937 -0.0122 -0.1010  0.5916
   18MOL   C65513609   1.188   5.712   5.898 -0.3985 -0.1368 -0.4048
   18MOL   O65613610   1.294   5.669   5.977  0.2453 -0.3373 -0.2812
   18MOL   C65713611   1.289   5.581   6.076  0.9348 -0.7926  0.1431
   18MOL   O65813612   1.185   5.524   6.116  0.1906  0.2421 -0.1325
   18MOL   C65913613   1.421   5.555   6.125  0.0154  0.7491 -1.2624
   18MOL   C66013614   1.449   5.428   6.184  0.2916  0.7108  0.7555
   18MOL   C66113615   1.581   5.405   6.239 -0.0172 -0.1397 -0.2228
   18MOL   C66213616   1.679   5.507   6.233 -0.1871 -0.3434 -0.1891
   18MOL   C66313617   1.822   5.475   6.273  0.1618  0.4143 -0.0770
   18MOL   O66413618   1.861   5.365   6.300 -0.2032  0.2835 -0.5403
   18MOL   O66513619   1.891   5.590   6.281  0.1280 -0.5785 -0.1587
   18MOL   C66613620   1.647   5.631   6.182  0.5483  0.6682 -0.1178
   18MOL   C66713621   1.520   5.652   6.127 -0.4343 -0.7323  0.9861
   18MOL   H66813622   1.061   5.917   5.743 -1.0378  0.6817 -0.4224
   18MOL   H66913623   0.942   5.852   5.835  0.8781 -0.9479  1.4730
   18MOL   H67013624   0.941   6.034   5.992 -1.5953 -2.0631  0.0141
   18MOL   H67113625   0.917   6.086   5.823  0.5315 -2.4410 -0.2023
   18MOL   H67213626   1.127   6.160   5.781  2.0557 -0.1086  0.0754
   18MOL   H67313627   0.996   6.284   6.029 -0.6559 -0.2042  0.0180
   18MOL   H67413628   0.978   6.327   5.862 -1.5550 -1.9333  0.4084
   18MOL   H67513629   1.192   6.092   6.079 -1.6493  0.9682 -0.6104
   18MOL   H67613630   1.296   6.171   5.970 -1.4373  0.2502 -0.5722
   18MOL   H67713631   1.314   5.951   5.843 -0.9388  0.0741 -0.3219
   18MOL   H67813632   1.343   5.935   6.009 -0.7618 -0.5488  1.2515
   18MOL   H67913633   1.095   5.841   6.033 -0.8395 -0.0396  0.1727
   18MOL   H68013634   1.222   5.706   5.794  1.2722 -0.1297  0.1281
   18MOL   H68113635   1.108   5.639   5.902 -0.1873 -0.4330 -1.4118
   18MOL   H68213636   1.372   5.352   6.183  0.5715  0.4312 -1.7657
   18MOL   H68313637   1.606   5.312   6.286 -1.3970 -0.0646  0.7152
   18MOL   H68413638   1.722   5.708   6.173 -0.4380  1.8799  1.5615
   18MOL   H68513639   1.491   5.749   6.089 -0.3919 -1.2170 -0.3248
   18MOL   C68613640   2.231   5.893   6.197 -0.3818  0.1393  0.0716
   18MOL   C68713641   2.138   5.816   6.291 -0.7981  0.3713  0.0813
   18MOL   C68813642   2.122   5.676   6.233 -0.3789 -0.0091  0.3832
   18MOL   C68913643   2.018   5.600   6.329  0.4943  0.0623  0.1884
   18MOL   C69013644   2.081   5.662   6.085 -0.0999 -0.5517 -0.5720
   18MOL   C69113645   2.193   5.733   6.009 -0.0097 -0.4914  0.4518
   18MOL   C69213646   2.193   5.881   6.047 -0.0459 -0.4660  0.1888
   18MOL   C69313647   2.290   5.957   5.961 -0.2826 -0.0433 -0.2396
   18MOL   O69413648   2.249   5.974   5.826  0.1955 -0.1577  0.0310
   18MOL   C69513649   2.284   5.885   5.731 -0.5605  0.4449  0.3773
   18MOL   O69613650   2.393   5.818   5.732  0.2651 -0.4583 -0.0591
   18MOL   C69713651   2.175   5.856   5.635 -0.0063  0.0230  0.6635
   18MOL   C69813652   2.043   5.898   5.649 -0.6208 -0.5538 -1.0636
   18MOL   C69913653   1.943   5.859   5.561  0.1673 -0.2665  0.3316
   18MOL   C70013654   1.970   5.774   5.451  0.2710  0.4122  0.3170
   18MOL   C70113655   1.859   5.744   5.354 -0.7740  1.0144 -0.0213
   18MOL   O70213656   1.752   5.804   5.349  0.5586  0.3094 -0.2311
   18MOL   O70313657   1.883   5.649   5.264  0.8687  0.0884  0.3078
   18MOL   C70413658   2.104   5.737   5.428 -0.2967  0.1051  0.1722
   18MOL   C70513659   2.202   5.771   5.524 -1.1448  0.3418 -0.5832
   18MOL   H70613660   2.326   5.840   6.202 -0.5179 -0.1103  0.0217
   18MOL   H70713661   2.237   5.997   6.230  2.0574  0.1447 -0.2539
   18MOL   H70813662   2.045   5.872   6.297 -1.0944 -0.0568 -0.4160
   18MOL   H70913663   2.186   5.800   6.387  1.4864  1.1529 -0.8982
   18MOL   H71013664   2.217   5.622   6.234  0.1199  0.6651 -2.7364
   18MOL   H71113665   2.000   5.647   6.426 -1.1210 -0.0037 -0.0743
   18MOL   H71213666   2.070   5.508   6.358 -1.6804 -1.7709 -1.5737
   18MOL   H71313667   1.982   5.697   6.054 -1.1291 -0.7840  2.3088
   18MOL   H71413668   2.090   5.554   6.076  3.1891 -0.3528 -0.1789
   18MOL   H71513669   2.291   5.700   6.043  1.5863  2.1662 -1.3616
   18MOL   H71613670   2.183   5.719   5.901 -2.1760  0.3161  0.5296
   18MOL   H71713671   2.099   5.924   6.010  0.4560  0.0849 -0.4660
   18MOL   H71813672   2.391   5.916   5.964  0.9177  2.8313  0.1832
   18MOL   H71913673   2.301   6.059   5.997  3.6742 -0.0579 -1.1825
   18MOL   H72013674   2.006   5.960   5.729  1.4530  0.8848 -1.1795
   18MOL   H72113675   1.843   5.899   5.573 -0.1620 -1.2814  1.0389
   18MOL   H72213676   2.142   5.685   5.342 -1.1654  1.1117 -0.8531
   18MOL   H72313677   2.306   5.749   5.505 -1.0289 -0.6162  1.0421
   18MOL   C72413678   1.695   5.307   4.944 -0.3128 -0.1672 -0.3080
   18MOL   C72513679   1.686   5.450   5.000 -0.3998  0.3055  0.2212
   18MOL   C72613680   1.815   5.489   5.081  0.6739  0.1990  0.3318
   18MOL   C72713681   1.782   5.616   5.169  0.0569  0.3973  0.6233
   18MOL   C72813682   1.841   5.376   5.188  0.5760  0.3120  0.2127
   18MOL   C72913683   1.862   5.237   5.110 -0.5545  0.0479 -0.3324
   18MOL   C73013684   1.728   5.199   5.040 -0.3690 -0.2175 -0.6095
   18MOL   C73113685   1.733   5.057   4.969 -0.0242 -0.3109 -0.3980
   18MOL   O73213686   1.608   5.046   4.912 -0.5879 -0.7382  0.3677
   18MOL   C73313687   1.580   4.971   4.808 -0.0537  0.4467 -0.3014
   18MOL   O73413688   1.661   4.886   4.767 -0.3207 -0.1347  0.3437
   18MOL   C73513689   1.440   4.984   4.758 -0.5523  0.2694  0.3787
   18MOL   C73613690   1.353   5.081   4.819  1.1472  0.1282 -0.1012
   18MOL   C73713691   1.220   5.090   4.785  0.1391 -0.4574 -0.3300
   18MOL   C73813692   1.179   5.025   4.671  0.2012  0.0682  0.0960
   18MOL   C73913693   1.036   5.049   4.630  0.3427  0.4145 -0.5541
   18MOL   O74013694   0.954   5.113   4.697  0.6087  0.1326 -0.2209
   18MOL   O74113695   1.005   4.975   4.516 -0.4810 -0.1547 -0.1258
   18MOL   C74213696   1.263   4.933   4.600  0.2587  0.4454  0.4827
   18MOL   C74313697   1.392   4.901   4.653 -0.2185 -0.2703 -0.3629
   18MOL   H74413698   1.778   5.306   4.874  0.4346  1.8361  0.5149
   18MOL   H74513699   1.604   5.300   4.884 -0.6692  0.5576  0.1365
   18MOL   H74613700   1.600   5.467   5.064 -0.6875 -0.3189  0.0008
   18MOL   H74713701   1.659   5.521   4.921 -1.6859 -1.9908 -1.4695
   18MOL   H74813702   1.904   5.501   5.019  0.3046 -1.1886 -0.4905
   18MOL   H74913703   1.691   5.594   5.226 -1.5346 -1.6254 -2.5959
   18MOL   H75013704   1.751   5.700   5.107 -0.3775  0.3208  0.7322
   18MOL   H75113705   1.743   5.380   5.236 -0.5084 -3.2503 -1.5320
   18MOL   H75213706   1.914   5.385   5.268 -0.2083 -0.6222  1.0347
   18MOL   H75313707   1.949   5.243   5.046  0.0287 -0.7762  0.3656
   18MOL   H75413708   1.892   5.162   5.184 -0.1587  1.1169  0.6097
   18MOL   H75513709   1.650   5.196   5.115  0.9938 -2.0020  0.7803
   18MOL   H75613710   1.755   4.987   5.049 -0.5997  0.5002  0.4761
   18MOL   H75713711   1.808   5.065   4.890 -0.9692 -0.0534 -1.2888
   18MOL   H75813712   1.382   5.145   4.900  0.3707 -0.1336  0.3835
   18MOL   H75913713   1.158   5.159   4.839 -0.8205 -1.2264 -0.4326
   18MOL   H76013714   1.227   4.891   4.508 -0.4637  0.8675  0.5598
   18MOL   H76113715   1.456   4.825   4.610  2.2740  0.9573  1.0960
   18MOL   H76213716   0.912   4.960   4.508 -1.1234  2.5641  1.5780
   19MOL     C113717   7.509   3.542   0.015  0.7007  0.6009  0.3758
   19MOL     C213718   7.409   3.608   7.957  0.3018  0.5567  0.4581
   19MOL     C313719   7.342   3.725   8.027  0.8046 -0.1120  0.4120
   19MOL     C413720   7.249   3.802   7.931 -0.0704  0.0221  0.0935
   19MOL     C513721   7.264   3.667   0.117  0.0514  0.0616  0.1280
   19MOL     C613722   7.360   3.599   0.217  0.0930 -0.2792  0.6112
   19MOL     C713723   7.446   3.490   0.147  0.4447  0.4868 -0.2736
   19MOL     C813724   7.553   3.433   0.238 -0.3771  0.4619  0.2230
   19MOL     O913725   7.591   3.302   0.187 -0.1168 -0.2630  0.0682
   19MOL    C1013726   7.728   3.266   0.178 -0.3167 -0.1361 -0.0879
   19MOL    O1113727   7.820   3.343   0.221  0.3256  0.4736 -0.5662
   19MOL    C1213728   7.743   3.124   0.126 -0.2271  0.2536 -0.4296
   19MOL    C1313729   7.877   3.073   0.102  0.5926 -0.3928 -0.7431
   19MOL    C1413730   7.903   2.933   0.082 -0.1616 -0.1367  0.4172
   19MOL    C1513731   7.793   2.846   0.072 -0.4112  0.5762  0.7309
   19MOL    C1613732   7.805   2.693   0.055 -1.6095 -0.5677  0.1492
   19MOL    O1713733   7.710   2.626   0.035  0.4761 -0.2788 -0.5576
   19MOL    O1813734   7.939   2.652   0.053 -0.5842  0.1421 -0.1030
   19MOL    C1913735   7.669   2.901   0.070 -0.0825  0.4239 -0.4465
   19MOL    C2013736   7.640   3.032   0.103  0.5146  0.4212 -0.1393
   19MOL    H2113737   7.587   3.610   0.050  0.4864  0.5993  0.8659
   19MOL    H2213738   7.564   3.464   7.996 -0.2125 -0.5510  1.1289
   19MOL    H2313739   7.341   3.535   7.913 -1.7431  1.6917  1.6803
   19MOL    H2413740   7.458   3.642   7.866 -2.2010 -2.2740 -2.0488
   19MOL    H2513741   7.408   3.805   0.027  1.5907 -0.9348  0.8466
   19MOL    H2613742   7.186   3.732   7.878 -1.3101 -0.3050  1.9665
   19MOL    H2713743   7.317   3.852   7.862 -0.0982 -1.9711 -1.4083
   19MOL    H2813744   7.189   3.591   0.096  0.4768 -0.0730 -0.9356
   19MOL    H2913745   7.202   3.739   0.170 -1.3623 -1.0164 -0.0556
   19MOL    H3013746   7.426   3.678   0.253  0.6478 -0.4387 -0.0375
   19MOL    H3113747   7.310   3.559   0.305 -1.1270 -0.2140 -0.0454
   19MOL    H3213748   7.387   3.403   0.119  2.5051 -0.7458 -0.8459
   19MOL    H3313749   7.512   3.406   0.335  0.3747  0.6923  0.6106
   19MOL    H3413750   7.641   3.497   0.243 -0.7858  0.9205  1.9025
   19MOL    H3513751   7.962   3.136   0.124 -1.4829  1.9568  0.8136
   19MOL    H3613752   8.003   2.893   0.074  0.4220  1.3706  0.1260
   19MOL    H3713753   7.582   2.837   0.060  0.9294 -1.0362 -0.0251
   19MOL    H3813754   7.539   3.070   0.106  0.4717  0.2914  0.0822
   19MOL    H3913755   7.182   3.869   7.985  1.3657  1.3012  0.3417
   19MOL    C4013756   0.308   2.489   0.129 -0.0647 -0.6843  0.3175
   19MOL    C4113757   0.161   2.527   0.155  0.6407 -0.6198 -0.8107
   19MOL    C4213758   0.073   2.473   0.042 -0.3380 -0.4184  0.1810
   19MOL    C4313759   7.957   2.516   0.061 -0.2515  0.1428  0.4067
   19MOL    C4413760   0.123   2.511   7.933 -0.8259  0.2362 -0.4266
   19MOL    C4513761   0.272   2.479   7.913 -0.6489  0.8015 -0.7356
   19MOL    C4613762   0.356   2.545   8.027  0.2391  0.6617 -0.8231
   19MOL    C4713763   0.506   2.526   8.011 -0.3203  0.1726  0.3157
   19MOL    O4813764   0.580   2.592   0.076 -0.3563 -0.4491  0.7444
   19MOL    C4913765   0.697   2.541   0.117  0.7334  0.4129  0.0145
   19MOL    O5013766   0.748   2.438   0.077 -0.0163 -0.8871 -0.1299
   19MOL    C5113767   0.761   2.611   0.233  0.3229 -0.1347 -0.2075
   19MOL    C5213768   0.877   2.574   0.306 -0.0740 -0.1725 -0.9035
   19MOL    C5313769   0.928   2.658   0.409 -0.5632 -0.3618  0.5796
   19MOL    C5413770   0.861   2.780   0.446 -0.3330 -0.3217  0.2805
   19MOL    C5513771   0.913   2.868   0.559 -0.1373  0.2959  0.5273
   19MOL    O5613772   1.004   2.843   0.632 -0.4693 -0.0814  0.0850
   19MOL    O5713773   0.838   2.972   0.579  0.0741  0.2913  0.0647
   19MOL    C5813774   0.745   2.813   0.375  0.1288 -0.3278 -0.3082
   19MOL    C5913775   0.708   2.739   0.262 -0.0165 -0.2301  0.6120
   19MOL    H6013776   0.319   2.381   0.133 -0.1833 -0.8077 -1.9977
   19MOL    H6113777   0.366   2.528   0.213 -0.7604 -1.5545  1.2235
   19MOL    H6213778   0.161   2.636   0.162 -0.4852 -0.6752  0.0854
   19MOL    H6313779   0.122   2.488   0.248 -2.0517 -0.6969 -1.9367
   19MOL    H6413780   0.065   2.364   0.044 -0.5751 -0.3853  1.4721
   19MOL    H6513781   7.939   2.474   0.160 -1.3270 -1.0903 -0.3128
   19MOL    H6613782   7.899   2.458   8.022 -1.3272  1.6843 -0.0103
   19MOL    H6713783   0.111   2.618   7.913  0.0305 -0.1719 -3.4520
   19MOL    H6813784   0.055   2.463   7.862 -1.8503 -2.0468  2.0376
   19MOL    H6913785   0.283   2.371   7.929  0.4613  0.6110 -2.7252
   19MOL    H7013786   0.298   2.496   7.809  1.1299  0.4093 -0.3729
   19MOL    H7113787   0.328   2.650   8.020 -2.0081 -0.0005 -2.3302
   19MOL    H7213788   0.535   2.580   7.921 -1.1544 -1.3597 -0.9108
   19MOL    H7313789   0.534   2.421   8.004  0.0753  0.2204  1.1741
   19MOL    H7413790   0.930   2.484   0.279 -0.8401 -0.8076 -0.3290
   19MOL    H7513791   1.021   2.626   0.452  0.4652 -1.2388 -2.1696
   19MOL    H7613792   0.686   2.897   0.408  0.8369 -0.1627  0.5666
   19MOL    H7713793   0.616   2.783   0.225  1.3696  0.6808 -1.8815
   19MOL    C7813794   0.511   2.871   0.858 -0.5650  0.2739 -0.1906
   19MOL    C7913795   0.658   2.887   0.790  1.0807 -0.4878 -0.1540
   19MOL    C8013796   0.703   3.031   0.777 -0.3638 -0.1049  0.0159
   19MOL    C8113797   0.843   3.032   0.711  0.0051  0.4345  0.1781
   19MOL    C8213798   0.596   3.105   0.693  0.2594  0.2045 -0.3472
   19MOL    C8313799   0.447   3.084   0.740  0.2190  0.0627  0.0188
   19MOL    C8413800   0.410   2.932   0.759 -0.0616 -0.2302  0.6085
   19MOL    C8513801   0.268   2.912   0.794  0.4190  0.3787  0.1093
   19MOL    O8613802   0.217   2.799   0.723  0.4536 -0.2786 -0.6169
   19MOL    C8713803   0.151   2.701   0.790 -0.4212 -0.0882 -0.9262
   19MOL    O8813804   0.129   2.712   0.912 -0.0740 -0.5041  0.4148
   19MOL    C8913805   0.124   2.577   0.701  0.0789 -0.3756 -1.0516
   19MOL    C9013806   0.196   2.555   0.584  0.1569  0.0622 -0.2898
   19MOL    C9113807   0.167   2.437   0.515  0.5518  0.0369 -0.3776
   19MOL    C9213808   0.056   2.355   0.551 -0.1248  0.3149 -0.0068
   19MOL    C9313809   0.023   2.241   0.461 -0.7986  0.3548 -0.3135
   19MOL    O9413810   0.072   2.234   0.350 -0.8010  0.4645 -0.4598
   19MOL    O9513811   7.967   2.154   0.514 -0.0994  0.0311 -0.3515
   19MOL    C9613812   8.024   2.376   0.673  0.6311 -0.1321 -0.2921
   19MOL    C9713813   0.017   2.496   0.747  0.2184  0.4644  0.3053
   19MOL    H9813814   0.505   2.913   0.958  0.2115  2.4926 -1.0628
   19MOL    H9913815   0.475   2.770   0.881 -1.3986  0.4621 -0.6570
   19MOL   H10013816   0.664   2.840   0.692 -1.0388  0.5756 -0.8154
   19MOL   H10113817   0.731   2.822   0.839  1.8569 -0.7600 -1.6455
   19MOL   H10213818   0.707   3.076   0.876  1.4404  0.2643 -0.2166
   19MOL   H10313819   0.898   2.968   0.780 -0.7422  1.3655  1.6671
   19MOL   H10413820   0.891   3.129   0.725  0.8090  0.0887 -0.1860
   19MOL   H10513821   0.602   3.064   0.592  2.4095  0.0022 -0.1436
   19MOL   H10613822   0.635   3.207   0.689  0.4622  0.0861 -1.7289
   19MOL   H10713823   0.427   3.122   0.841  2.1201  1.3503 -0.0629
   19MOL   H10813824   0.376   3.136   0.675 -0.5973 -1.4581 -0.3200
   19MOL   H10913825   0.426   2.891   0.659  1.5420  1.2714  0.2083
   19MOL   H11013826   0.212   3.003   0.773  0.5730  0.3966 -0.2351
   19MOL   H11113827   0.258   2.915   0.903  0.9426 -1.4242  0.2127
   19MOL   H11213828   0.271   2.625   0.553  1.2803  0.1351  2.4329
   19MOL   H11313829   0.228   2.427   0.426  0.8848 -1.0938 -0.0378
   19MOL   H11413830   7.945   2.306   0.698  2.0152 -2.2795 -1.7557
   19MOL   H11513831   8.006   2.524   0.842  2.1363 -0.1646  1.3876
   19MOL   C11613832   0.003   1.747   0.675  0.1023  0.3399  0.4284
   19MOL   C11713833   7.968   1.884   0.642 -0.5863  0.9481 -0.2710
   19MOL   C11813834   8.008   1.918   0.491  0.5785  0.2381  0.6283
   19MOL   C11913835   7.937   2.039   0.437 -0.4379  0.1673  0.4591
   19MOL   C12013836   0.132   1.935   0.479 -0.4164 -0.0227 -0.9480
   19MOL   C12113837   0.200   1.806   0.516  0.5110  1.0273 -0.8944
   19MOL   C12213838   0.152   1.752   0.652 -0.5360 -0.5373 -0.4368
   19MOL   C12313839   0.229   1.624   0.712  0.8004 -0.3855 -0.7195
   19MOL   O12413840   0.202   1.514   0.628  0.1003 -0.4476  0.1960
   19MOL   C12513841   0.288   1.413   0.631  0.0691 -0.1048 -0.4089
   19MOL   O12613842   0.381   1.398   0.710 -0.1034 -0.1947  0.0019
   19MOL   C12713843   0.277   1.325   0.515  0.1299  0.3559  0.3079
   19MOL   C12813844   0.383   1.245   0.469 -0.1615 -0.8244 -0.4950
   19MOL   C12913845   0.372   1.174   0.350 -0.7626  0.7388 -0.2514
   19MOL   C13013846   0.250   1.151   0.289  0.0692  0.2277  0.2866
   19MOL   C13113847   0.238   1.070   0.164  0.7295  0.1299 -0.1748
   19MOL   O13213848   0.133   1.036   0.110  0.0442 -0.3654  0.3992
   19MOL   O13313849   0.361   1.038   0.112 -0.4706  0.1243  0.0970
   19MOL   C13413850   0.143   1.235   0.329 -0.3497 -0.1021 -0.0197
   19MOL   C13513851   0.156   1.321   0.441 -0.5975  0.2063 -0.7538
   19MOL   H13613852   7.998   1.668   0.609 -2.1348 -1.0599  3.2426
   19MOL   H13713853   8.006   1.715   0.775 -2.3386  0.9103 -0.0511
   19MOL   H13813854   8.011   1.954   0.713  0.6943  0.3463 -0.4296
   19MOL   H13913855   7.860   1.875   0.656 -0.4029  0.5204  0.9158
   19MOL   H14013856   7.979   1.838   0.424  1.5153  0.7739 -0.4410
   19MOL   H14113857   7.832   2.012   0.440 -0.4531  0.1893  0.0400
   19MOL   H14213858   7.963   2.049   0.332  0.9401  1.3423  0.8888
   19MOL   H14313859   0.169   2.019   0.537 -2.7312  1.0425 -0.9480
   19MOL   H14413860   0.151   1.958   0.374  1.6811  1.5093 -0.2726
   19MOL   H14513861   0.173   1.739   0.435  0.1097 -0.3103  0.3190
   19MOL   H14613862   0.308   1.821   0.528  0.4681  0.1472  0.6932
   19MOL   H14713863   0.191   1.826   0.723  1.2560 -1.1787 -0.7285
   19MOL   H14813864   0.190   1.610   0.813  1.2255  1.1262 -0.3294
   19MOL   H14913865   0.333   1.637   0.742 -0.2864  0.8705  2.7248
   19MOL   H15013866   0.479   1.241   0.519 -0.7535 -2.7089  0.5574
   19MOL   H15113867   0.463   1.121   0.325  0.7745  1.8620  2.6998
   19MOL   H15213868   0.063   1.243   0.257  1.3299  1.3238 -1.7954
   19MOL   H15313869   0.074   1.390   0.454 -0.7361  0.4193 -2.5338
   19MOL   C15413870   0.461   0.632   0.180 -0.7449  0.2395  0.9168
   19MOL   C15513871   0.476   0.776   0.131  0.5661  0.8526  0.5117
   19MOL   C15613872   0.366   0.811   0.026 -0.3363 -0.1277 -0.3973
   19MOL   C15713873   0.366   0.958   8.024  0.6184  0.3005  0.4252
   19MOL   C15813874   0.365   0.716   7.940 -0.3154 -0.6685  0.3468
   19MOL   C15913875   0.356   0.571   7.989  0.6957 -0.3545  0.7777
   19MOL   C16013876   0.463   0.534   0.061 -0.9086 -0.1982  0.0299
   19MOL   C16113877   0.449   0.383   0.105  0.0690 -0.0703 -0.1759
   19MOL   O16213878   0.557   0.348   0.189  0.0578  0.6369  0.6560
   19MOL   C16313879   0.656   0.282   0.134 -0.8257  0.8125 -0.8692
   19MOL   O16413880   0.655   0.256   0.017  0.1745 -0.2609  0.3416
   19MOL   C16513881   0.768   0.235   0.225  0.1033 -0.6015 -0.3735
   19MOL   C16613882   0.886   0.189   0.164  0.1402  0.3877  0.2008
   19MOL   C16713883   1.000   0.166   0.245 -0.9010 -0.2591  0.4466
   19MOL   C16813884   1.003   0.182   0.387  0.1808  0.3623 -1.2737
   19MOL   C16913885   1.123   0.159   0.470  0.6774  0.6773 -0.0651
   19MOL   O17013886   1.133   0.198   0.586  0.6103  0.0660  0.6791
   19MOL   O17113887   1.221   0.099   0.404  0.5439  0.2732  0.7425
   19MOL   C17213888   0.885   0.227   0.446  0.0933 -0.1895 -0.4399
   19MOL   C17313889   0.772   0.257   0.368 -0.2477 -0.1759  0.1027
   19MOL   H17413890   0.366   0.643   0.232 -1.4304  0.5715 -0.3701
   19MOL   H17513891   0.536   0.610   0.255  0.5003 -2.5937 -1.0746
   19MOL   H17613892   0.574   0.790   0.086 -0.0417 -0.4659 -1.2605
   19MOL   H17713893   0.458   0.840   0.218  1.9160  1.7696  0.1218
   19MOL   H17813894   0.274   0.788   0.080  1.1530 -0.0426  2.2921
   19MOL   H17913895   0.280   0.979   7.960  1.5953  1.2660 -0.5944
   19MOL   H18013896   0.452   0.990   7.965 -0.3211  0.6001 -0.8061
   19MOL   H18113897   0.459   0.724   7.886 -0.5119  2.5640  0.3406
   19MOL   H18213898   0.286   0.739   7.868  1.3372 -1.3000 -1.7188
   19MOL   H18313899   0.259   0.542   8.029  1.1353 -1.0704  1.3191
   19MOL   H18413900   0.378   0.514   7.898  1.9684 -0.3131  1.0544
   19MOL   H18513901   0.558   0.544   0.008 -0.3293  0.9218  1.2663
   19MOL   H18613902   0.425   0.323   0.018 -2.0746 -2.7978  2.2005
   19MOL   H18713903   0.357   0.371   0.163  1.1381 -0.2115  1.5183
   19MOL   H18813904   0.887   0.183   0.057  0.3159 -1.9735  0.3091
   19MOL   H18913905   1.092   0.145   0.193 -0.2945  2.5364  0.2734
   19MOL   H19013906   0.885   0.250   0.552  2.5942  0.6942 -0.5953
   19MOL   H19113907   0.691   0.304   0.422 -2.4025 -2.5760 -0.9366
   19MOL   C19213908   1.692   7.973   0.336  0.4169 -0.5091  0.0829
   19MOL   C19313909   1.576   8.031   0.424 -0.2908 -0.3057  0.0065
   19MOL   C19413910   1.435   0.008   0.360 -0.1866  0.1181 -0.2012
   19MOL   C19513911   1.353   0.096   0.458  0.5594  1.1609  0.3826
   19MOL   C19613912   1.438   0.070   0.219 -0.1459  0.0473  0.2548
   19MOL   C19713913   1.554   0.016   0.139 -0.1113  1.3575  0.0037
   19MOL   C19813914   1.690   0.021   0.205 -0.3649  0.1462 -0.1964
   19MOL   C19913915   1.793   7.991   0.102  0.3403 -0.0645  0.0982
   19MOL   O20013916   1.930   8.011   0.150 -0.3481 -0.0257 -0.5276
   19MOL   C20113917   2.007   0.087   0.122  0.8282 -0.1712 -0.1886
   19MOL   O20213918   1.965   0.173   0.040  0.0631  0.0167 -0.0506
   19MOL   C20313919   2.138   0.082   0.183  0.6344  0.7769 -0.1338
   19MOL   C20413920   2.167   8.018   0.285 -0.4382  0.4133 -0.2849
   19MOL   C20513921   2.298   8.010   0.345  0.5799  0.0340  0.2404
   19MOL   C20613922   2.399   0.061   0.300  0.2449  0.0563  0.0270
   19MOL   C20713923   2.535   0.053   0.351  0.2028  0.2174 -0.1450
   19MOL   O20813924   2.626   0.128   0.316  0.3906 -0.0119  0.2417
   19MOL   O20913925   2.553   7.983   0.444 -0.8365  0.4438  0.1898
   19MOL   C21013926   2.367   0.157   0.207 -0.7724 -0.7047  0.5459
   19MOL   C21113927   2.242   0.176   0.152  0.7800  1.0622  0.7170
   19MOL   H21213928   1.683   7.865   0.322 -0.6905 -0.4198  0.0220
   19MOL   H21313929   1.784   7.976   0.394 -0.3987  0.1538  1.3887
   19MOL   H21413930   1.620   0.087   0.470 -0.4745  0.4932 -1.3252
   19MOL   H21513931   1.571   7.957   0.504  1.4321  1.6483  1.9656
   19MOL   H21613932   1.385   7.943   0.353 -1.3152  0.7034 -0.4134
   19MOL   H21713933   1.394   0.196   0.470  1.0767  0.9693  0.2328
   19MOL   H21813934   1.358   0.046   0.555  1.7482 -0.9366 -0.7417
   19MOL   H21913935   1.454   0.177   0.229 -0.0516  0.1867 -1.3018
   19MOL   H22013936   1.347   0.051   0.162  0.8834 -1.7806 -0.8347
   19MOL   H22113937   1.538   7.942   0.120 -1.1588  1.2659  1.3368
   19MOL   H22213938   1.544   0.067   0.043 -1.4627  0.6773 -0.2247
   19MOL   H22313939   1.707   0.126   0.229  0.0281  0.2346 -0.8452
   19MOL   H22413940   1.775   0.013   0.009  1.7427  0.0420 -0.1313
   19MOL   H22513941   1.791   7.883   0.092  0.0475 -0.0513  0.0220
   19MOL   H22613942   2.083   7.962   0.322  0.5378 -0.2753  0.9447
   19MOL   H22713943   2.318   7.946   0.430  1.8115  1.8221  1.3356
   19MOL   H22813944   2.444   0.230   0.183 -1.5604  0.3852  1.2965
   19MOL   H22913945   2.218   0.254   0.082  0.7078  0.4499  0.0483
   19MOL   C23013946   2.852   0.201   0.715  0.1834 -0.2678 -0.1824
   19MOL   C23113947   2.829   0.117   0.591  0.4381  0.2890 -0.1251
   19MOL   C23213948   2.717   0.012   0.627 -0.0230 -0.3987  0.1254
   19MOL   C23313949   2.678   7.958   0.499  0.0430  0.7785 -0.0848
   19MOL   C23413950   2.757   7.955   0.746 -0.2056 -0.7038  0.7427
   19MOL   C23513951   2.773   0.015   0.867  0.6031 -0.0370 -0.4509
   19MOL   C23613952   2.881   0.132   0.846  0.1264 -1.2320  0.8184
   19MOL   C23713953   2.879   0.236   0.961 -0.3106 -1.0869  0.5000
   19MOL   O23813954   2.759   0.313   0.990 -0.5540 -0.2084  0.2385
   19MOL   C23913955   2.761   0.449   0.974  0.5014  0.7150  0.3938
   19MOL   O24013956   2.864   0.511   0.958  0.5721  0.5256 -0.7853
   19MOL   C24113957   2.633   0.517   0.992 -0.2800  0.4614 -0.0389
   19MOL   C24213958   2.522   0.446   1.047 -0.3212  0.5368 -0.5103
   19MOL   C24313959   2.401   0.512   1.055 -0.0462 -0.4827 -0.0966
   19MOL   C24413960   2.387   0.654   1.028 -0.2039 -0.0934  0.2817
   19MOL   C24513961   2.263   0.725   1.047 -0.1432  0.5787  0.1709
   19MOL   O24613962   2.245   0.844   1.011  0.6013  0.2657 -0.5137
   19MOL   O24713963   2.173   0.641   1.111  0.2053 -0.5033 -0.0718
   19MOL   C24813964   2.496   0.718   0.962  0.1460  0.3989  0.5709
   19MOL   C24913965   2.621   0.651   0.948 -0.0252 -0.7248  0.0340
   19MOL   H25013966   2.757   0.253   0.723 -0.2043 -0.9350 -0.3419
   19MOL   H25113967   2.929   0.276   0.699 -1.5296  1.5677  0.0662
   19MOL   H25213968   2.922   0.076   0.552  0.0159  0.4927 -1.3937
   19MOL   H25313969   2.794   0.178   0.507 -1.2879  0.4518  0.6862
   19MOL   H25413970   2.630   0.073   0.652  0.2618 -0.4897  1.3906
   19MOL   H25513971   2.678   7.853   0.530 -1.1357  1.3547  1.9165
   19MOL   H25613972   2.763   7.952   0.430  0.9609 -2.1559  1.1980
   19MOL   H25713973   2.850   7.905   0.719  0.1338  0.4911 -0.3779
   19MOL   H25813974   2.685   7.875   0.760  1.7994 -2.6745  0.1535
   19MOL   H25913975   2.683   0.073   0.885 -1.3130 -3.1853  0.6059
   19MOL   H26013976   2.806   7.993   0.956 -2.6950  0.2484  0.9974
   19MOL   H26113977   2.983   0.094   0.845  1.1522  1.3663 -0.9101
   19MOL   H26213978   2.969   0.296   0.966 -0.7596 -0.3851  0.2692
   19MOL   H26313979   2.901   0.180   1.052 -0.5573 -1.7149  0.1754
   19MOL   H26413980   2.537   0.346   1.085  0.7245  0.2529 -1.6458
   19MOL   H26513981   2.320   0.468   1.111 -0.5822  0.3166 -0.2322
   19MOL   H26613982   2.485   0.818   0.923 -0.4422  0.6489  1.3632
   19MOL   H26713983   2.693   0.708   0.891  1.2779 -3.7787 -1.4597
   19MOL   C26813984   1.886   0.698   0.758 -0.2020 -0.6704 -0.3007
   19MOL   C26913985   1.986   0.724   0.873 -0.5655  0.6601 -0.3291
   19MOL   C27013986   1.961   0.637   0.995  0.0545  0.0057 -0.3778
   19MOL   C27113987   2.040   0.676   1.128  0.2991  0.6474 -0.6147
   19MOL   C27213988   1.810   0.625   1.035  0.7924  0.4660  0.6529
   19MOL   C27313989   1.723   0.577   0.912  0.2779 -0.4350  0.5305
   19MOL   C27413990   1.743   0.681   0.801  0.0856 -0.4309  0.1652
   19MOL   C27513991   1.651   0.667   0.677  0.6243 -0.5586  0.3049
   19MOL   O27613992   1.522   0.676   0.728 -0.0972 -0.7795  0.4747
   19MOL   C27713993   1.432   0.739   0.659 -0.2595  0.5425  0.5125
   19MOL   O27813994   1.452   0.779   0.544  0.3341 -0.1070 -0.3274
   19MOL   C27913995   1.298   0.748   0.722 -0.3354  0.1113  0.3931
   19MOL   C28013996   1.283   0.729   0.863 -0.3482  0.5282  0.4214
   19MOL   C28113997   1.153   0.759   0.917  0.0418 -0.5356  0.0844
   19MOL   C28213998   1.047   0.793   0.840  0.3211  0.4392 -0.0551
   19MOL   C28313999   0.911   0.814   0.908 -0.2681  0.2205 -0.1111
   19MOL   O28414000   0.893   0.786   1.025 -0.4126  0.0534 -0.0406
   19MOL   O28514001   0.821   0.875   0.829  0.3593  0.3220  0.8875
   19MOL   C28614002   1.056   0.800   0.696 -0.7360 -0.4231 -0.4688
   19MOL   C28714003   1.189   0.785   0.638  0.3654 -0.1574  0.1034
   19MOL   H28814004   1.914   0.612   0.697 -1.7117  0.4099 -2.6159
   19MOL   H28914005   1.898   0.782   0.689  1.3689 -1.8725 -1.5322
   19MOL   H29014006   1.982   0.829   0.902 -1.8617  0.3359  0.6548
   19MOL   H29114007   2.088   0.713   0.836  0.3342  0.4106  2.1283
   19MOL   H29214008   1.990   0.537   0.960  0.5580 -0.2017  0.6122
   19MOL   H29314009   1.999   0.631   1.219  2.2345  1.0113  0.4548
   19MOL   H29414010   2.021   0.782   1.144 -0.4529  0.4978 -0.4587
   19MOL   H29514011   1.770   0.715   1.081  1.1401  0.0172  1.8571
   19MOL   H29614012   1.804   0.556   1.120 -2.7345  1.0187  0.9527
   19MOL   H29714013   1.740   0.472   0.888 -2.2597 -0.3789 -1.8257
   19MOL   H29814014   1.622   0.576   0.952  0.2873  2.2709  0.7065
   19MOL   H29914015   1.711   0.774   0.848  0.8322 -1.1144  2.1002
   19MOL   H30014016   1.669   0.571   0.629 -0.9096 -1.3058  1.1864
   19MOL   H30114017   1.677   0.749   0.610  2.2748 -1.8697 -0.6919
   19MOL   H30214018   1.368   0.702   0.924  1.1778  1.4563 -1.2355
   19MOL   H30314019   1.144   0.758   1.025 -0.9429 -1.7900 -0.0053
   19MOL   H30414020   0.969   0.830   0.639  0.3711  2.5967 -0.6268
   19MOL   H30514021   1.195   0.795   0.531  3.3856  0.7054  0.2854
   19MOL   C30614022   0.494   1.150   1.109  0.4455 -0.2879 -0.0804
   19MOL   C30714023   0.519   1.023   1.020  0.2485  0.2651 -0.2499
   19MOL   C30814024   0.664   1.010   0.987  0.8014  0.3251  0.1605
   19MOL   C30914025   0.691   0.890   0.888  0.3073  0.4773 -0.1849
   19MOL   C31014026   0.709   1.141   0.929  0.5185 -0.5371  0.3105
   19MOL   C31114027   0.675   1.275   1.001  0.3300  0.1638  0.0960
   19MOL   C31214028   0.529   1.283   1.038  0.9164  0.4486  0.3121
   19MOL   C31314029   0.498   1.397   1.131  0.1865  1.0083  0.7181
   19MOL   O31414030   0.365   1.444   1.106  0.0264  0.3986 -0.3842
   19MOL   C31514031   0.325   1.578   1.135  0.2430 -0.0278 -0.1973
   19MOL   O31614032   0.394   1.669   1.184 -0.5593 -0.1808 -0.3492
   19MOL   C31714033   0.181   1.602   1.113  0.2672  0.6393  0.0285
   19MOL   C31814034   0.077   1.506   1.095 -0.2854 -0.1325 -0.3031
   19MOL   C31914035   7.973   1.558   1.079  0.6643 -0.3239  0.3396
   19MOL   C32014036   7.939   1.696   1.073 -0.3034  0.4554  0.2919
   19MOL   C32114037   7.800   1.741   1.072 -0.7097 -0.1208 -0.1738
   19MOL   O32214038   7.707   1.668   1.037 -0.0690 -0.1753 -0.8052
   19MOL   O32314039   7.786   1.860   1.112  0.3193 -0.2379 -0.0250
   19MOL   C32414040   0.016   1.785   1.078  0.1656 -0.2801 -0.0843
   19MOL   C32514041   0.151   1.742   1.098  0.7686  0.0182  0.1445
   19MOL   H32614042   0.554   1.138   1.199  0.5003 -1.1925 -0.2250
   19MOL   H32714043   0.391   1.156   1.146  0.2952  1.0302 -0.7054
   19MOL   H32814044   0.463   1.018   0.927  1.4166 -2.0481 -0.8567
   19MOL   H32914045   0.484   0.935   1.074  0.1265  0.8232  0.5943
   19MOL   H33014046   0.704   1.004   1.088 -0.0029  0.5007  0.4979
   19MOL   H33114047   0.612   0.896   0.814 -0.3531 -1.8875  0.2995
   19MOL   H33214048   0.659   0.800   0.940 -2.6754  2.5749  1.8339
   19MOL   H33314049   0.659   1.149   0.833  0.9207 -0.8821  0.0689
   19MOL   H33414050   0.816   1.140   0.913  0.7748  0.5099  1.8350
   19MOL   H33514051   0.737   1.290   1.089 -1.6446  0.2766  1.5108
   19MOL   H33614052   0.693   1.356   0.931  0.5026  1.7621  1.9655
   19MOL   H33714053   0.463   1.284   0.951 -2.6023 -2.3796  2.8373
   19MOL   H33814054   0.568   1.480   1.128 -2.0058  2.9282  1.1099
   19MOL   H33914055   0.491   1.352   1.230  0.3339  1.5861  0.9936
   19MOL   H34014056   0.097   1.400   1.095 -1.0077 -0.3574  4.2088
   19MOL   H34114057   7.893   1.486   1.081  1.2008 -0.9037  1.1736
   19MOL   H34214058   0.009   1.893   1.073  1.1430 -0.2290 -0.4508
   19MOL   H34314059   0.222   1.822   1.111 -0.2579  1.3161 -1.9234
   19MOL   C34414060   7.654   2.099   0.762 -0.4663  0.3498  0.3038
   19MOL   C34514061   7.706   2.072   0.906 -0.6906  0.2021  0.5619
   19MOL   C34614062   7.614   1.964   0.967 -0.5668 -0.1304  0.6520
   19MOL   C34714063   7.665   1.926   1.107  0.3671  0.7311  0.7028
   19MOL   C34814064   7.471   2.015   0.966 -0.8262  0.3440 -0.0426
   19MOL   C34914065   7.413   2.052   0.830 -0.1442  0.5351  0.0522
   19MOL   C35014066   7.510   2.156   0.772  0.0984 -0.3089 -0.1424
   19MOL   C35114067   7.449   2.215   0.637 -0.3952  0.6146  0.0976
   19MOL   O35214068   7.521   2.338   0.613 -0.0501 -0.1693 -0.3577
   19MOL   C35314069   7.620   2.351   0.527 -0.3101  0.5857  0.9194
   19MOL   O35414070   7.644   2.267   0.440  0.1394 -0.4653  0.5100
   19MOL   C35514071   7.701   2.467   0.542  0.4422  0.5245 -0.1576
   19MOL   C35614072   7.784   2.503   0.430 -0.1211  0.1134  0.4647
   19MOL   C35714073   7.861   2.623   0.441 -0.2821  0.6234  0.7808
   19MOL   C35814074   7.845   2.711   0.547 -0.2184  0.2565 -0.4986
   19MOL   C35914075   7.905   2.848   0.554 -0.1354 -0.4184  1.0673
   19MOL   O36014076   7.894   2.913   0.657 -0.5755  0.6116  0.2144
   19MOL   O36114077   7.973   2.881   0.448 -0.0998 -0.1259  0.1726
   19MOL   C36214078   7.761   2.675   0.655 -0.3819 -0.4935 -0.4835
   19MOL   C36314079   7.692   2.553   0.650  0.5383  0.2363 -0.0655
   19MOL   H36414080   7.653   2.014   0.694  0.7515  0.0181  0.6891
   19MOL   H36514081   7.716   2.175   0.713 -2.7288  1.7878 -0.4087
   19MOL   H36614082   7.701   2.166   0.961  0.0958  0.6126 -0.0517
   19MOL   H36714083   7.811   2.044   0.908 -0.5091  0.9924  3.0188
   19MOL   H36814084   7.634   1.878   0.904 -1.6995  2.1049 -2.9557
   19MOL   H36914085   7.591   1.854   1.142  0.2742  0.0842 -0.8146
   19MOL   H37014086   7.659   2.014   1.171 -0.1407  1.1583  0.0732
   19MOL   H37114087   7.461   2.106   1.025 -0.8301  1.5934 -1.9163
   19MOL   H37214088   7.405   1.941   1.011 -0.7479  0.8608  0.9262
   19MOL   H37314089   7.401   1.964   0.767  0.0427 -0.0875  0.8904
   19MOL   H37414090   7.314   2.090   0.856  0.0740  0.9984  0.2110
   19MOL   H37514091   7.519   2.234   0.849 -1.3935  0.2401 -0.5050
   19MOL   H37614092   7.350   2.251   0.663 -0.2523  2.4770 -1.8471
   19MOL   H37714093   7.454   2.146   0.553 -1.0613  0.1740  0.4173
   19MOL   H37814094   7.787   2.435   0.346 -0.6572 -0.5647  0.9967
   19MOL   H37914095   7.925   2.653   0.359  1.1666 -0.9746  1.3050
   19MOL   H38014096   7.735   2.746   0.732  1.7406 -0.2596  0.0445
   19MOL   H38114097   7.627   2.524   0.732 -0.1882 -2.3027 -1.4884
   19MOL   C38214098   0.372   2.948   0.289  0.2293  0.2858 -0.7839
   19MOL   C38314099   0.245   2.914   0.373  0.2732  0.0314 -0.2789
   19MOL   C38414100   0.137   3.019   0.347  0.0097  0.4291  0.1036
   19MOL   C38514101   0.009   3.006   0.436 -0.6471 -0.1250 -0.0212
   19MOL   C38614102   0.187   3.167   0.359 -0.3239  0.1033 -0.5846
   19MOL   C38714103   0.317   3.194   0.289  0.2525  0.0267  0.0978
   19MOL   C38814104   0.428   3.091   0.320 -0.1588 -0.2228  0.1867
   19MOL   C38914105   0.551   3.111   0.237  0.0184 -0.6877 -0.2358
   19MOL   O39014106   0.644   3.197   0.295 -0.3763  0.1453 -0.4865
   19MOL   C39114107   0.648   3.327   0.262  1.1111  0.0398 -0.6201
   19MOL   O39214108   0.582   3.382   0.176  0.6333  0.0489  0.0090
   19MOL   C39314109   0.749   3.392   0.348 -0.3628 -0.5543 -0.4161
   19MOL   C39414110   0.809   3.325   0.459 -0.2549  0.2134 -0.9955
   19MOL   C39514111   0.895   3.384   0.550 -0.2015 -0.1302 -0.4405
   19MOL   C39614112   0.934   3.518   0.528  0.3205  0.0401 -0.6688
   19MOL   C39714113   1.026   3.585   0.626 -0.1972  0.1127  0.2785
   19MOL   O39814114   1.090   3.518   0.712  0.3033  0.0876  0.6506
   19MOL   O39914115   1.029   3.721   0.617 -0.7724  0.5130 -0.2074
   19MOL   C40014116   0.883   3.583   0.420 -0.0362 -0.3542  0.0483
   19MOL   C40114117   0.792   3.529   0.330 -0.1922  0.0522 -0.5007
   19MOL   H40214118   0.373   2.918   0.184  0.8685 -1.3043 -0.3381
   19MOL   H40314119   0.447   2.890   0.342 -1.4991  2.4335  4.2933
   19MOL   H40414120   0.267   2.913   0.480  1.4021  0.4655 -0.4977
   19MOL   H40514121   0.211   2.812   0.355  1.5527 -0.9128  2.4105
   19MOL   H40614122   0.114   3.013   0.241 -0.8375 -1.5211  0.3827
   19MOL   H40714123   7.959   3.074   0.414 -0.6276  0.1466  0.7137
   19MOL   H40814124   0.031   3.039   0.538  2.8377 -0.4290 -0.6050
   19MOL   H40914125   0.213   3.198   0.460 -0.3206 -0.0017 -0.5537
   19MOL   H41014126   0.111   3.239   0.328 -1.5512 -0.4933  0.9633
   19MOL   H41114127   0.312   3.190   0.180  2.3681 -0.8968 -0.0002
   19MOL   H41214128   0.348   3.294   0.321 -0.2312 -0.2472  1.4167
   19MOL   H41314129   0.444   3.084   0.427 -1.3074  0.3527  0.3982
   19MOL   H41414130   0.524   3.136   0.134 -0.2337  3.5620  0.7681
   19MOL   H41514131   0.593   3.010   0.235 -0.0802 -0.7112 -1.2163
   19MOL   H41614132   0.795   3.221   0.483  3.5525 -0.1209  0.0045
   19MOL   H41714133   0.932   3.335   0.639  0.6680  1.8998  0.3382
   19MOL   H41814134   0.909   3.687   0.423 -0.0052 -0.3857  3.6570
   19MOL   H41914135   0.757   3.597   0.255 -0.6704 -1.6542 -1.8557
   19MOL   C42014136   0.732   4.024   0.738  0.1331  0.4690 -0.5499
   19MOL   C42114137   0.866   3.965   0.686  0.6536 -0.2021  0.6010
   19MOL   C42214138   0.912   3.855   0.781  0.1059  0.4370 -0.1601
   19MOL   C42314139   1.049   3.791   0.740 -0.1117  0.4633  0.1986
   19MOL   C42414140   0.925   3.895   0.925  1.4578  0.0970  0.2538
   19MOL   C42514141   0.801   3.973   0.974  0.3142  0.1493  0.0563
   19MOL   C42614142   0.757   4.083   0.877 -0.5972  0.5921 -0.3940
   19MOL   C42714143   0.631   4.155   0.924 -0.0300  1.2380 -0.3339
   19MOL   O42814144   0.528   4.060   0.954 -0.1987  0.4419  0.0881
   19MOL   C42914145   0.399   4.077   0.910 -0.7698 -0.1234  0.1055
   19MOL   O43014146   0.355   4.174   0.855 -0.1028  0.2785 -0.1012
   19MOL   C43114147   0.320   3.955   0.918  0.5683  0.4253  0.4008
   19MOL   C43214148   0.377   3.826   0.936  0.5094  0.2521 -0.1597
   19MOL   C43314149   0.295   3.708   0.930 -0.1089 -0.2687  0.5815
   19MOL   C43414150   0.158   3.717   0.905 -0.2755  0.1434  0.5097
   19MOL   C43514151   0.083   3.586   0.895 -0.1984  0.4377  0.1751
   19MOL   O43614152   0.133   3.473   0.883  0.1443 -0.3858 -0.3303
   19MOL   O43714153   7.986   3.618   0.907  0.6223  1.2301  0.4851
   19MOL   C43814154   0.099   3.849   0.891  0.4422 -0.3408  0.4669
   19MOL   C43914155   0.181   3.964   0.902  0.7059  0.0143  0.2376
   19MOL   H44014156   0.658   3.944   0.732 -1.0760  1.4975  0.2230
   19MOL   H44114157   0.693   4.093   0.663 -1.7515 -0.1624 -0.1841
   19MOL   H44214158   0.934   4.050   0.681 -0.9096  0.9208 -2.4805
   19MOL   H44314159   0.865   3.944   0.579  0.7077  2.7452 -0.0113
   19MOL   H44414160   0.831   3.783   0.782 -0.4136  1.0381  1.1297
   19MOL   H44514161   1.074   3.730   0.826 -2.5590  0.7134  1.1325
   19MOL   H44614162   1.123   3.870   0.724 -0.7828  1.4873  2.0003
   19MOL   H44714163   1.020   3.945   0.946  0.9574  1.8402 -1.5167
   19MOL   H44814164   0.936   3.798   0.973  1.5604  0.2739  0.5933
   19MOL   H44914165   0.722   3.900   0.990  0.3808  0.6735  2.9184
   19MOL   H45014166   0.818   4.026   1.067  0.7081  3.2531 -1.7070
   19MOL   H45114167   0.836   4.157   0.863  0.1606 -0.0070  0.6265
   19MOL   H45214168   0.593   4.223   0.848 -1.7582  2.0100  1.1946
   19MOL   H45314169   0.643   4.219   1.012  0.9186  2.1214 -1.0910
   19MOL   H45414170   0.482   3.811   0.957  0.2560 -1.4632  0.0099
   19MOL   H45514171   0.336   3.609   0.938  1.3085  0.4813  2.9759
   19MOL   H45614172   8.024   3.864   0.878 -0.2254 -1.9131  3.6592
   19MOL   H45714173   0.131   4.060   0.898  1.4990  0.5534  2.6031
   19MOL   C45814174   7.949   3.329   1.252  0.4405 -0.5127 -0.2533
   19MOL   C45914175   7.976   3.384   1.120  0.1476 -0.3794 -0.7593
   19MOL   C46014176   7.862   3.460   1.059  0.2795  0.3166 -0.0166
   19MOL   C46114177   7.890   3.512   0.916  0.6882  0.0633  0.1361
   19MOL   C46214178   7.737   3.366   1.060 -0.4542  0.1074 -0.1963
   19MOL   C46314179   7.705   3.313   1.202  0.4642  0.1631 -0.0625
   19MOL   C46414180   7.824   3.243   1.259  0.5462 -0.2765 -0.6341
   19MOL   C46514181   7.803   3.188   1.398  0.7507  0.0322 -0.4247
   19MOL   O46614182   7.927   3.141   1.456 -0.3138 -0.0753 -0.1085
   19MOL   C46714183   7.916   3.053   1.553  0.6671 -0.0465  0.9797
   19MOL   O46814184   7.813   3.002   1.582 -0.0107 -0.4268  0.0863
   19MOL   C46914185   0.011   3.007   1.608 -0.0896 -0.4188 -0.0653
   19MOL   C47014186   0.010   2.888   1.684 -0.1722  0.6977  0.4755
   19MOL   C47114187   0.134   2.828   1.737  0.2099  0.0220  0.0095
   19MOL   C47214188   0.255   2.898   1.719 -0.2196  0.2952 -0.0686
   19MOL   C47314189   0.384   2.838   1.766  0.4599 -0.7394  0.6581
   19MOL   O47414190   0.492   2.881   1.733 -0.3686  0.1514 -0.7662
   19MOL   O47514191   0.374   2.729   1.848 -0.3245 -0.3063  0.1478
   19MOL   C47614192   0.251   3.030   1.661 -0.3614 -0.6023  0.0717
   19MOL   C47714193   0.137   3.080   1.600 -0.8401  0.0906 -0.6694
   19MOL   H47814194   7.941   3.404   1.331  0.0639  0.7471 -1.4686
   19MOL   H47914195   0.008   3.275   1.278  2.5638  2.6763 -0.7791
   19MOL   H48014196   8.015   3.299   1.064  0.7279 -1.3573  1.0802
   19MOL   H48114197   0.037   3.441   1.117  0.0215 -0.2560 -2.6997
   19MOL   H48214198   7.839   3.533   1.137  2.2834  2.1190 -1.0747
   19MOL   H48314199   7.802   3.566   0.882  0.8181  0.3961  0.3284
   19MOL   H48414200   7.922   3.429   0.852 -1.9967  0.4169 -1.7649
   19MOL   H48514201   7.751   3.288   0.986  1.5001  0.0364  0.2197
   19MOL   H48614202   7.652   3.418   1.017 -0.6598 -0.3253 -0.3161
   19MOL   H48714203   7.675   3.394   1.269  0.3980 -1.0127  1.3425
   19MOL   H48814204   7.635   3.231   1.186  0.3782  0.0318  0.9327
   19MOL   H48914205   7.844   3.152   1.201 -0.5431 -0.8158 -0.1672
   19MOL   H49014206   7.722   3.115   1.399  1.4049 -0.7036 -0.4128
   19MOL   H49114207   7.780   3.272   1.463  1.5054  0.0088 -0.1264
   19MOL   H49214208   7.946   2.839   1.698 -0.8894  0.5844 -3.9462
   19MOL   H49314209   0.124   2.730   1.781  2.5764  0.2723  1.1393
   19MOL   H49414210   0.334   3.099   1.663 -1.3743  0.6167  1.0610
   19MOL   H49514211   0.138   3.180   1.558 -0.3030  0.8771  1.1524
   19MOL   C49614212   0.340   2.346   1.634  0.0885 -0.0724 -0.0329
   19MOL   C49714213   0.377   2.488   1.665 -0.4307  0.0288  0.6441
   19MOL   C49814214   0.428   2.496   1.816  0.1463  0.8424 -0.3387
   19MOL   C49914215   0.482   2.638   1.859  0.6198 -0.5872  0.5084
   19MOL   C50014216   0.311   2.453   1.908 -0.1556 -0.5043 -0.6327
   19MOL   C50114217   0.261   2.315   1.873  0.0022 -0.0109 -0.7033
   19MOL   C50214218   0.228   2.298   1.725  0.1171 -1.0721  0.8097
   19MOL   C50314219   0.211   2.151   1.699  0.0879  0.0563 -0.1599
   19MOL   O50414220   0.131   2.086   1.800  0.3324 -0.4110 -0.0224
   19MOL   C50514221   8.029   2.110   1.804  0.0848 -0.0511  0.0797
   19MOL   O50614222   7.977   2.172   1.715 -0.0734 -0.1021  0.3208
   19MOL   C50714223   7.956   2.048   1.913  0.6371  0.3232  0.8998
   19MOL   C50814224   8.024   1.981   2.014 -0.0770 -0.7559 -0.0337
   19MOL   C50914225   7.956   1.926   2.124  0.3424 -0.3367  0.4022
   19MOL   C51014226   7.817   1.941   2.127  0.3465  0.1646 -0.0598
   19MOL   C51114227   7.744   1.899   2.247  0.7001 -1.2501 -0.7051
   19MOL   O51214228   7.622   1.915   2.253  0.4161 -0.6271  0.8303
   19MOL   O51314229   7.816   1.851   2.353 -0.0506 -0.0542 -0.0751
   19MOL   C51414230   7.745   2.002   2.022  0.1003 -0.3048  0.5407
   19MOL   C51514231   7.817   2.063   1.918  0.1385 -0.3207 -0.1156
   19MOL   H51614232   0.420   2.273   1.647 -1.2478 -1.4024  0.8832
   19MOL   H51714233   0.302   2.343   1.531  1.4920 -2.0827 -0.5262
   19MOL   H51814234   0.287   2.549   1.660  0.4939  1.2391 -3.0510
   19MOL   H51914235   0.462   2.522   1.605 -0.9554  1.4890  0.7104
   19MOL   H52014236   0.514   2.431   1.831 -0.5486 -0.2435 -1.0056
   19MOL   H52114237   0.574   2.673   1.811  0.4915 -1.0999 -0.1221
   19MOL   H52214238   0.518   2.651   1.961  1.0984  0.6024  0.1908
   19MOL   H52314239   0.224   2.518   1.903 -0.5048 -0.7597  1.3757
   19MOL   H52414240   0.343   2.475   2.010 -0.5369  2.4341 -1.0995
   19MOL   H52514241   0.334   2.244   1.911 -0.8302 -0.1361  0.7204
   19MOL   H52614242   0.176   2.301   1.941  1.1119 -0.1295  0.6764
   19MOL   H52714243   0.132   2.346   1.704  1.0568  0.1638 -0.7806
   19MOL   H52814244   0.308   2.103   1.687  0.5221  0.3042  2.1625
   19MOL   H52914245   0.162   2.139   1.602 -1.8025 -2.1240  1.0237
   19MOL   H53014246   0.100   1.970   2.014  0.0954  0.8090  0.6184
   19MOL   H53114247   8.012   1.886   2.207 -1.6710  1.2054  2.5877
   19MOL   H53214248   7.641   2.030   2.023  0.7647  2.2478  0.7450
   19MOL   H53314249   7.766   2.111   1.835 -0.3323  0.5234  0.6490
   19MOL   C53414250   7.847   1.878   2.856 -0.0585  0.5267 -0.3194
   19MOL   C53514251   7.763   1.850   2.727 -0.2054 -0.5959 -0.1677
   19MOL   C53614252   7.843   1.828   2.599 -0.2455 -0.8136 -0.2436
   19MOL   C53714253   7.748   1.820   2.474 -0.3821  0.1995  0.1220
   19MOL   C53814254   7.953   1.934   2.582 -0.2294  0.6396  0.0140
   19MOL   C53914255   0.005   1.947   2.711  0.2708  0.3492  0.2724
   19MOL   C54014256   7.943   1.988   2.831 -0.8169  0.9163  0.6048
   19MOL   C54114257   0.001   2.007   2.962 -0.0114 -0.8519 -0.1387
   19MOL   O54214258   7.947   2.072   3.057  0.0276  0.0462 -0.2519
   19MOL   C54314259   7.990   2.152   3.166  0.3433 -0.0554 -0.1682
   19MOL   O54414260   0.073   2.159   3.210 -0.3372 -0.3547  0.0708
   19MOL   C54514261   7.873   2.229   3.229  0.4923  0.0801 -0.2425
   19MOL   C54614262   7.738   2.222   3.182  0.4469 -0.0894  0.6326
   19MOL   C54714263   7.627   2.264   3.256  0.3172 -0.3355  0.2912
   19MOL   C54814264   7.654   2.342   3.369 -0.4293  0.0561 -0.3413
   19MOL   C54914265   7.547   2.405   3.449 -0.7021 -0.4063  0.0203
   19MOL   O55014266   7.563   2.481   3.542 -0.6461  0.2798  0.0686
   19MOL   O55114267   7.424   2.374   3.402 -0.8813 -0.1481 -0.0572
   19MOL   C55214268   7.787   2.361   3.408 -0.2681  0.0011  1.5146
   19MOL   C55314269   7.894   2.297   3.344  0.4269 -0.0053 -0.0572
   19MOL   H55414270   7.904   1.787   2.876 -0.5366  0.0994 -0.8876
   19MOL   H55514271   7.782   1.906   2.939 -1.6307  0.2375 -1.4431
   19MOL   H55614272   7.697   1.936   2.713 -0.5623 -0.5281  1.7515
   19MOL   H55714273   7.693   1.770   2.750 -0.8568  0.0043 -0.0405
   19MOL   H55814274   7.892   1.732   2.616  1.0398  0.1677  1.8631
   19MOL   H55914275   7.672   1.897   2.484  0.7638  1.2469  0.9721
   19MOL   H56014276   7.705   1.721   2.461 -0.5098  0.4171 -1.1124
   19MOL   H56114277   7.914   2.030   2.550 -2.4160  0.2497  1.3948
   19MOL   H56214278   8.017   1.903   2.499 -0.4867 -3.6395  1.2709
   19MOL   H56314279   0.063   1.858   2.734 -0.6773  0.1278  1.8711
   19MOL   H56414280   0.073   2.031   2.696 -1.9003  2.0088 -0.5882
   19MOL   H56514281   7.895   2.084   2.813 -0.4214  1.0207  0.0842
   19MOL   H56614282   0.084   2.076   2.947 -0.3270 -0.6600 -1.0877
   19MOL   H56714283   0.047   1.914   2.996 -0.4806 -0.8430  0.5029
   19MOL   H56814284   7.726   2.171   3.088  1.8331  0.3238  0.2165
   19MOL   H56914285   7.531   2.258   3.206  0.9423 -0.2521 -0.9370
   19MOL   H57014286   7.807   2.423   3.495 -0.7754  0.4024  1.3468
   19MOL   H57114287   7.988   2.308   3.396 -0.7651 -0.2449  2.2005
   19MOL   C57214288   7.036   2.129   3.476  0.6506 -0.4183 -0.5730
   19MOL   C57314289   7.171   2.194   3.505  0.3647  0.5624  0.5633
   19MOL   C57414290   7.180   2.333   3.434  0.2423  0.2107 -0.6914
   19MOL   C57514291   7.307   2.418   3.472 -0.0907 -0.3691 -0.1377
   19MOL   C57614292   7.160   2.320   3.286  0.9145 -0.0516  0.3342
   19MOL   C57714293   7.033   2.240   3.243 -0.0086 -0.0263  0.2892
   19MOL   C57814294   7.008   2.113   3.323 -0.2936  0.5868 -0.0624
   19MOL   C57914295   6.865   2.046   3.300  0.0707  0.0300 -0.8435
   19MOL   O58014296   6.820   2.041   3.164  0.3244  0.2586 -0.0858
   19MOL   C58114297   6.749   1.943   3.116  0.2454  0.8480  0.7116
   19MOL   O58214298   6.705   1.853   3.185 -0.4307  0.3641 -0.7500
   19MOL   C58314299   6.721   1.952   2.970  0.2369  0.3748 -0.4376
   19MOL   C58414300   6.787   2.047   2.895 -0.3811  0.0304  0.7062
   19MOL   C58514301   6.758   2.073   2.756  0.8399  0.5927 -0.0577
   19MOL   C58614302   6.662   1.989   2.693  0.3296  0.0084 -0.9769
   19MOL   C58714303   6.633   2.008   2.544  0.2496 -0.1108  0.2425
   19MOL   O58814304   6.560   1.934   2.479 -0.9160 -0.3095 -0.6955
   19MOL   O58914305   6.707   2.105   2.483 -0.3083  0.6439  0.0451
   19MOL   C59014306   6.595   1.889   2.773 -0.5086  0.0716  0.1616
   19MOL   C59114307   6.623   1.865   2.909 -0.0505 -0.6266  0.1904
   19MOL   H59214308   6.967   2.190   3.533  2.5799 -0.5668  2.0118
   19MOL   H59314309   7.045   2.031   3.523  1.0914  0.8754  2.1074
   19MOL   H59414310   7.246   2.129   3.461  0.5726  1.0123  0.2431
   19MOL   H59514311   7.201   2.196   3.610 -1.1084 -2.0282  1.0672
   19MOL   H59614312   7.087   2.370   3.476 -0.6682 -0.5556 -2.0112
   19MOL   H59714313   7.312   2.436   3.579 -1.6768  1.2866 -0.3061
   19MOL   H59814314   7.293   2.516   3.425  1.0046  0.1321  0.5748
   19MOL   H59914315   7.245   2.264   3.245 -1.2597 -2.0823 -1.5440
   19MOL   H60014316   7.155   2.417   3.238  0.6596  0.1330  0.7372
   19MOL   H60114317   6.947   2.305   3.257  1.3477  2.0026 -0.4448
   19MOL   H60214318   7.046   2.213   3.138  0.5933  2.1450 -0.2345
   19MOL   H60314319   7.084   2.042   3.290 -1.2254  0.8077 -2.8009
   19MOL   H60414320   6.789   2.105   3.352  3.1888  1.8571  1.8779
   19MOL   H60514321   6.862   1.947   3.346 -1.6551  0.6328  0.3973
   19MOL   H60614322   6.851   2.122   2.939  0.1639 -1.8816  3.2732
   19MOL   H60714323   6.811   2.146   2.698  0.8362  0.7651  0.1554
   19MOL   H60814324   6.523   1.826   2.723 -0.1889 -0.6852  0.6400
   19MOL   H60914325   6.576   1.787   2.967 -0.3459 -0.8530 -0.3508
   19MOL   C61014326   6.784   2.517   2.353  0.1276  0.3350 -0.0114
   19MOL   C61114327   6.701   2.385   2.381  0.7556  0.2346  0.3428
   19MOL   C61214328   6.752   2.269   2.305  0.0972  0.3923  0.4105
   19MOL   C61314329   6.678   2.137   2.345  0.0613  0.3765 -0.4007
   19MOL   C61414330   6.745   2.308   2.147 -0.3526  0.2580  0.0452
   19MOL   C61514331   6.833   2.435   2.118 -0.1372 -0.2052  0.1529
   19MOL   C61614332   6.789   2.555   2.205 -0.5285  0.0133 -0.7038
   19MOL   C61714333   6.878   2.683   2.192  0.6460  0.1538  0.3037
   19MOL   O61814334   7.015   2.658   2.240 -0.3396  0.4912  0.2543
   19MOL   C61914335   7.118   2.718   2.187 -0.1567 -0.1259 -0.4379
   19MOL   O62014336   7.100   2.802   2.099  0.0620 -0.0194 -0.4705
   19MOL   C62114337   7.245   2.684   2.255 -0.0358  0.4509 -0.1905
   19MOL   C62214338   7.364   2.737   2.205 -0.0574 -0.1791 -1.0209
   19MOL   C62314339   7.487   2.698   2.267  0.1843 -1.3094  0.6987
   19MOL   C62414340   7.489   2.617   2.381 -0.3507  0.0081 -0.4510
   19MOL   C62514341   7.622   2.589   2.440 -0.4586 -0.4341 -0.4611
   19MOL   O62614342   7.727   2.589   2.377 -0.5129 -0.2461 -0.2243
   19MOL   O62714343   7.617   2.590   2.579  0.0471 -0.2734 -0.0324
   19MOL   C62814344   7.368   2.570   2.434 -0.9853  0.5381 -0.6247
   19MOL   C62914345   7.245   2.605   2.376 -0.0294  1.0086  0.7664
   19MOL   H63014346   6.885   2.505   2.391 -0.0590  0.5468  0.5568
   19MOL   H63114347   6.722   2.590   2.405 -0.2131  0.1591 -0.1606
   19MOL   H63214348   6.597   2.408   2.359  0.9030 -0.4936 -1.1635
   19MOL   H63314349   6.708   2.372   2.489 -2.8642 -0.9536  0.4945
   19MOL   H63414350   6.857   2.247   2.325 -0.3610 -0.7873  1.5815
   19MOL   H63514351   6.708   2.050   2.288  0.3850  0.5114 -0.4381
   19MOL   H63614352   6.572   2.160   2.336 -0.2621 -0.7179  0.4610
   19MOL   H63714353   6.643   2.337   2.123 -0.3071  0.0078 -0.4460
   19MOL   H63814354   6.768   2.221   2.086 -1.8640 -0.8567  1.0148
   19MOL   H63914355   6.941   2.425   2.135  0.1753 -2.1011 -2.5347
   19MOL   H64014356   6.829   2.458   2.011 -0.1246  1.3832  0.4817
   19MOL   H64114357   6.688   2.589   2.185 -0.7637 -0.2229  0.0655
   19MOL   H64214358   6.840   2.763   2.256 -0.5723  0.1681 -0.4309
   19MOL   H64314359   6.885   2.713   2.088  0.8170 -2.4386 -0.4502
   19MOL   H64414360   7.353   2.798   2.116 -2.0634 -0.5849 -1.0794
   19MOL   H64514361   7.581   2.734   2.228 -0.8310 -0.2432 -0.8271
   19MOL   H64614362   7.366   2.512   2.525  2.4235  1.1577 -0.0929
   19MOL   H64714363   7.151   2.578   2.422  0.4867 -0.3285  1.0651
   19MOL   C64814364   7.593   2.560   3.016  0.3566  0.2020  0.1014
   19MOL   C64914365   7.579   2.543   2.866 -0.0302 -0.3987  0.3776
   19MOL   C65014366   7.719   2.579   2.799  0.1919 -0.5924 -0.0536
   19MOL   C65114367   7.726   2.544   2.654  0.3902 -0.0152 -0.3660
   19MOL   C65214368   7.752   2.733   2.829 -0.0643 -0.3935 -0.3074
   19MOL   C65314369   7.765   2.753   2.979 -0.1509 -0.4091 -0.3721
   19MOL   C65414370   7.640   2.702   3.063 -0.1381 -0.3289  0.5754
   19MOL   C65514371   7.661   2.702   3.216 -0.4412 -0.5644 -0.0181
   19MOL   O65614372   7.791   2.655   3.244 -0.1847 -0.0546 -0.1930
   19MOL   C65714373   7.841   2.674   3.364 -0.3930 -0.7702 -0.2535
   19MOL   O65814374   7.784   2.721   3.464  0.3099  0.4230  0.0399
   19MOL   C65914375   7.983   2.631   3.372  0.6119  0.2278  1.1952
   19MOL   C66014376   0.027   2.640   3.487 -0.6438  0.9120 -0.0797
   19MOL   C66114377   0.160   2.596   3.503 -0.2823 -0.0626 -0.7810
   19MOL   C66214378   0.215   2.518   3.400 -0.1405  0.0201 -0.8610
   19MOL   C66314379   0.346   2.456   3.418 -0.3289 -0.3667 -1.0826
   19MOL   O66414380   0.419   2.427   3.325 -0.0169  0.0044  0.4886
   19MOL   O66514381   0.383   2.449   3.549  0.3840 -0.5321  0.5000
   19MOL   C66614382   0.145   2.518   3.282  0.0963  0.6107 -0.1863
   19MOL   C66714383   0.012   2.562   3.270  0.7946  0.0242 -0.3174
   19MOL   H66814384   7.673   2.494   3.051  1.5368  1.4803 -0.1118
   19MOL   H66914385   7.504   2.530   3.070  0.2051  1.6666  0.6708
   19MOL   H67014386   7.497   2.604   2.829 -0.7989 -2.0475 -0.6921
   19MOL   H67114387   7.552   2.439   2.845  1.1632 -0.8035  0.8169
   19MOL   H67214388   7.784   2.515   2.858 -0.8929 -1.7937 -0.1549
   19MOL   H67314389   7.738   2.437   2.637  1.5966  0.0224  0.2116
   19MOL   H67414390   7.808   2.600   2.609  0.3750  1.1630  1.0215
   19MOL   H67514391   7.682   2.792   2.771  1.3214  0.6453 -0.9598
   19MOL   H67614392   7.849   2.744   2.780 -0.7895  0.6333 -1.5107
   19MOL   H67714393   7.845   2.684   3.008  2.2034  1.6070 -1.7851
   19MOL   H67814394   7.803   2.852   3.004  0.3211 -1.4121  3.0910
   19MOL   H67914395   7.556   2.764   3.032  1.1867  0.2332 -2.0513
   19MOL   H68014396   7.590   2.643   3.275 -0.3703 -1.1834 -0.5416
   19MOL   H68114397   7.653   2.803   3.255 -1.0759 -0.1427 -1.2363
   19MOL   H68214398   8.016   2.695   3.570  1.5329 -0.3632  1.9623
   19MOL   H68314399   0.215   2.613   3.595 -0.8359 -0.8132 -0.3045
   19MOL   H68414400   0.195   2.466   3.201  0.1191  0.8954 -0.3537
   19MOL   H68514401   7.995   2.535   3.178  0.7948 -0.8005 -0.0782
   19MOL   C68614402   0.707   2.485   3.909 -0.1479  0.5487  0.0429
   19MOL   C68714403   0.680   2.434   3.767  0.8145  0.2074  0.4883
   19MOL   C68814404   0.540   2.469   3.717 -0.6213 -0.2350  0.2513
   19MOL   C68914405   0.509   2.397   3.591  0.8285 -0.7511 -0.4726
   19MOL   C69014406   0.431   2.448   3.818  0.1789 -0.3345 -0.5142
   19MOL   C69114407   0.453   2.503   3.955  0.0862  0.0226  0.0738
   19MOL   C69214408   0.596   2.461   4.010 -0.3107 -0.4284 -1.1507
   19MOL   C69314409   0.630   2.538   4.138 -0.1044 -0.6321  0.9729
   19MOL   O69414410   0.756   2.487   4.176  0.0639 -0.7912 -0.6178
   19MOL   C69514411   0.775   2.464   4.305  0.5869 -0.8274 -0.0016
   19MOL   O69614412   0.708   2.508   4.392  0.1926 -0.8363 -0.2091
   19MOL   C69714413   0.894   2.376   4.334  0.0185  0.2083 -0.2241
   19MOL   C69814414   0.974   2.316   4.230  0.7314 -1.1325  0.3540
   19MOL   C69914415   1.081   2.236   4.264  0.1054 -0.1244 -0.9380
   19MOL   C70014416   1.113   2.201   4.398  0.1596 -0.3144  0.3224
   19MOL   C70114417   1.239   2.129   4.427 -1.2827  0.1982 -0.6127
   19MOL   O70214418   1.320   2.102   4.335  0.8750  0.5872  1.1231
   19MOL   O70314419   1.255   2.107   4.559  0.2113 -0.1632 -0.1594
   19MOL   C70414420   1.020   2.242   4.496  0.1907  0.1372 -0.5215
   19MOL   C70514421   0.922   2.339   4.469 -0.9486  0.4118 -0.2213
   19MOL   H70614422   0.728   2.592   3.908 -0.0861  0.5697 -3.3787
   19MOL   H70714423   0.794   2.431   3.946  0.0168 -0.4702 -1.7619
   19MOL   H70814424   0.684   2.325   3.765 -0.1780  0.1412  1.7871
   19MOL   H70914425   0.756   2.470   3.698  1.4390 -1.1049  0.4814
   19MOL   H71014426   0.542   2.577   3.701  0.6487 -0.4079 -0.8206
   19MOL   H71114427   0.502   2.289   3.601  1.0199 -0.7801 -0.6510
   19MOL   H71214428   0.587   2.433   3.524  0.3712  1.3493  0.0695
   19MOL   H71314429   0.420   2.340   3.819 -1.1541 -0.1973  0.6432
   19MOL   H71414430   0.338   2.487   3.776  0.8032 -0.0157 -1.6287
   19MOL   H71514431   0.461   2.612   3.953 -1.4426  0.2306  3.1573
   19MOL   H71614432   0.383   2.481   4.035  0.1507 -2.5571 -0.5516
   19MOL   H71714433   0.585   2.356   4.039 -3.4934  0.4307  1.0665
   19MOL   H71814434   0.552   2.530   4.214 -1.6328  0.6305 -0.4171
   19MOL   H71914435   0.644   2.643   4.113 -0.5920 -0.1613  2.6090
   19MOL   H72014436   0.943   2.345   4.131 -0.4751 -0.1519  0.9965
   19MOL   H72114437   1.152   2.203   4.189  0.6621  0.1120 -0.5159
   19MOL   H72214438   1.048   2.225   4.599  2.2661 -2.2355 -1.4109
   19MOL   H72314439   0.871   2.394   4.547  3.2980  2.2031  1.4647
   19MOL   C72414440   1.675   2.301   4.548  0.0219 -0.7082 -1.0955
   19MOL   C72514441   1.583   2.182   4.525 -0.9215  0.5915  0.1945
   19MOL   C72614442   1.488   2.161   4.640 -0.0620 -0.2040  0.2699
   19MOL   C72714443   1.378   2.058   4.617  0.9217  0.0696 -0.8544
   19MOL   C72814444   1.565   2.146   4.772 -0.2846 -1.0908  0.3594
   19MOL   C72914445   1.648   2.267   4.804 -0.3705 -0.3634  0.1127
   19MOL   C73014446   1.744   2.305   4.684 -0.9731 -0.0678 -0.8549
   19MOL   C73114447   1.831   2.427   4.717 -0.1184 -0.7299  0.0038
   19MOL   O73214448   1.749   2.544   4.732 -0.3412  0.0105 -0.6966
   19MOL   C73314449   1.787   2.670   4.718 -0.7963 -0.1727  0.4936
   19MOL   O73414450   1.908   2.703   4.707  0.1452 -0.4295 -0.4986
   19MOL   C73514451   1.676   2.763   4.701  0.6825  0.3447 -0.0768
   19MOL   C73614452   1.538   2.723   4.717 -0.4660 -0.8635 -0.1500
   19MOL   C73714453   1.431   2.812   4.694  0.0165 -0.1903 -0.0265
   19MOL   C73814454   1.454   2.949   4.660  0.2015  0.7201  0.1916
   19MOL   C73914455   1.332   3.036   4.629 -0.5163 -0.5212 -0.4113
   19MOL   O74014456   1.349   3.148   4.582 -0.2619 -0.1430  0.5494
   19MOL   O74114457   1.218   2.989   4.684 -0.0479 -0.1749 -0.0922
   19MOL   C74214458   1.591   2.988   4.656  0.2782  0.6679  0.0210
   19MOL   C74314459   1.700   2.898   4.673 -0.5303  0.3730  0.6266
   19MOL   H74414460   1.612   2.390   4.546  1.3321  0.2431 -0.4406
   19MOL   H74514461   1.747   2.310   4.466  1.2671 -2.6087 -0.2395
   19MOL   H74614462   1.638   2.089   4.513 -2.6064 -0.2029 -1.5632
   19MOL   H74714463   1.524   2.201   4.436 -0.6347  0.1082 -0.0984
   19MOL   H74814464   1.431   2.252   4.657 -0.6202 -0.7205  1.2356
   19MOL   H74914465   1.347   2.012   4.711 -0.7469  1.0837 -0.9076
   19MOL   H75014466   1.430   1.977   4.566 -1.1798 -1.8475 -0.0450
   19MOL   H75114467   1.621   2.053   4.763  3.5551  1.1097  0.4182
   19MOL   H75214468   1.488   2.135   4.848  2.0512  1.5146  3.1882
   19MOL   H75314469   1.578   2.348   4.827 -0.4367 -0.8960  1.8609
   19MOL   H75414470   1.706   2.253   4.895  1.0314 -4.2787 -1.2997
   19MOL   H75514471   1.821   2.229   4.680 -2.4958 -1.7471  0.6780
   19MOL   H75614472   1.900   2.452   4.636 -0.5273  0.9265  0.1398
   19MOL   H75714473   1.890   2.405   4.806  0.2006  0.3620  0.0734
   19MOL   H75814474   1.517   2.621   4.746 -1.8172 -0.7237 -0.5801
   19MOL   H75914475   1.330   2.773   4.702  0.5054 -1.6266 -0.6679
   19MOL   H76014476   1.610   3.091   4.631 -1.8851  1.6241  2.1188
   19MOL   H76114477   1.802   2.931   4.672 -1.1681  2.4918  1.2515
   19MOL   H76214478   1.156   3.060   4.681 -0.9696 -0.9968 -0.5537
   20MOL     C114479   5.004   1.994   0.990 -0.4412  0.8481  0.5474
   20MOL     C214480   4.990   2.123   0.906 -0.4818  0.5669 -0.4905
   20MOL     C314481   5.055   2.243   0.965  0.1537 -0.4070  0.1758
   20MOL     C414482   5.027   2.368   0.884 -0.4033 -0.1623  0.0185
   20MOL     C514483   5.006   2.255   1.109 -0.1793 -0.6220  0.5663
   20MOL     C614484   5.025   2.131   1.202  0.2695 -0.2340 -0.1039
   20MOL     C714485   4.952   2.009   1.135  0.0247 -0.5878  0.3614
   20MOL     C814486   4.977   1.873   1.204  0.0337  0.4215 -0.7716
   20MOL     O914487   4.958   1.883   1.346 -0.6853 -0.1762  0.1170
   20MOL    C1014488   4.995   1.785   1.421  0.2639 -0.0068 -0.5342
   20MOL    O1114489   4.997   1.666   1.387  0.1451 -0.2393 -0.0383
   20MOL    C1214490   5.020   1.830   1.564 -1.0001  0.7142 -0.3086
   20MOL    C1314491   5.061   1.736   1.660  0.7864  0.4321  0.3827
   20MOL    C1414492   5.068   1.773   1.791 -0.0638  0.6250  0.4663
   20MOL    C1514493   5.025   1.905   1.837 -0.3832  0.4061 -0.0273
   20MOL    C1614494   5.021   1.937   1.980 -0.4282 -0.6005 -0.8342
   20MOL    O1714495   4.967   2.043   2.019 -0.6286  0.1371  0.6341
   20MOL    O1814496   5.082   1.838   2.056  0.6762  0.0994 -0.5561
   20MOL    C1914497   4.988   1.999   1.740 -0.0551 -0.1092  0.7182
   20MOL    C2014498   4.976   1.959   1.604 -0.4341 -0.1071 -0.5553
   20MOL    H2114499   5.101   1.945   0.985 -1.3571 -1.3505  3.0710
   20MOL    H2214500   4.937   1.919   0.948  0.5184  1.2639 -1.7978
   20MOL    H2314501   4.885   2.145   0.889 -0.8710  0.3937  1.5555
   20MOL    H2414502   5.017   2.105   0.802  0.4566 -0.2056 -0.1306
   20MOL    H2514503   5.163   2.231   0.972 -0.0049 -1.7820  0.4153
   20MOL    H2614504   5.063   2.350   0.783  0.2323 -3.0620  0.7276
   20MOL    H2714505   5.088   2.449   0.923 -2.2822  0.4897  1.6914
   20MOL    H2814506   4.902   2.289   1.105  0.1753  0.6096  1.6760
   20MOL    H2914507   5.054   2.339   1.159 -1.5713  0.1007  0.7343
   20MOL    H3014508   5.132   2.112   1.201  0.2316 -0.4334 -1.0337
   20MOL    H3114509   5.008   2.150   1.307  0.9462 -0.6574  0.0845
   20MOL    H3214510   4.845   2.032   1.139 -0.4568 -2.9648  2.0298
   20MOL    H3314511   5.083   1.855   1.187  0.6405  2.5159  0.5920
   20MOL    H3414512   4.910   1.794   1.171 -1.7745  1.8578 -0.5926
   20MOL    H3514513   5.083   1.635   1.628  0.3308  0.1350  0.9798
   20MOL    H3614514   5.097   1.699   1.865  2.3751  0.7206 -0.3259
   20MOL    H3714515   4.965   2.099   1.773  0.1873  0.5706 -1.0918
   20MOL    H3814516   4.961   2.037   1.530  2.4179 -0.4007 -1.5290
   20MOL    H3914517   4.921   2.392   0.895 -0.1639  0.1196  1.7805
   20MOL    C4014518   5.407   1.651   2.235  0.2604 -0.2411  0.3034
   20MOL    C4114519   5.314   1.754   2.171  0.2920 -0.5384  0.0347
   20MOL    C4214520   5.183   1.744   2.250  0.2428  0.3145 -0.4761
   20MOL    C4314521   5.080   1.848   2.200 -0.1384  0.2139 -0.9723
   20MOL    C4414522   5.127   1.602   2.232  0.7446  0.5537  0.3851
   20MOL    C4514523   5.222   1.497   2.271 -0.0984  0.1500  0.0050
   20MOL    C4614524   5.359   1.510   2.206  0.4841 -0.5769  0.2990
   20MOL    C4714525   5.468   1.410   2.235  0.3470 -0.5236 -0.2553
   20MOL    O4814526   5.435   1.284   2.183 -0.4937 -0.2596 -0.5145
   20MOL    C4914527   5.525   1.210   2.129 -1.2763  0.3837  0.5093
   20MOL    O5014528   5.641   1.238   2.121  0.2758 -0.4026 -0.0695
   20MOL    C5114529   5.466   1.089   2.066  0.8384  0.4345  0.1259
   20MOL    C5214530   5.337   1.039   2.106 -0.1153  0.1394 -0.5890
   20MOL    C5314531   5.280   0.925   2.045  0.1116 -0.1296 -0.3320
   20MOL    C5414532   5.354   0.853   1.950  0.0827 -0.6286  0.3921
   20MOL    C5514533   5.309   0.730   1.872  0.0112 -0.1679  0.5705
   20MOL    O5614534   5.377   0.676   1.781  0.1711  0.3631  0.2070
   20MOL    O5714535   5.188   0.685   1.922 -0.3928  0.7307 -0.0719
   20MOL    C5814536   5.482   0.898   1.916 -0.1055  0.2161 -0.1382
   20MOL    C5914537   5.537   1.016   1.972 -0.5230  0.4714  0.0091
   20MOL    H6014538   5.423   1.671   2.341  1.3573 -2.6155  0.6128
   20MOL    H6114539   5.505   1.653   2.186 -0.3910 -0.0704 -1.0298
   20MOL    H6214540   5.303   1.732   2.065 -1.5963 -0.8943  0.2848
   20MOL    H6314541   5.352   1.854   2.192 -0.8956 -0.0263 -0.1937
   20MOL    H6414542   5.204   1.768   2.354 -2.6330  0.3504  0.1423
   20MOL    H6514543   5.094   1.953   2.225 -1.3621  0.5604 -1.6600
   20MOL    H6614544   4.978   1.816   2.222 -0.7339  1.9105 -1.1651
   20MOL    H6714545   5.097   1.588   2.129  1.4418 -1.3078  0.4225
   20MOL    H6814546   5.033   1.592   2.286  0.9644  0.2239  0.7057
   20MOL    H6914547   5.241   1.504   2.378 -2.9062  0.6531  0.5080
   20MOL    H7014548   5.188   1.396   2.248  1.7121 -0.2146 -1.1634
   20MOL    H7114549   5.332   1.499   2.101  0.4137  0.3068  0.2258
   20MOL    H7214550   5.476   1.402   2.343  1.7496 -0.2886 -0.3365
   20MOL    H7314551   5.566   1.445   2.203  1.2360 -0.4131  2.5140
   20MOL    H7414552   5.289   1.087   2.190 -0.9362 -0.9139 -0.4393
   20MOL    H7514553   5.185   0.883   2.074  0.4542  0.4231  1.6068
   20MOL    H7614554   5.545   0.844   1.847 -0.0201  0.5979 -0.3592
   20MOL    H7714555   5.629   1.058   1.932 -0.1038 -0.7265 -0.3299
   20MOL    C7814556   4.818   0.467   2.065 -0.0664  0.6222 -0.1288
   20MOL    C7914557   4.968   0.469   2.034  0.9771  0.3996  0.1638
   20MOL    C8014558   4.992   0.542   1.900  0.0286 -0.0240 -0.5104
   20MOL    C8114559   5.140   0.552   1.870 -0.1714  0.3063 -0.0771
   20MOL    C8214560   4.906   0.477   1.790 -0.1820 -0.4399 -0.2314
   20MOL    C8314561   4.764   0.466   1.823  0.4543  0.4409  0.2629
   20MOL    C8414562   4.732   0.393   1.953 -0.3667 -0.2910 -0.5023
   20MOL    C8514563   4.585   0.403   1.993 -0.2847 -0.5490  0.3908
   20MOL    O8614564   4.506   0.338   1.885  0.4418 -0.4115  0.2262
   20MOL    C8714565   4.374   0.306   1.911  0.3041 -1.1072 -0.6413
   20MOL    O8814566   4.323   0.328   2.021  0.1893  0.3230 -0.5932
   20MOL    C8914567   4.290   0.264   1.793 -0.5115 -0.2634  0.2429
   20MOL    C9014568   4.343   0.250   1.661  0.2420 -0.0383 -0.0736
   20MOL    C9114569   4.265   0.222   1.550  0.5739  0.0851  0.0598
   20MOL    C9214570   4.127   0.198   1.574 -0.0316 -0.4702 -0.4017
   20MOL    C9314571   4.036   0.184   1.458  0.2417  0.1162  0.0357
   20MOL    O9414572   3.915   0.149   1.457 -0.5404 -0.1687 -0.0391
   20MOL    O9514573   4.085   0.234   1.342 -0.0449 -0.5457  0.4218
   20MOL    C9614574   4.068   0.206   1.706 -0.4151 -0.2877  0.3364
   20MOL    C9714575   4.154   0.235   1.811  0.1744  0.2971  0.8651
   20MOL    H9814576   4.786   0.570   2.079 -1.8365 -0.0585  0.9631
   20MOL    H9914577   4.804   0.409   2.156  0.2888 -1.8033 -1.5587
   20MOL   H10014578   4.989   0.362   2.026 -2.1641 -0.1688 -1.2141
   20MOL   H10114579   5.034   0.510   2.110  1.8899  0.3613 -0.5966
   20MOL   H10214580   4.955   0.641   1.924 -0.5879 -0.4901  0.4894
   20MOL   H10314581   5.152   0.541   1.762 -1.7161 -0.3234 -0.2095
   20MOL   H10414582   5.181   0.470   1.929 -0.6214  0.1114 -0.0248
   20MOL   H10514583   4.943   0.375   1.786  1.4046  0.0722  0.8387
   20MOL   H10614584   4.930   0.521   1.693 -1.3073 -0.0344 -0.3334
   20MOL   H10714585   4.716   0.564   1.818 -1.8321 -0.7341 -1.2633
   20MOL   H10814586   4.722   0.410   1.739 -1.8905 -0.5816  2.0438
   20MOL   H10914587   4.747   0.285   1.951 -1.4276 -0.4077 -2.2111
   20MOL   H11014588   4.557   0.508   2.009 -0.2657 -0.6640  1.1849
   20MOL   H11114589   4.578   0.337   2.079 -0.8569 -0.3323  0.5150
   20MOL   H11214590   4.448   0.272   1.655  0.6493 -2.1501 -1.0078
   20MOL   H11314591   4.306   0.224   1.451  2.0348 -1.9360  0.6009
   20MOL   H11414592   3.962   0.188   1.717  0.1854 -2.2941  3.3372
   20MOL   H11514593   4.120   0.237   1.913  3.7458 -2.1973  2.2114
   20MOL   C11614594   4.233   0.037   0.987 -0.9834 -0.0343  0.5834
   20MOL   C11714595   4.156   0.070   1.116  0.4603 -0.0473 -0.2777
   20MOL   C11814596   4.072   0.200   1.100 -0.3272 -0.2256  0.2183
   20MOL   C11914597   4.001   0.242   1.225  0.3557 -0.1497 -0.5860
   20MOL   C12014598   4.165   0.320   1.057  0.3231  0.4687  0.1153
   20MOL   C12114599   4.230   0.297   0.925 -0.4787 -0.0737  0.2879
   20MOL   C12214600   4.301   0.162   0.927  0.4384  0.2270  0.4605
   20MOL   C12314601   4.360   0.138   0.783 -0.2404  0.3072  0.0085
   20MOL   O12414602   4.440   0.016   0.789 -0.3368 -0.1508  0.1974
   20MOL   C12514603   4.404   7.937   0.716  0.4652 -0.0750 -0.9625
   20MOL   O12614604   4.309   7.944   0.634 -0.0663  0.1261 -0.2875
   20MOL   C12714605   4.476   7.815   0.742 -0.5417  0.3747  0.1794
   20MOL   C12814606   4.571   7.811   0.842  0.0371  0.1778  0.3924
   20MOL   C12914607   4.652   7.697   0.863  0.5071  0.3066  0.7550
   20MOL   C13014608   4.620   7.582   0.785 -0.0516 -0.3779 -0.1408
   20MOL   C13114609   4.701   7.465   0.785 -1.7972  0.1270 -0.4817
   20MOL   O13214610   4.660   7.361   0.732 -0.2691 -0.2726 -0.3443
   20MOL   O13314611   4.814   7.481   0.850  0.5489  0.0614  0.5544
   20MOL   C13414612   4.517   7.584   0.687  0.2566  0.2245 -0.7958
   20MOL   C13514613   4.443   7.702   0.666 -0.3696  0.2558  0.0726
   20MOL   H13614614   4.166   0.007   0.906 -1.0212  2.5879 -0.4027
   20MOL   H13714615   4.307   7.992   1.009 -0.2810  0.1310 -1.1420
   20MOL   H13814616   4.219   0.080   1.205  0.1001  2.0906 -0.2399
   20MOL   H13914617   4.111   8.010   1.154  1.1518  0.1525  1.0736
   20MOL   H14014618   3.991   0.181   1.029  1.3266 -0.8396 -1.5688
   20MOL   H14114619   3.918   0.173   1.237  0.5108  0.0905  2.2304
   20MOL   H14214620   3.967   0.345   1.217  0.9193  0.4165  3.1577
   20MOL   H14314621   4.242   0.349   1.129  0.3422 -0.5888  0.5362
   20MOL   H14414622   4.102   0.409   1.052  0.9329  0.8572 -0.7383
   20MOL   H14514623   4.159   0.292   0.843 -0.0303 -1.0317 -0.0462
   20MOL   H14614624   4.287   0.384   0.896 -0.5116 -0.2612 -0.3474
   20MOL   H14714625   4.392   0.175   0.986  0.0723 -0.9120  1.2649
   20MOL   H14814626   4.422   0.221   0.750 -0.6717  0.9119  0.6934
   20MOL   H14914627   4.276   0.135   0.714  1.1502  0.5093 -1.7206
   20MOL   H15014628   4.595   7.902   0.896 -0.0476  0.0392  0.6638
   20MOL   H15114629   4.734   7.704   0.933 -1.6724  1.9557  3.2303
   20MOL   H15214630   4.497   7.497   0.626 -1.5465 -0.6326  0.9405
   20MOL   H15314631   4.360   7.698   0.597 -0.9093 -2.6844  0.8455
   20MOL   C15414632   5.145   7.237   1.123 -0.3335  0.2766 -0.6488
   20MOL   C15514633   5.082   7.248   0.985  0.5422 -0.0550  0.4613
   20MOL   C15614634   4.975   7.363   0.988 -0.1428 -0.0855  0.4004
   20MOL   C15714635   4.904   7.368   0.858 -0.6524 -0.3713 -0.2797
   20MOL   C15814636   4.872   7.323   1.095  0.1492  0.0890 -0.5825
   20MOL   C15914637   4.944   7.314   1.238 -0.4308  0.3392  0.3889
   20MOL   C16014638   5.054   7.210   1.242 -0.0407 -0.1802  0.1286
   20MOL   C16114639   5.127   7.212   1.382  0.0015  0.2184  0.3188
   20MOL   O16214640   5.219   7.108   1.374  0.4430  0.5264  0.2381
   20MOL   C16314641   5.289   7.077   1.482  0.1266  0.3868 -0.1011
   20MOL   O16414642   5.303   7.152   1.576  0.3397  0.0026  0.3978
   20MOL   C16514643   5.357   6.951   1.465 -0.4031 -0.1370  0.0230
   20MOL   C16614644   5.442   6.906   1.565  0.1043 -0.2826 -0.3133
   20MOL   C16714645   5.504   6.784   1.550 -0.2144 -0.2257  0.7047
   20MOL   C16814646   5.484   6.701   1.438 -0.4479 -0.5666 -0.1112
   20MOL   C16914647   5.546   6.569   1.438  0.6656  0.6391  0.1086
   20MOL   O17014648   5.511   6.492   1.350  0.3726 -0.0345 -0.2603
   20MOL   O17114649   5.635   6.547   1.531  0.1543  0.5787 -0.1892
   20MOL   C17214650   5.400   6.750   1.334  0.1886  0.2871  0.1529
   20MOL   C17314651   5.328   6.866   1.355  0.0214 -0.4557  0.4318
   20MOL   H17414652   5.194   7.333   1.137  0.9156 -0.5065  0.4611
   20MOL   H17514653   5.228   7.165   1.127 -0.6806 -0.1780 -1.4945
   20MOL   H17614654   5.053   7.150   0.947  0.5409 -0.0226  0.3754
   20MOL   H17714655   5.167   7.273   0.920  0.9746 -0.6673  0.7946
   20MOL   H17814656   5.022   7.460   1.007 -0.7747  0.5547 -1.2045
   20MOL   H17914657   4.866   7.268   0.839  0.8478 -1.1109  0.5524
   20MOL   H18014658   4.984   7.380   0.784  0.8426 -0.4515  1.3020
   20MOL   H18114659   4.830   7.225   1.072  3.8299 -1.9384  0.9236
   20MOL   H18214660   4.786   7.389   1.105  0.4005  0.2303  0.7714
   20MOL   H18314661   4.985   7.415   1.245 -3.3544  1.6019  0.0643
   20MOL   H18414662   4.868   7.304   1.316 -1.2720  4.5698  0.2403
   20MOL   H18514663   5.010   7.115   1.215 -0.4159  0.1797 -0.5388
   20MOL   H18614664   5.056   7.186   1.460  0.0253  0.8995  0.5659
   20MOL   H18714665   5.169   7.311   1.401 -0.5000  0.6838 -0.9267
   20MOL   H18814666   5.463   6.970   1.649 -0.0224  3.0251 -2.7197
   20MOL   H18914667   5.581   6.750   1.619  1.7065  0.7331 -0.9115
   20MOL   H19014668   5.378   6.700   1.240  2.8158  1.4969 -1.1754
   20MOL   H19114669   5.267   6.904   1.274  0.6653 -0.1588  0.0832
   20MOL   C19214670   5.814   6.528   1.914  0.3834  0.4609  0.3503
   20MOL   C19314671   5.716   6.501   1.798 -0.2897 -0.0653  0.0741
   20MOL   C19414672   5.786   6.434   1.680  0.1196 -0.1434 -1.2244
   20MOL   C19514673   5.684   6.421   1.569  0.2119 -0.2207 -0.1418
   20MOL   C19614674   5.911   6.510   1.636 -0.2110  0.4419 -0.0740
   20MOL   C19714675   6.005   6.520   1.758  0.4207  0.3904  0.6435
   20MOL   C19814676   5.944   6.599   1.868  0.0170 -0.2902 -0.1554
   20MOL   C19914677   6.038   6.615   1.983 -0.4086 -0.2058 -0.7936
   20MOL   O20014678   6.158   6.676   1.947  0.2218  0.4484  0.5227
   20MOL   C20114679   6.274   6.646   2.018  0.2089 -0.2851 -0.2284
   20MOL   O20214680   6.284   6.586   2.123 -0.5847  0.3237 -0.0277
   20MOL   C20314681   6.398   6.690   1.939  0.4776  0.2044  0.1243
   20MOL   C20414682   6.395   6.787   1.834 -0.5060 -0.6205 -0.1751
   20MOL   C20514683   6.518   6.821   1.770  0.4835  0.0029  0.6094
   20MOL   C20614684   6.639   6.757   1.797 -0.1881 -0.2431  0.6066
   20MOL   C20714685   6.770   6.788   1.725 -0.1233 -0.7239 -0.3675
   20MOL   O20814686   6.865   6.709   1.706 -0.7600  0.8327 -0.5128
   20MOL   O20914687   6.770   6.908   1.671  0.0097  0.4987  0.5717
   20MOL   C21014688   6.636   6.655   1.893  0.0256  0.5289 -0.5223
   20MOL   C21114689   6.518   6.626   1.969  0.5282 -0.2943  0.4173
   20MOL   H21214690   5.841   6.436   1.965  0.4227 -0.2415 -0.9022
   20MOL   H21314691   5.765   6.588   1.991  0.2785 -0.4246  0.9842
   20MOL   H21414692   5.681   6.599   1.764  2.8454  0.7155 -1.0582
   20MOL   H21514693   5.625   6.448   1.827 -0.2757 -1.2769 -1.9950
   20MOL   H21614694   5.821   6.336   1.710 -0.0255 -0.0038 -0.5839
   20MOL   H21714695   5.601   6.370   1.618  1.6388 -0.4996  2.0146
   20MOL   H21814696   5.715   6.378   1.474  0.0987 -0.4934 -0.0561
   20MOL   H21914697   5.893   6.608   1.591  1.2970  0.1636 -1.3002
   20MOL   H22014698   5.964   6.450   1.562  0.7330  1.8440 -0.5606
   20MOL   H22114699   6.025   6.422   1.801  2.8020  0.0070 -1.2182
   20MOL   H22214700   6.105   6.556   1.734  1.2443 -2.5481 -0.5260
   20MOL   H22314701   5.925   6.699   1.831 -1.9497 -1.0867 -1.3770
   20MOL   H22414702   6.064   6.520   2.029  0.0042  0.3534  0.1489
   20MOL   H22514703   6.000   6.676   2.065  1.3867  0.1050 -0.1534
   20MOL   H22614704   6.306   6.837   1.799 -0.8296 -1.3652 -0.4233
   20MOL   H22714705   6.516   6.888   1.684  0.3091 -1.8677 -0.8716
   20MOL   H22814706   6.722   6.593   1.916  0.0214  0.1362 -1.5519
   20MOL   H22914707   6.511   6.543   2.038 -2.2410  0.6655  1.3454
   20MOL   C23014708   7.115   7.104   1.866 -0.0408 -0.0631  0.4649
   20MOL   C23114709   7.019   7.008   1.805  0.2301 -0.3556  0.4691
   20MOL   C23214710   6.966   7.053   1.667  0.6256  0.4422 -0.1851
   20MOL   C23314711   6.880   6.947   1.590 -0.0538 -0.8304  0.1674
   20MOL   C23414712   6.893   7.186   1.677  0.9268  0.3413  0.2736
   20MOL   C23514713   6.983   7.295   1.757  0.4574 -0.2973  0.8525
   20MOL   C23614714   7.046   7.245   1.891 -0.3610  1.1120  0.5314
   20MOL   C23714715   7.132   7.349   1.960  0.4386  0.2168 -0.2761
   20MOL   O23814716   7.211   7.398   1.855  0.0567  0.4102  0.2439
   20MOL   C23914717   7.316   7.464   1.899 -0.3978  0.0956 -0.0573
   20MOL   O24014718   7.344   7.482   2.019 -0.1607 -0.1894 -0.7774
   20MOL   C24114719   7.402   7.520   1.792  0.1798 -0.2793  0.2545
   20MOL   C24214720   7.521   7.593   1.818 -0.8889  0.0024  0.5942
   20MOL   C24314721   7.615   7.625   1.716 -0.1707 -0.0946  0.0713
   20MOL   C24414722   7.585   7.583   1.580  0.4663 -0.4698  0.2401
   20MOL   C24514723   7.683   7.610   1.477 -0.2645 -0.5439 -0.2080
   20MOL   O24614724   7.763   7.708   1.489  0.0015 -0.3067  0.4307
   20MOL   O24714725   7.668   7.541   1.375  0.3149  0.0720  0.4739
   20MOL   C24814726   7.460   7.520   1.551  0.1155  0.0960  0.0479
   20MOL   C24914727   7.371   7.487   1.656  0.0792  0.1168  0.9001
   20MOL   H25014728   7.209   7.117   1.812 -0.2945 -0.9832 -0.2112
   20MOL   H25114729   7.134   7.050   1.960  2.0522 -1.2005 -0.5612
   20MOL   H25214730   6.929   7.000   1.865  1.8143 -0.9081  2.8367
   20MOL   H25314731   7.068   6.911   1.807 -0.7006 -0.8486 -0.1924
   20MOL   H25414732   7.056   7.062   1.607  0.0926 -0.7527 -1.1816
   20MOL   H25514733   6.946   6.866   1.558 -0.2460 -0.6242 -0.7616
   20MOL   H25614734   6.849   7.000   1.501  0.1831 -1.2131 -0.1463
   20MOL   H25714735   6.799   7.170   1.729  0.3197  1.2203 -0.5318
   20MOL   H25814736   6.878   7.212   1.572 -2.0752  1.8573  1.0249
   20MOL   H25914737   7.059   7.322   1.685  0.9715  0.7144  1.7457
   20MOL   H26014738   6.923   7.386   1.771  1.4516  0.7371 -1.4739
   20MOL   H26114739   6.967   7.233   1.964  0.7773 -1.5516  1.3660
   20MOL   H26214740   7.183   7.294   2.040  2.3859  1.0687 -0.9199
   20MOL   H26314741   7.066   7.426   2.000  2.0230  0.8846  1.1069
   20MOL   H26414742   7.548   7.612   1.920 -2.3702  1.2995  0.7733
   20MOL   H26514743   7.697   7.690   1.745  0.8251 -1.7084  0.8959
   20MOL   H26614744   7.431   7.491   1.451  3.8182 -0.3659 -0.9809
   20MOL   H26714745   7.278   7.437   1.632 -0.2273  0.3236  1.6369
   20MOL   C26814746   7.547   7.643   0.986  0.2687  0.5181 -0.1133
   20MOL   C26914747   7.622   7.652   1.116 -0.1078 -0.0666 -0.2120
   20MOL   C27014748   7.696   7.519   1.138  0.1357 -0.0894 -0.2483
   20MOL   C27114749   7.768   7.530   1.272 -0.2218  0.3325 -0.2663
   20MOL   C27214750   7.611   7.393   1.111 -0.3780 -0.3871  0.5478
   20MOL   C27314751   7.536   7.396   0.980 -0.2997  1.0932 -0.5479
   20MOL   C27414752   7.451   7.521   0.966 -0.4293  0.1988  0.2243
   20MOL   C27514753   7.381   7.524   0.828  0.7103 -0.1658 -0.4303
   20MOL   O27614754   7.288   7.638   0.827 -0.4634 -0.1657 -0.0249
   20MOL   C27714755   7.253   7.686   0.702  0.6492  0.4751  0.0650
   20MOL   O27814756   7.308   7.659   0.593 -0.2552  0.5864 -0.8577
   20MOL   C27914757   7.155   7.798   0.715 -0.1122 -1.2613 -0.0307
   20MOL   C28014758   7.093   7.827   0.839  0.1308  0.0373 -0.0748
   20MOL   C28114759   7.006   7.938   0.850  0.6788 -0.2679 -0.3324
   20MOL   C28214760   6.966   8.011   0.737  0.7341 -0.4833 -0.0958
   20MOL   C28314761   6.883   0.100   0.747 -0.4636 -0.1365  0.1748
   20MOL   O28414762   6.830   0.157   0.654 -0.0897  0.4110  0.1156
   20MOL   O28514763   6.867   0.138   0.875  0.1017 -0.4846  0.3700
   20MOL   C28614764   7.023   7.972   0.612 -0.0648 -0.4120  0.3700
   20MOL   C28714765   7.111   7.867   0.603  0.1487 -0.2348  0.2507
   20MOL   H28814766   7.624   7.654   0.910 -1.0625  1.5073 -1.3500
   20MOL   H28914767   7.488   7.735   0.977 -0.8773 -0.0896  1.0671
   20MOL   H29014768   7.556   7.665   1.202 -0.1498 -0.5974 -0.1610
   20MOL   H29114769   7.687   7.739   1.111 -1.2843  0.7641 -1.2735
   20MOL   H29214770   7.775   7.514   1.063 -0.2725 -0.5159 -0.6575
   20MOL   H29314771   7.845   7.607   1.273  1.7988 -1.6158 -1.8094
   20MOL   H29414772   7.817   7.434   1.289  0.3749  0.9986  2.0040
   20MOL   H29514773   7.543   7.383   1.196  0.6888  1.8959  1.7261
   20MOL   H29614774   7.684   7.313   1.125 -0.1912 -0.5170 -1.0171
   20MOL   H29714775   7.619   7.401   0.910 -0.4590  0.3559 -0.8000
   20MOL   H29814776   7.480   7.303   0.969  0.7576  0.8028 -4.0701
   20MOL   H29914777   7.376   7.519   1.046  0.0896 -0.2288  0.7032
   20MOL   H30014778   7.335   7.429   0.801  1.9386 -0.4826 -1.4408
   20MOL   H30114779   7.457   7.547   0.753  0.2215  0.1900 -0.8144
   20MOL   H30214780   7.121   7.769   0.926  1.5943  0.1142 -0.4803
   20MOL   H30314781   6.965   7.975   0.943  3.2861  1.0282  0.3399
   20MOL   H30414782   6.985   8.017   0.521 -1.0276  2.1443  1.9595
   20MOL   H30514783   7.146   7.836   0.506  0.2247  2.9750 -0.8050
   20MOL   C30614784   6.669   0.219   1.270  0.5157 -0.0423 -0.1074
   20MOL   C30714785   6.674   0.209   1.118 -0.3787 -0.6249  0.7322
   20MOL   C30814786   6.787   0.295   1.051 -0.8940  0.0557  0.6055
   20MOL   C30914787   6.808   0.266   0.894  0.2903 -0.5838 -0.1600
   20MOL   C31014788   6.758   0.444   1.081 -0.0944  0.2806  0.1618
   20MOL   C31114789   6.763   0.453   1.236  0.9532  0.8528  0.2709
   20MOL   C31214790   6.656   0.367   1.315  0.1338  0.1223 -0.8319
   20MOL   C31314791   6.682   0.377   1.468 -0.2140  0.5785  0.1560
   20MOL   O31414792   6.791   0.296   1.512  0.1233  0.1609  0.3326
   20MOL   C31514793   6.847   0.329   1.631  0.8976 -0.0758 -0.3587
   20MOL   O31614794   6.806   0.416   1.708 -0.0234 -0.4423 -0.1250
   20MOL   C31714795   6.972   0.252   1.656 -0.5022 -0.3881 -0.0794
   20MOL   C31814796   7.044   0.263   1.777  0.1580 -0.8974 -0.0544
   20MOL   C31914797   7.160   0.190   1.801  0.2420 -0.2854  0.2478
   20MOL   C32014798   7.201   0.092   1.706 -0.8221 -0.4063 -0.7314
   20MOL   C32114799   7.321   8.031   1.727 -0.0946  0.0602  0.5315
   20MOL   O32214800   7.339   7.943   1.646  0.1265  0.4133 -0.3487
   20MOL   O32314801   7.384   0.024   1.845  0.2866  0.4075 -0.1137
   20MOL   C32414802   7.123   0.073   1.591  0.2120  0.6305 -0.9504
   20MOL   C32514803   7.017   0.160   1.558  1.0555  0.3542 -0.2947
   20MOL   H32614804   6.753   0.164   1.310 -1.5131 -2.8288  0.4205
   20MOL   H32714805   6.581   0.165   1.305  0.0149 -0.4138 -1.8586
   20MOL   H32814806   6.580   0.232   1.068 -0.4909 -1.3666  0.5963
   20MOL   H32914807   6.698   0.107   1.088  0.6562 -0.3020  0.4400
   20MOL   H33014808   6.885   0.276   1.094 -0.1096  2.7262  0.1227
   20MOL   H33114809   6.864   0.352   0.858 -1.8752  0.1210 -1.9816
   20MOL   H33214810   6.711   0.269   0.844  0.4680  1.8405 -0.4159
   20MOL   H33314811   6.664   0.471   1.034 -2.0662 -1.9576  2.5782
   20MOL   H33414812   6.836   0.508   1.041 -0.4673  0.5187 -0.1802
   20MOL   H33514813   6.858   0.414   1.272 -0.5285 -0.4594  2.9063
   20MOL   H33614814   6.753   0.557   1.269  0.7865  0.1240  2.6429
   20MOL   H33714815   6.554   0.403   1.303 -0.7064 -1.2022  1.8568
   20MOL   H33814816   6.596   0.331   1.515 -0.9082  0.3756 -1.2835
   20MOL   H33914817   6.685   0.478   1.508 -1.2299  0.6988 -0.0712
   20MOL   H34014818   7.002   0.324   1.857 -2.7308 -0.3602 -1.8875
   20MOL   H34114819   7.218   0.205   1.891 -1.7752  0.1005  1.5058
   20MOL   H34214820   7.148   8.031   1.516 -1.2703 -1.0194  0.1393
   20MOL   H34314821   6.963   0.144   1.465  1.3719 -1.8565 -0.1271
   20MOL   C34414822   7.800   8.013   1.681 -0.2672  0.0088 -0.9824
   20MOL   C34514823   7.648   7.993   1.711 -0.0186  0.0430  0.4304
   20MOL   C34614824   7.625   8.009   1.864 -0.3152 -0.6985  0.5269
   20MOL   C34714825   7.483   7.975   1.904 -0.7844  0.3930  0.5707
   20MOL   C34814826   7.724   7.925   1.952 -0.3023 -0.6653 -0.5922
   20MOL   C34914827   7.866   7.948   1.914  0.0984  0.4299  0.1023
   20MOL   C35014828   7.886   7.910   1.763  1.0011  0.3410 -0.3774
   20MOL   C35114829   0.000   7.930   1.724  0.1039 -0.2237 -0.2321
   20MOL   O35214830   0.049   7.840   1.627 -0.2072  0.4976  0.2940
   20MOL   C35314831   0.053   7.871   1.497 -0.3232  0.0354 -0.4164
   20MOL   O35414832   0.016   7.981   1.454  0.0546  0.1748  0.6030
   20MOL   C35514833   0.091   7.761   1.405  0.4327  0.2989  0.4122
   20MOL   C35614834   0.090   7.624   1.455 -0.3175 -0.6242 -0.0838
   20MOL   C35714835   0.109   7.522   1.365  0.7115 -0.0347  0.7068
   20MOL   C35814836   0.154   7.544   1.234  0.7875 -0.4056 -0.1002
   20MOL   C35914837   0.188   7.419   1.149 -0.0257 -0.2511  0.2738
   20MOL   O36014838   0.141   7.311   1.180 -0.1705  0.3260  0.3165
   20MOL   O36114839   0.274   7.441   1.043  0.1412  0.2011  0.9481
   20MOL   C36214840   0.165   7.680   1.186 -0.0609 -0.4766 -0.2003
   20MOL   C36314841   0.130   7.788   1.270  0.0422  0.0911 -1.2407
   20MOL   H36414842   7.828   0.083   1.707 -2.3511  0.2608  0.3743
   20MOL   H36514843   7.808   7.999   1.573  3.1220  4.1526 -1.4135
   20MOL   H36614844   7.626   7.889   1.687 -2.0465  0.0245  2.2370
   20MOL   H36714845   7.581   0.021   1.650  0.2263 -1.3058 -1.2098
   20MOL   H36814846   7.648   0.083   1.882 -0.2770 -0.6111 -0.0310
   20MOL   H36914847   7.473   7.966   2.012  1.3593 -1.1324  0.6828
   20MOL   H37014848   7.468   7.872   1.872 -0.3563  0.7907 -0.9390
   20MOL   H37114849   7.695   7.820   1.942  2.1308 -1.2454 -2.1802
   20MOL   H37214850   7.722   7.947   2.058  4.0619 -0.2915 -0.4880
   20MOL   H37314851   7.885   0.018   1.949  1.2248 -0.4995  2.2637
   20MOL   H37414852   7.922   7.882   1.980 -1.4631 -1.4980 -0.4602
   20MOL   H37514853   7.857   7.807   1.739  1.5693 -0.2839  1.5107
   20MOL   H37614854   0.059   7.922   1.815  2.0306 -0.6973 -1.4934
   20MOL   H37714855   0.017   0.003   1.698 -1.2862  0.2771  0.8332
   20MOL   H37814856   0.062   7.607   1.558  1.6231  1.6259  0.8754
   20MOL   H37914857   0.083   7.421   1.391  0.3612  0.5552  2.7322
   20MOL   H38014858   0.210   7.701   1.090 -0.2570 -2.6993 -0.8015
   20MOL   H38114859   0.146   7.891   1.243 -0.2572  0.7621  1.0687
   20MOL   C38214860   0.064   7.519   0.648 -0.2765  0.1783 -0.6581
   20MOL   C38314861   0.085   7.435   0.776 -0.7385  0.5454 -0.1136
   20MOL   C38414862   0.237   7.412   0.807 -0.2343  0.2029  0.4741
   20MOL   C38514863   0.265   7.341   0.940 -0.0112  0.2552  0.2485
   20MOL   C38614864   0.313   7.345   0.693 -0.3909  0.8662 -0.5462
   20MOL   C38714865   0.281   7.415   0.559  0.4390 -0.0717 -0.3281
   20MOL   C38814866   0.133   7.438   0.534 -0.6624  0.1531  0.2124
   20MOL   C38914867   0.118   7.521   0.400 -0.3626 -0.1558 -0.5709
   20MOL   O39014868   0.166   7.448   0.286  0.4430 -0.3789 -0.6994
   20MOL   C39114869   0.252   7.504   0.207  0.4870 -0.5781  0.7876
   20MOL   O39214870   0.268   7.629   0.207  0.2621 -0.1030 -0.4901
   20MOL   C39314871   0.332   7.412   0.125  0.1368  0.3181 -0.3870
   20MOL   C39414872   0.351   7.276   0.163 -0.3092  0.7853 -0.2920
   20MOL   C39514873   0.431   7.191   0.083  0.9316  0.0673 -1.1422
   20MOL   C39614874   0.499   7.245   8.003  0.3023 -0.3647 -0.6828
   20MOL   C39714875   0.589   7.169   7.915 -0.1839  0.2329 -0.0460
   20MOL   O39814876   0.613   7.197   7.800 -0.3666  0.0438 -0.6198
   20MOL   O39914877   0.631   7.056   7.970  0.4516 -0.6222 -0.7305
   20MOL   C40014878   0.482   7.382   7.973  0.2209 -0.5942  0.3040
   20MOL   C40114879   0.402   7.469   0.017 -0.1689 -0.1837 -0.4424
   20MOL   H40214880   0.101   7.622   0.648 -1.9698  0.8076 -0.1942
   20MOL   H40314881   7.989   7.533   0.628 -0.6589 -2.0368 -0.2904
   20MOL   H40414882   0.037   7.337   0.783 -0.1392 -0.0652 -3.6510
   20MOL   H40514883   0.041   7.485   0.863  1.1191  1.4006  0.3642
   20MOL   H40614884   0.278   7.513   0.819 -0.5595  0.3794  0.0990
   20MOL   H40714885   0.362   7.291   0.938 -1.0491 -1.8468  0.3224
   20MOL   H40814886   0.195   7.262   0.968 -0.5938  0.3980 -0.7749
   20MOL   H40914887   0.286   7.240   0.679 -2.6842  0.8608  2.9988
   20MOL   H41014888   0.421   7.339   0.702 -0.4195 -0.6528 -1.0292
   20MOL   H41114889   0.331   7.512   0.557  0.2996 -0.0205 -1.3227
   20MOL   H41214890   0.323   7.370   0.469 -0.6018 -0.0862 -0.8135
   20MOL   H41314891   0.090   7.338   0.525 -1.8356  0.5200  1.6910
   20MOL   H41414892   0.167   7.617   0.414 -1.0789  0.1444 -0.0966
   20MOL   H41514893   0.014   7.542   0.375 -0.4625 -0.9173 -0.8301
   20MOL   H41614894   0.306   7.243   0.255  0.8218  3.1075  1.1512
   20MOL   H41714895   0.442   7.087   0.108 -1.5553 -0.1789 -0.8793
   20MOL   H41814896   0.535   7.434   7.895 -0.1439 -2.4232 -1.1939
   20MOL   H41914897   0.386   7.574   8.029  1.2193 -0.4347 -2.9921
   20MOL   C42014898   1.110   6.985   7.873 -0.3048  0.0887 -0.6426
   20MOL   C42114899   0.968   6.945   7.856  0.3063 -0.4053 -0.0065
   20MOL   C42214900   0.867   7.023   7.938 -0.2067 -0.1761 -0.4059
   20MOL   C42314901   0.725   6.973   7.913  0.0912 -0.1199  0.1655
   20MOL   C42414902   0.904   7.033   0.057  0.8481  0.1790 -0.3667
   20MOL   C42514903   1.049   7.085   0.068  0.3749 -0.1945  0.0033
   20MOL   C42614904   1.142   6.990   8.024  0.2837 -0.3565 -0.0990
   20MOL   C42714905   1.293   7.009   0.033 -0.2214  0.1362  0.5382
   20MOL   O42814906   1.330   6.994   0.166 -0.2015  0.2366  0.3732
   20MOL   C42914907   1.357   6.860   0.201 -0.0289  0.4453 -0.9192
   20MOL   O43014908   1.373   6.770   0.118  0.3481  0.1382  0.0784
   20MOL   C43114909   1.371   6.840   0.354  0.1542  0.0290  0.2563
   20MOL   C43214910   1.387   6.941   0.456 -1.3698  0.1041  0.5852
   20MOL   C43314911   1.411   6.910   0.591 -0.8872 -0.1817  0.3685
   20MOL   C43414912   1.431   6.775   0.632  0.5478 -0.6466 -0.0437
   20MOL   C43514913   1.441   6.732   0.772  0.0696  0.2554  0.8910
   20MOL   O43614914   1.436   6.615   0.810 -0.4112 -0.1530  0.0403
   20MOL   O43714915   1.458   6.839   0.848 -0.2405  0.0471 -0.1280
   20MOL   C43814916   1.417   6.673   0.531  0.6936  0.6915 -0.0174
   20MOL   C43914917   1.378   6.707   0.396 -0.2085  0.6066 -0.7880
   20MOL   H44014918   1.134   7.086   7.836  1.6782  1.0177  2.9843
   20MOL   H44114919   1.187   6.923   7.826 -0.2702  0.7385 -1.4768
   20MOL   H44214920   0.959   6.840   7.882  1.5562 -0.3628  0.6078
   20MOL   H44314921   0.958   6.958   7.748  1.2969 -0.6810 -0.1371
   20MOL   H44414922   0.870   7.125   7.900  1.1498 -0.6680 -1.6532
   20MOL   H44514923   0.714   6.870   7.948  0.5679  0.7377  2.9470
   20MOL   H44614924   0.715   6.963   7.805  3.2430  0.0743 -0.1849
   20MOL   H44714925   0.919   6.943   0.118  1.3968  1.9121  2.1380
   20MOL   H44814926   0.841   7.100   0.117  0.5133 -0.4383 -0.0175
   20MOL   H44914927   1.052   7.191   0.043 -1.5174  0.2325  1.4198
   20MOL   H45014928   1.055   7.092   0.177 -4.1385  2.1564  0.2398
   20MOL   H45114929   1.131   6.889   0.031  0.2826 -0.0632  0.6868
   20MOL   H45214930   1.307   7.114   0.004 -1.7813 -0.1698 -1.4533
   20MOL   H45314931   1.357   6.948   8.002 -1.7153  1.0704 -1.9754
   20MOL   H45414932   1.391   7.045   0.426 -1.1159 -0.2205 -0.5314
   20MOL   H45514933   1.430   6.995   0.655 -0.1093  0.3562 -0.5654
   20MOL   H45614934   1.430   6.572   0.567 -0.6814  0.7541  0.6830
   20MOL   H45714935   1.370   6.629   0.322  2.4604  0.5518 -1.0487
   20MOL   C45814936   1.709   7.059   1.168 -0.5647 -0.0669 -0.7035
   20MOL   C45914937   1.650   6.955   1.058 -1.0910 -0.9326 -0.9642
   20MOL   C46014938   1.493   6.939   1.077  0.0708  0.1178 -0.4355
   20MOL   C46114939   1.444   6.820   0.989  0.1661  0.1278 -0.2185
   20MOL   C46214940   1.475   6.885   1.223 -0.8229 -0.2660  0.8953
   20MOL   C46314941   1.529   6.979   1.330 -0.5207 -0.8808  0.0356
   20MOL   C46414942   1.677   7.012   1.315 -0.1214 -0.5665  0.2959
   20MOL   C46514943   1.734   7.098   1.423  0.5024 -0.3484 -0.2092
   20MOL   O46614944   1.878   7.114   1.420  0.2319  0.1866 -0.3090
   20MOL   C46714945   1.933   7.194   1.509 -0.2396 -0.8039  0.6168
   20MOL   O46814946   1.872   7.252   1.593  0.1588 -0.9009  0.2916
   20MOL   C46914947   2.076   7.184   1.511  0.0977 -0.3162  0.2060
   20MOL   C47014948   2.140   7.122   1.403 -0.0253 -0.0863  0.1983
   20MOL   C47114949   2.285   7.107   1.412 -0.3387 -0.1885 -0.1711
   20MOL   C47214950   2.354   7.175   1.518 -0.0916  0.5694 -0.1658
   20MOL   C47314951   2.501   7.163   1.534 -0.2652  0.4652 -0.2084
   20MOL   O47414952   2.555   7.188   1.640 -0.0305  0.1431  0.2487
   20MOL   O47514953   2.563   7.119   1.430  0.2661 -0.1981  0.2792
   20MOL   C47614954   2.285   7.248   1.617 -0.5220 -0.1330  0.4926
   20MOL   C47714955   2.143   7.246   1.624 -0.3656 -0.7073  0.3714
   20MOL   H47814956   1.665   7.158   1.153  2.6622  1.5726  0.2396
   20MOL   H47914957   1.817   7.069   1.163 -0.4438  1.5979  3.5689
   20MOL   H48014958   1.706   6.862   1.067  2.8941  1.4404  0.2404
   20MOL   H48114959   1.671   6.985   0.956 -0.3368 -3.0221 -1.4443
   20MOL   H48214960   1.430   7.028   1.069 -2.1281 -1.2936  0.7097
   20MOL   H48314961   1.340   6.793   1.006  0.4063  0.5235  1.9566
   20MOL   H48414962   1.504   6.736   1.023  0.1095 -0.3387 -1.2580
   20MOL   H48514963   1.536   6.795   1.229 -0.6110 -0.2053 -0.1497
   20MOL   H48614964   1.371   6.859   1.240 -1.2413  0.9316  0.2157
   20MOL   H48714965   1.471   7.071   1.341  0.9299  0.1181 -0.4793
   20MOL   H48814966   1.505   6.935   1.427  0.9756 -0.7105  0.4946
   20MOL   H48914967   1.721   6.913   1.310 -0.9514 -0.9255 -0.0504
   20MOL   H49014968   1.716   7.047   1.517 -1.7158  0.5723 -0.1128
   20MOL   H49114969   1.687   7.196   1.423 -2.6451 -1.7824  2.2341
   20MOL   H49214970   2.094   7.064   1.324 -0.5947  1.4763 -0.6643
   20MOL   H49314971   2.347   7.051   1.343  0.2308  0.5701 -0.2753
   20MOL   H49414972   2.348   7.301   1.687 -0.7486  0.2990  0.3714
   20MOL   H49514973   2.084   7.291   1.703 -1.1529  1.7054 -1.5453
   20MOL   C49614974   2.837   7.173   1.083  0.0517 -0.3437 -0.2643
   20MOL   C49714975   2.763   7.200   1.219 -0.0228 -0.0800  0.7425
   20MOL   C49814976   2.761   7.071   1.302 -0.2513 -0.1990  0.2886
   20MOL   C49914977   2.698   7.082   1.440  0.9672  0.5428 -0.5544
   20MOL   C50014978   2.685   6.966   1.219  0.2824 -0.0338 -0.0349
   20MOL   C50114979   2.752   6.937   1.084 -0.1777 -0.4810 -0.1462
   20MOL   C50214980   2.766   7.060   1.000 -0.1421  0.1456  0.3558
   20MOL   C50314981   2.851   7.030   0.871 -0.3034  0.3288 -0.2707
   20MOL   O50414982   2.802   6.902   0.813 -0.0998  0.1417  0.0246
   20MOL   C50514983   2.831   6.875   0.684 -0.9040  0.0220 -0.2643
   20MOL   O50614984   2.908   6.948   0.621 -0.1050 -0.1810 -0.9867
   20MOL   C50714985   2.758   6.763   0.628 -0.3796  0.3345 -0.2062
   20MOL   C50814986   2.797   6.722   0.498  0.0525 -0.2888  0.1538
   20MOL   C50914987   2.727   6.612   0.443 -0.0155 -0.3505 -0.2447
   20MOL   C51014988   2.628   6.539   0.514  0.3171  0.3627  0.2775
   20MOL   C51114989   2.542   6.430   0.449  0.2027 -1.5167 -0.0949
   20MOL   O51214990   2.470   6.357   0.512 -0.4017  0.3110 -0.6881
   20MOL   O51314991   2.567   6.417   0.321  0.4823 -0.2308 -0.2080
   20MOL   C51414992   2.591   6.584   0.639 -0.0851  0.5171 -0.3530
   20MOL   C51514993   2.650   6.697   0.690  0.5897 -0.1487  0.9787
   20MOL   H51614994   2.944   7.155   1.095  0.1802  0.4984 -0.0887
   20MOL   H51714995   2.822   7.266   1.028 -0.1913  0.5995  1.3433
   20MOL   H51814996   2.666   7.235   1.183 -1.1465 -3.1918  0.5770
   20MOL   H51914997   2.801   7.283   1.278 -0.0711  0.1928  0.3953
   20MOL   H52014998   2.861   7.029   1.308 -0.6136 -0.9123  1.6346
   20MOL   H52114999   2.770   7.133   1.505  0.6247 -0.2706  0.4972
   20MOL   H52215000   2.685   6.980   1.477 -2.0805 -0.0886 -3.1925
   20MOL   H52315001   2.583   7.003   1.207 -1.1401 -3.1366  1.8133
   20MOL   H52415002   2.679   6.877   1.282 -3.7611  0.4487  0.3917
   20MOL   H52515003   2.852   6.909   1.117 -0.0604  0.0551 -0.0436
   20MOL   H52615004   2.702   6.859   1.026 -0.7863 -0.3259  0.1769
   20MOL   H52715005   2.666   7.097   0.977  0.3057  0.7674 -0.6538
   20MOL   H52815006   2.958   7.020   0.892 -0.9002 -0.6105  2.5985
   20MOL   H52915007   2.848   7.118   0.807 -1.0180  0.2102 -0.3991
   20MOL   H53015008   2.879   6.770   0.446 -0.3241  0.7729  0.5168
   20MOL   H53115009   2.760   6.583   0.345  1.0002 -0.2703  0.0725
   20MOL   H53215010   2.510   6.531   0.687  2.6907 -2.0862  1.6979
   20MOL   H53315011   2.606   6.739   0.780 -1.0115 -0.2093  0.2441
   20MOL   C53415012   2.546   6.352   7.901  0.3064 -0.5136 -0.2936
   20MOL   C53515013   2.499   6.374   0.013 -0.1079  0.0568 -0.4214
   20MOL   C53615014   2.584   6.290   0.116 -0.1837 -0.2805  0.2514
   20MOL   C53715015   2.532   6.296   0.256 -0.3037 -0.1648  0.3963
   20MOL   C53815016   2.581   6.140   0.077  0.1143 -0.0287 -0.1472
   20MOL   C53915017   2.624   6.118   7.969  0.3118 -0.3053  0.4429
   20MOL   C54015018   2.531   6.201   7.878 -0.8415  0.2691 -0.6090
   20MOL   C54115019   2.557   6.169   7.729 -0.2657 -0.4616 -0.3065
   20MOL   O54215020   2.687   6.213   7.693 -0.4620  0.2913  0.0311
   20MOL   C54315021   2.722   6.227   7.568 -0.0835 -0.4387 -0.6549
   20MOL   O54415022   2.642   6.187   7.479  0.3690  0.2236  0.0025
   20MOL   C54515023   2.854   6.294   7.541 -0.6296  0.5346 -0.5802
   20MOL   C54615024   2.886   6.326   7.408 -0.3781 -0.2274 -0.3641
   20MOL   C54715025   3.009   6.405   7.389 -0.6088  0.2673  0.2929
   20MOL   C54815026   3.083   6.448   7.500 -0.7839  0.2000 -0.3895
   20MOL   C54915027   3.205   6.531   7.473  0.5848 -0.2177  0.3515
   20MOL   O55015028   3.252   6.548   7.365  0.0731  0.2487 -0.2514
   20MOL   O55115029   3.267   6.570   7.585  0.0350 -0.1352 -0.0288
   20MOL   C55215030   3.044   6.412   7.634 -0.5900  0.0003  0.0202
   20MOL   C55315031   2.930   6.335   7.651 -0.7970 -0.2743  0.5097
   20MOL   H55415032   2.652   6.376   7.888  0.4029 -1.4594 -1.2662
   20MOL   H55515033   2.487   6.418   7.837 -0.7031 -2.5219 -1.4536
   20MOL   H55615034   2.396   6.339   0.021 -0.3377  0.7820 -0.1624
   20MOL   H55715035   2.503   6.480   0.041 -1.6579 -0.4534  1.8312
   20MOL   H55815036   2.685   6.331   0.118  0.7192 -2.1667 -3.0046
   20MOL   H55915037   2.575   6.209   0.305  2.1485 -0.0312 -1.3579
   20MOL   H56015038   2.424   6.289   0.256 -0.2874 -0.4379  2.2014
   20MOL   H56115039   2.483   6.094   0.081  1.4079 -2.9009  0.0299
   20MOL   H56215040   2.641   6.084   0.150 -2.2120  0.2969  2.0705
   20MOL   H56315041   2.729   6.139   7.948  0.6784 -1.1789  1.3776
   20MOL   H56415042   2.621   6.013   7.941 -0.9327 -0.1134 -0.2023
   20MOL   H56515043   2.424   6.183   7.894 -0.9793 -1.0211 -2.8157
   20MOL   H56615044   2.487   6.234   7.677  0.3913  1.5498  1.2531
   20MOL   H56715045   2.541   6.067   7.694 -0.2986 -0.5176 -0.1318
   20MOL   H56815046   2.833   6.282   7.325 -1.4489  0.5341 -0.0890
   20MOL   H56915047   3.046   6.427   7.290  0.6181  0.1162  0.7088
   20MOL   H57015048   3.103   6.448   7.717 -0.2279  1.5059 -0.8668
   20MOL   H57115049   2.897   6.310   7.750 -0.3606 -1.2406  0.4137
   20MOL   C57215050   3.349   6.999   7.717 -0.0254  0.7630 -0.5635
   20MOL   C57315051   3.335   6.848   7.720 -0.6079 -0.1027  1.0336
   20MOL   C57415052   3.383   6.784   7.588  0.6905 -0.3065 -0.1781
   20MOL   C57515053   3.392   6.634   7.580  0.1278 -0.1770 -0.7936
   20MOL   C57615054   3.311   6.854   7.473  0.2036  0.1674  0.5977
   20MOL   C57715055   3.347   7.000   7.468 -1.2405  0.0314 -0.7204
   20MOL   C57815056   3.289   7.071   7.589  0.6552  0.6143 -0.0830
   20MOL   C57915057   3.314   7.224   7.592 -0.4088  0.2998  0.3911
   20MOL   O58015058   3.275   7.278   7.463 -0.5697 -0.2604 -0.3716
   20MOL   C58115059   3.151   7.292   7.430 -0.7395 -0.5143 -0.5144
   20MOL   O58215060   3.063   7.250   7.503 -0.0451  0.1193  0.3999
   20MOL   C58315061   3.130   7.356   7.290 -0.4911 -0.0614 -0.3846
   20MOL   C58415062   3.234   7.375   7.190 -0.1016 -0.1163 -0.5113
   20MOL   C58515063   3.205   7.427   7.064  0.0730 -0.3168  0.0920
   20MOL   C58615064   3.076   7.463   7.032  0.3415  0.2404  0.2728
   20MOL   C58715065   3.040   7.525   6.902 -0.1705  0.6367  0.2556
   20MOL   O58815066   2.930   7.579   6.883  0.5210 -0.2553 -0.5564
   20MOL   O58915067   3.133   7.503   6.811  0.1706  0.6089  0.4052
   20MOL   C59015068   2.972   7.445   7.126 -0.1364 -0.4646 -0.0502
   20MOL   C59115069   2.995   7.389   7.251  0.0016  0.4905 -0.0143
   20MOL   H59215070   3.456   7.014   7.725  0.0692 -0.5934  1.1269
   20MOL   H59315071   3.314   7.036   7.814 -1.9628 -0.1184 -0.8866
   20MOL   H59415072   3.227   6.832   7.719 -0.3876 -1.6185 -0.8125
   20MOL   H59515073   3.370   6.806   7.814  0.5917 -0.2281  0.5335
   20MOL   H59615074   3.487   6.818   7.583  0.5068  0.2360 -0.3468
   20MOL   H59715075   3.441   6.599   7.671  0.2772 -0.4806 -0.9879
   20MOL   H59815076   3.450   6.597   7.496 -1.1585 -1.3590 -1.1841
   20MOL   H59915077   3.206   6.838   7.494  0.3568  0.0721  1.2914
   20MOL   H60015078   3.338   6.800   7.382 -0.6145 -2.4005  1.8396
   20MOL   H60115079   3.451   7.015   7.439 -2.1109  3.9238 -2.0740
   20MOL   H60215080   3.294   7.030   7.378 -1.4513  0.3862 -0.4790
   20MOL   H60315081   3.182   7.051   7.593  1.2838 -2.8003  1.7997
   20MOL   H60415082   3.419   7.243   7.610 -0.0050 -1.2762 -0.1571
   20MOL   H60515083   3.256   7.270   7.671  0.9724  0.5988  1.2348
   20MOL   H60615084   3.332   7.342   7.222 -0.4173 -0.8933 -0.3290
   20MOL   H60715085   3.287   7.434   6.994  0.5964 -1.2038  0.6117
   20MOL   H60815086   2.870   7.468   7.099 -0.9626 -1.6251  1.9330
   20MOL   H60915087   2.912   7.369   7.317  0.8160 -0.4622  0.7627
   20MOL   C61015088   2.900   7.243   6.541  0.5127 -1.0732 -0.0917
   20MOL   C61115089   2.937   7.355   6.639 -0.7565  0.0488  0.3357
   20MOL   C61215090   3.073   7.413   6.596 -0.2581  0.1995 -0.3678
   20MOL   C61315091   3.109   7.532   6.677 -0.3513  0.5531  0.3877
   20MOL   C61415092   3.183   7.305   6.606  0.7467 -0.6342  0.2840
   20MOL   C61515093   3.148   7.187   6.516 -0.2847 -0.6418  0.9159
   20MOL   C61615094   3.003   7.135   6.536 -0.2208 -0.2632  0.0906
   20MOL   C61715095   2.966   7.032   6.433  0.5103  0.4634  0.5377
   20MOL   O61815096   2.845   6.970   6.476 -0.5134  0.2894 -0.2941
   20MOL   C61915097   2.790   6.862   6.426  0.1901 -0.0034  0.2741
   20MOL   O62015098   2.842   6.785   6.344  0.3778  0.1013  0.7990
   20MOL   C62115099   2.646   6.840   6.484  0.5417  0.0721  0.2512
   20MOL   C62215100   2.573   6.935   6.568  0.5748 -0.5138  0.7820
   20MOL   C62315101   2.436   6.916   6.597 -0.5520  0.4210  0.3614
   20MOL   C62415102   2.374   6.797   6.548 -0.0449 -0.0695 -0.4707
   20MOL   C62515103   2.228   6.768   6.577  0.2784 -0.8646  0.0682
   20MOL   O62615104   2.168   6.670   6.531 -0.5304 -0.4511 -0.0933
   20MOL   O62715105   2.176   6.860   6.667  0.3434  0.0632  0.1366
   20MOL   C62815106   2.446   6.704   6.474 -0.3812  0.2665  0.0087
   20MOL   C62915107   2.576   6.725   6.435 -0.3694  0.0297  0.1384
   20MOL   H63015108   2.910   7.282   6.439  0.8604 -1.4585 -0.2041
   20MOL   H63115109   2.800   7.202   6.556  1.1074 -3.0103 -1.2134
   20MOL   H63215110   2.946   7.310   6.738  2.4455 -0.0110  0.0911
   20MOL   H63315111   2.856   7.428   6.635  0.2030  1.0967 -0.2941
   20MOL   H63415112   3.059   7.453   6.496 -0.4047 -0.3085 -0.5474
   20MOL   H63515113   3.026   7.602   6.663 -1.5970 -1.2951 -1.8346
   20MOL   H63615114   3.193   7.583   6.629 -0.7952  1.2954  0.3794
   20MOL   H63715115   3.182   7.276   6.711  0.6862 -0.5483  0.3069
   20MOL   H63815116   3.276   7.358   6.587  0.2607  1.9016  4.3573
   20MOL   H63915117   3.147   7.209   6.409  0.2845  1.3644  1.3053
   20MOL   H64015118   3.225   7.110   6.523  0.4412  0.1866  2.2148
   20MOL   H64115119   3.000   7.080   6.630 -0.7942 -0.2353  0.0897
   20MOL   H64215120   3.051   6.964   6.422 -0.0847 -0.3481  0.9037
   20MOL   H64315121   2.945   7.067   6.332  1.4852 -0.6442 -0.0611
   20MOL   H64415122   2.630   7.021   6.600  0.7554  0.2289 -1.4320
   20MOL   H64515123   2.381   6.991   6.651  1.8406  1.7774  0.9823
   20MOL   H64615124   2.400   6.612   6.441 -1.1986  1.1384 -1.2978
   20MOL   H64715125   2.621   6.653   6.369  1.0218  0.3800  0.6772
   20MOL   C64815126   1.922   6.675   7.050  0.1835  0.3730  0.0504
   20MOL   C64915127   1.925   6.760   6.923  0.5142 -0.1872  0.7114
   20MOL   C65015128   2.057   6.740   6.842 -1.0177 -0.0993 -0.5794
   20MOL   C65115129   2.048   6.831   6.719  0.5320  0.0726 -0.3391
   20MOL   C65215130   2.173   6.762   6.943  0.0781  0.6761  0.2139
   20MOL   C65315131   2.166   6.658   7.057  0.6298 -0.3439 -0.3744
   20MOL   C65415132   2.038   6.668   7.143  0.8405 -0.4382 -0.5548
   20MOL   C65515133   2.042   6.541   7.241  0.6766 -0.1129  0.4437
   20MOL   O65615134   1.927   6.560   7.319  0.5734  0.1264 -0.4602
   20MOL   C65715135   1.882   6.475   7.412 -0.3336  0.4151  0.8224
   20MOL   O65815136   1.941   6.367   7.438 -0.7022  0.7862  0.2052
   20MOL   C65915137   1.768   6.528   7.491 -0.9032 -0.4001  0.8549
   20MOL   C66015138   1.728   6.661   7.478  0.3242 -0.2962 -1.1174
   20MOL   C66115139   1.609   6.712   7.548 -0.3640 -0.2520 -0.2583
   20MOL   C66215140   1.537   6.629   7.636 -0.2045 -0.3687  0.1135
   20MOL   C66315141   1.410   6.674   7.704  0.7390 -0.3377  0.4612
   20MOL   O66415142   1.371   6.788   7.682  0.5134 -0.4256 -0.4446
   20MOL   O66515143   1.342   6.581   7.776  0.4631 -0.4226 -0.5870
   20MOL   C66615144   1.573   6.492   7.645 -0.5274  0.4190 -0.8516
   20MOL   C66715145   1.691   6.443   7.577 -1.0791  0.3345 -0.6668
   20MOL   H66815146   1.894   6.576   7.013  0.4199  0.9481 -1.6759
   20MOL   H66915147   1.836   6.694   7.115 -0.8989 -1.3224 -0.8397
   20MOL   H67015148   1.923   6.864   6.954 -0.0354  0.0100  0.0277
   20MOL   H67115149   1.846   6.731   6.854  3.5789 -1.5824 -2.3816
   20MOL   H67215150   2.067   6.636   6.814 -0.1447  0.1187 -1.1052
   20MOL   H67315151   2.014   6.930   6.751  0.6439  0.7494 -2.2441
   20MOL   H67415152   1.978   6.787   6.648  0.9410  0.9850 -1.3243
   20MOL   H67515153   2.160   6.867   6.969 -1.4773  0.5907 -0.1239
   20MOL   H67615154   2.269   6.764   6.893 -0.4404 -2.0341 -1.0002
   20MOL   H67715155   2.184   6.557   7.022  0.1583 -0.8331  0.7836
   20MOL   H67815156   2.254   6.678   7.119  2.2172  0.6591 -2.8731
   20MOL   H67915157   2.037   6.769   7.185 -1.8779 -0.2531 -0.9750
   20MOL   H68015158   2.124   6.554   7.312 -1.3384 -0.8714  2.9891
   20MOL   H68115159   2.048   6.448   7.184  0.2188  0.1556 -0.0448
   20MOL   H68215160   1.766   6.734   7.409  0.7118  2.3366  1.7514
   20MOL   H68315161   1.580   6.815   7.534  1.1396  0.0999 -0.9787
   20MOL   H68415162   1.517   6.418   7.699  0.0580  0.8463  0.3737
   20MOL   H68515163   1.714   6.338   7.583 -2.1155  0.0610 -1.3932
   20MOL   C68615164   1.149   6.292   0.025  0.1571 -0.8432  0.0001
   20MOL   C68715165   1.180   6.373   7.926  0.3442  0.7843  0.2250
   20MOL   C68815166   1.190   6.521   7.961 -0.4046  0.1599  0.4070
   20MOL   C68915167   1.220   6.614   7.842 -0.1626 -0.0400  0.0076
   20MOL   C69015168   1.068   6.571   0.008 -0.4374  0.3060  0.5204
   20MOL   C69115169   1.031   6.490   0.136 -0.7344  0.0762 -0.2918
   20MOL   C69215170   1.025   6.336   0.099 -0.1125 -0.2019  0.6600
   20MOL   C69315171   0.993   6.240   0.212  0.6315 -0.2638  0.3446
   20MOL   O69415172   1.096   6.241   0.308  0.2941 -0.7820 -0.2665
   20MOL   C69515173   1.116   6.159   0.415 -0.6252  0.1796  0.0451
   20MOL   O69615174   1.036   6.069   0.448 -0.4449 -0.2683  1.0088
   20MOL   C69715175   1.235   6.198   0.492 -0.7119  0.1194 -0.5360
   20MOL   C69815176   1.239   6.143   0.622  0.1783 -0.1235  0.0792
   20MOL   C69915177   1.351   6.171   0.706  0.4781  0.3882 -0.1678
   20MOL   C70015178   1.462   6.246   0.666  0.0255  0.2775  0.4503
   20MOL   C70115179   1.575   6.278   0.758  0.2139 -0.1093  0.3889
   20MOL   O70215180   1.671   6.344   0.718  0.3892  0.7873 -0.0804
   20MOL   O70315181   1.552   6.231   0.873 -0.0185  0.6511 -0.0602
   20MOL   C70415182   1.453   6.303   0.536 -0.2970 -0.1893  0.4437
   20MOL   C70515183   1.347   6.281   0.451  0.5154  0.9365 -0.1770
   20MOL   H70615184   1.240   6.305   0.083 -0.5475  1.4956  0.6424
   20MOL   H70715185   1.146   6.184   0.006 -3.7061 -1.1334  1.6345
   20MOL   H70815186   1.106   6.354   7.848 -0.4267  0.1250  1.1103
   20MOL   H70915187   1.280   6.346   7.893  0.9664  1.8487  1.2158
   20MOL   H71015188   1.278   6.532   8.024 -0.5460  3.8838  0.0513
   20MOL   H71115189   1.209   6.718   7.872 -1.5328 -0.4310  0.8847
   20MOL   H71215190   1.148   6.602   7.761  1.8772  1.7772 -2.1338
   20MOL   H71315191   0.981   6.570   7.975 -0.7195  0.3663  0.8974
   20MOL   H71415192   1.079   6.678   0.024 -1.8706  0.6441 -0.7228
   20MOL   H71515193   1.109   6.496   0.212 -0.4629  1.9114 -0.6952
   20MOL   H71615194   0.940   6.533   0.177  0.3722  1.6011  0.6249
   20MOL   H71715195   0.937   6.336   0.034 -0.5843  1.4629  1.2634
   20MOL   H71815196   0.992   6.137   0.178 -0.8809 -0.4220  0.8142
   20MOL   H71915197   0.903   6.276   0.262  1.4421 -1.1918  2.5158
   20MOL   H72015198   1.172   6.071   0.665  1.8236 -0.5878  1.9496
   20MOL   H72115199   1.352   6.107   0.793 -0.6748  0.9714  0.2694
   20MOL   H72215200   1.519   6.385   0.515  0.9488 -0.7055  2.1584
   20MOL   H72315201   1.346   6.334   0.357  0.3622  0.0957 -0.6648
   20MOL   C72415202   1.439   6.488   1.290  0.2880  0.0014 -0.6907
   20MOL   C72515203   1.552   6.413   1.210  0.4922 -0.1865 -0.3343
   20MOL   C72615204   1.508   6.371   1.066  0.0062 -0.2672 -0.5840
   20MOL   C72715205   1.614   6.297   0.983 -0.2126  1.2662  0.1674
   20MOL   C72815206   1.379   6.295   1.068 -0.6286  0.4849 -0.0837
   20MOL   C72915207   1.270   6.370   1.148  0.3314  0.8749 -0.5199
   20MOL   C73015208   1.310   6.404   1.292 -0.2794 -0.5191  0.3537
   20MOL   C73115209   1.187   6.460   1.370 -0.1958  0.2490  0.1988
   20MOL   O73215210   1.111   6.554   1.297 -0.4209 -0.1268 -0.4239
   20MOL   C73315211   1.125   6.685   1.316 -0.0564 -0.3445 -0.0355
   20MOL   O73415212   1.200   6.729   1.403 -0.1871 -0.6785  0.7206
   20MOL   C73515213   1.041   6.766   1.222  0.3001  0.3023 -0.3130
   20MOL   C73615214   1.046   6.909   1.236 -0.2090  0.9421  0.6459
   20MOL   C73715215   0.978   6.994   1.154  0.5695  0.0174  0.5301
   20MOL   C73815216   0.899   6.942   1.050 -0.1562  0.2734 -0.4106
   20MOL   C73915217   0.834   7.039   0.952  0.3187  0.3131 -0.0145
   20MOL   O74015218   0.859   7.162   0.946 -0.3829  0.1968 -0.0339
   20MOL   O74115219   0.736   6.978   0.882  0.4530  0.3789  0.2498
   20MOL   C74215220   0.880   6.802   1.042 -0.0797 -0.7364  0.4795
   20MOL   C74315221   0.952   6.714   1.129 -0.6147  0.3993  0.2870
   20MOL   H74415222   1.426   6.589   1.250 -0.3567  0.0643 -0.3146
   20MOL   H74515223   1.459   6.498   1.397 -0.8163  0.6485 -0.5410
   20MOL   H74615224   1.580   6.313   1.247  2.3635  0.2512 -0.4939
   20MOL   H74715225   1.640   6.477   1.218 -0.7006  1.3810  0.4810
   20MOL   H74815226   1.494   6.466   1.014  1.3435 -0.9837 -2.3094
   20MOL   H74915227   1.663   6.217   1.039 -0.8213 -1.3501 -2.8655
   20MOL   H75015228   1.701   6.354   0.949  1.7439 -1.0991  1.0160
   20MOL   H75115229   1.389   6.194   1.109  0.6907  0.8867  0.6092
   20MOL   H75215230   1.338   6.284   0.968 -1.8429 -0.9401  0.5339
   20MOL   H75315231   1.259   6.468   1.102  0.3891  1.4516  0.6607
   20MOL   H75415232   1.180   6.309   1.154  2.2505 -2.0974 -0.8359
   20MOL   H75515233   1.339   6.310   1.338  0.3280 -0.6474 -0.2842
   20MOL   H75615234   1.221   6.497   1.467 -0.5951  0.8254  0.1255
   20MOL   H75715235   1.123   6.377   1.399 -2.2502  1.4049 -0.9085
   20MOL   H75815236   1.111   6.947   1.314 -1.1386 -0.6464  2.2462
   20MOL   H75915237   0.988   7.101   1.162 -1.2459  0.4984 -2.8010
   20MOL   H76015238   0.825   6.765   0.956 -0.2348  1.2455 -0.3057
   20MOL   H76115239   0.948   6.607   1.117  1.5314  0.0857  2.1105
   20MOL   H76215240   0.690   7.033   0.820 -0.0080  1.4514  1.5094
   21MOL     C115241   6.110   3.599   6.198  0.1278  0.0974 -0.3263
   21MOL     C215242   6.151   3.555   6.335  0.8981 -0.4346 -0.4718
   21MOL     C315243   6.161   3.677   6.423  0.4630  0.3919 -0.2761
   21MOL     C415244   6.194   3.657   6.569 -0.0583 -0.0786  0.2281
   21MOL     C515245   6.263   3.776   6.370  0.3720  0.1002 -0.5883
   21MOL     C615246   6.213   3.829   6.244  0.3073 -0.0160  0.4210
   21MOL     C715247   6.191   3.716   6.136 -0.0703  0.1008 -0.3843
   21MOL     C815248   6.146   3.765   5.998 -0.1694  0.8283 -0.2816
   21MOL     O915249   6.165   3.655   5.906  0.3753  0.0517 -0.3037
   21MOL    C1015250   6.057   3.580   5.870  0.1094  0.1764  0.2679
   21MOL    O1115251   5.942   3.600   5.899  0.2088  0.2881 -0.2068
   21MOL    C1215252   6.100   3.462   5.796  0.1611  0.1874  0.2244
   21MOL    C1315253   6.220   3.467   5.730 -0.1063  0.0330 -0.6182
   21MOL    C1415254   6.241   3.370   5.637 -0.0631  0.0294 -0.0216
   21MOL    C1515255   6.155   3.255   5.628  0.0280 -0.1957 -0.0907
   21MOL    C1615256   6.185   3.151   5.534 -0.6330  0.3564 -0.0335
   21MOL    O1715257   6.290   3.140   5.474  0.4819  0.0309  0.4434
   21MOL    O1815258   6.080   3.068   5.509 -0.0779  0.4776 -0.1274
   21MOL    C1915259   6.034   3.252   5.707  0.0798  0.6159  0.0320
   21MOL    C2015260   6.008   3.362   5.784  0.2732  1.1066  0.1917
   21MOL    H2115261   6.006   3.631   6.196  0.2802  0.5780 -0.9729
   21MOL    H2215262   6.094   3.509   6.137 -3.2233  0.1178  0.4426
   21MOL    H2315263   6.245   3.499   6.340 -0.0591 -1.9837  0.5173
   21MOL    H2415264   6.072   3.490   6.373 -1.6419  2.1746 -1.1727
   21MOL    H2515265   6.066   3.730   6.421  0.0086 -0.4533 -1.7858
   21MOL    H2615266   6.285   3.597   6.572 -0.5618 -0.9081 -0.6649
   21MOL    H2715267   6.115   3.605   6.623  1.1338 -0.9794  1.1336
   21MOL    H2815268   6.362   3.729   6.368  0.5866  0.5592 -0.8895
   21MOL    H2915269   6.277   3.857   6.442 -0.4993  1.4444 -1.9073
   21MOL    H3015270   6.124   3.891   6.254 -1.2585 -2.3907  1.7621
   21MOL    H3115271   6.288   3.899   6.207 -1.9524  2.3483  0.1812
   21MOL    H3215272   6.290   3.671   6.130 -0.7261 -1.5999  0.9411
   21MOL    H3315273   6.220   3.844   5.987 -1.8533  2.5672  0.3798
   21MOL    H3415274   6.040   3.792   6.002 -0.1186  1.1190 -0.8395
   21MOL    H3515275   6.285   3.552   5.737  0.1527 -0.0913 -1.4429
   21MOL    H3615276   6.329   3.374   5.574  1.0440  2.7679  1.5916
   21MOL    H3715277   5.974   3.163   5.702  0.5172  0.2800  0.7871
   21MOL    H3815278   5.911   3.355   5.833  0.0958 -0.7373 -0.3964
   21MOL    H3915279   6.225   3.755   6.605  1.7269  0.5077 -2.7402
   21MOL    C4015280   5.980   2.849   5.076 -0.3642  0.2841 -0.1010
   21MOL    C4115281   6.029   2.822   5.222 -0.2094 -0.2507  0.7084
   21MOL    C4215282   6.051   2.964   5.278 -0.2688  0.2081 -0.0277
   21MOL    C4315283   6.096   2.947   5.427  0.2218 -0.1952 -0.1517
   21MOL    C4415284   6.145   3.047   5.194 -0.3761  0.2883  0.4380
   21MOL    C4515285   6.102   3.061   5.045 -0.9398  0.4120 -0.5797
   21MOL    C4615286   6.079   2.925   4.980 -0.5803  0.4538 -0.3139
   21MOL    C4715287   6.054   2.943   4.824  0.7823 -0.3283 -0.2140
   21MOL    O4815288   5.981   2.822   4.792  0.3255  0.7407  0.1600
   21MOL    C4915289   6.055   2.707   4.768 -0.3486 -0.4995  0.0314
   21MOL    O5015290   6.178   2.707   4.768 -0.0365 -0.0409 -0.3521
   21MOL    C5115291   5.976   2.584   4.754 -0.1114  0.6013 -0.2510
   21MOL    C5215292   5.838   2.578   4.759 -0.2082 -0.2400  0.1766
   21MOL    C5315293   5.768   2.454   4.763 -0.5193 -0.5416  0.4465
   21MOL    C5415294   5.837   2.331   4.750 -0.7976 -0.1489  0.1489
   21MOL    C5515295   5.752   2.206   4.745 -0.2001 -0.7975  0.1103
   21MOL    O5615296   5.629   2.207   4.732  0.6334 -0.5614 -0.1169
   21MOL    O5715297   5.830   2.097   4.766  0.0287 -0.0302 -0.4534
   21MOL    C5815298   5.981   2.342   4.751  0.1757  0.4748  0.9785
   21MOL    C5915299   6.050   2.465   4.754 -0.1003  0.2035  0.7043
   21MOL    H6015300   5.887   2.905   5.075 -0.3507  0.3072 -0.0859
   21MOL    H6115301   5.965   2.752   5.029  1.4251 -0.2246  0.3498
   21MOL    H6215302   6.119   2.761   5.224  0.6054  0.8399 -1.4955
   21MOL    H6315303   5.961   2.764   5.285  0.0978 -0.2221  1.0655
   21MOL    H6415304   5.953   3.011   5.287 -0.5139 -0.0711 -1.1357
   21MOL    H6515305   6.200   2.914   5.426  0.5192  0.7308  0.1302
   21MOL    H6615306   6.059   2.861   5.482  0.3141  1.0238  1.8794
   21MOL    H6715307   6.243   2.998   5.190 -0.4015  0.1597  1.3031
   21MOL    H6815308   6.168   3.141   5.243  2.0613 -0.8332  1.5517
   21MOL    H6915309   6.008   3.116   5.051 -0.5682  0.9113  0.9549
   21MOL    H7015310   6.172   3.119   4.985 -1.0158  1.0996 -0.0049
   21MOL    H7115311   6.178   2.881   4.989 -0.3067  1.2659  0.6529
   21MOL    H7215312   6.153   2.959   4.780  2.0413 -2.0579  1.8645
   21MOL    H7315313   6.003   3.033   4.788 -0.1785 -0.6317  0.3720
   21MOL    H7415314   5.781   2.669   4.770  1.6337  1.0060 -0.4301
   21MOL    H7515315   5.660   2.454   4.773 -0.3549  0.1536  2.4320
   21MOL    H7615316   6.044   2.255   4.751  1.0821  1.0551 -2.8601
   21MOL    H7715317   6.157   2.465   4.766  0.2521 -2.8087 -1.6869
   21MOL    C7815318   5.654   1.697   5.033  0.1803 -0.1347 -0.1868
   21MOL    C7915319   5.689   1.755   4.896 -0.6798 -0.5129  0.4094
   21MOL    C8015320   5.743   1.908   4.894  0.7541 -0.0876 -1.5141
   21MOL    C8115321   5.777   1.964   4.756 -0.3052 -0.1041  0.0070
   21MOL    C8215322   5.647   1.993   4.980 -0.0351  0.0555 -0.0384
   21MOL    C8315323   5.609   1.928   5.109 -0.0372 -0.2570  0.1370
   21MOL    C8415324   5.552   1.785   5.114  0.3420  0.0839 -0.1323
   21MOL    C8515325   5.528   1.737   5.253  0.0756  0.3976 -0.3744
   21MOL    O8615326   5.642   1.738   5.346 -0.2836  0.0192  0.1728
   21MOL    C8715327   5.702   1.626   5.388  0.1762  0.1808  0.3883
   21MOL    O8815328   5.696   1.520   5.332 -0.0833 -0.0211  0.4753
   21MOL    C8915329   5.767   1.639   5.528  0.2742  0.9557  0.2547
   21MOL    C9015330   5.844   1.537   5.573 -0.0861  0.3831 -0.5803
   21MOL    C9115331   5.893   1.537   5.703  0.0784  0.5206 -0.2738
   21MOL    C9215332   5.875   1.651   5.780  0.5201 -0.1534 -0.0350
   21MOL    C9315333   5.923   1.640   5.920 -0.2563  0.6923 -1.0451
   21MOL    O9415334   5.990   1.545   5.963  0.4350  0.1316  0.3499
   21MOL    O9515335   5.890   1.751   5.995  0.2607  0.1380 -0.1623
   21MOL    C9615336   5.802   1.759   5.735 -0.4447  0.0641 -0.2341
   21MOL    C9715337   5.748   1.759   5.608  0.2001  0.0605  0.1150
   21MOL    H9815338   5.746   1.684   5.090 -2.2234 -0.0967  3.8907
   21MOL    H9915339   5.623   1.593   5.025  0.8022 -0.1400 -2.8774
   21MOL   H10015340   5.597   1.749   4.839 -0.3529 -1.8067  0.0093
   21MOL   H10115341   5.756   1.686   4.845 -0.3572 -0.1197  0.2935
   21MOL   H10215342   5.836   1.902   4.950  0.2108  2.0866 -0.3391
   21MOL   H10315343   5.705   1.946   4.676  1.3452 -0.7627 -1.3550
   21MOL   H10415344   5.864   1.904   4.729  0.1661  0.5422  0.0646
   21MOL   H10515345   5.558   2.007   4.919  0.1457 -0.3405 -0.3957
   21MOL   H10615346   5.685   2.095   4.993 -2.5648  1.0075  0.1707
   21MOL   H10715347   5.699   1.928   5.171 -0.3823 -1.6203  0.6622
   21MOL   H10815348   5.532   1.993   5.151 -1.1022 -0.8335 -0.8930
   21MOL   H10915349   5.453   1.780   5.070  0.4840 -0.5542 -0.3809
   21MOL   H11015350   5.491   1.635   5.238 -1.4080  0.6758  1.2627
   21MOL   H11115351   5.445   1.792   5.297  1.9060  1.4955  1.8293
   21MOL   H11215352   5.859   1.452   5.507  0.1023 -0.2044  0.2082
   21MOL   H11315353   5.943   1.450   5.743 -1.3687  0.2021  0.8907
   21MOL   H11415354   5.793   1.844   5.802 -1.1018 -1.3147  1.4862
   21MOL   H11515355   5.691   1.840   5.565 -1.6368 -1.0315  0.4638
   21MOL   C11615356   5.628   1.776   6.352 -0.5695 -0.2579 -0.2099
   21MOL   C11715357   5.721   1.805   6.229  0.4710 -0.0901 -0.1560
   21MOL   C11815358   5.854   1.729   6.232  0.1657  0.3698 -0.6336
   21MOL   C11915359   5.951   1.774   6.120  0.1294  0.5030 -0.6635
   21MOL   C12015360   5.917   1.750   6.362  0.3270 -0.6614  0.6595
   21MOL   C12115361   5.830   1.733   6.486 -0.0052  0.0133  1.1773
   21MOL   C12215362   5.697   1.815   6.486 -0.0292  0.0095  0.0447
   21MOL   C12315363   5.611   1.779   6.611  0.0392 -0.3317  0.6649
   21MOL   O12415364   5.690   1.797   6.728 -0.4321 -0.3556  0.1758
   21MOL   C12515365   5.638   1.792   6.847  0.4270  0.3583  0.1257
   21MOL   O12615366   5.525   1.775   6.873  0.1636  0.2018 -0.1036
   21MOL   C12715367   5.742   1.814   6.953  0.1245  0.3117  0.2959
   21MOL   C12815368   5.698   1.814   7.087 -0.3495  0.1112 -0.5524
   21MOL   C12915369   5.793   1.855   7.183 -0.1957  0.1313 -0.4862
   21MOL   C13015370   5.927   1.891   7.154  0.4503 -0.5820 -0.2885
   21MOL   C13115371   6.012   1.954   7.256 -0.2969  0.0526 -0.4013
   21MOL   O13215372   5.987   1.979   7.376  0.4406 -0.3285  0.1693
   21MOL   O13315373   6.126   1.995   7.195 -0.0453  0.3556  0.5466
   21MOL   C13415374   5.972   1.878   7.023 -0.4650 -0.5120 -0.1337
   21MOL   C13515375   5.875   1.842   6.919 -0.8913 -0.0190  0.0036
   21MOL   H13615376   5.605   1.669   6.354 -0.2697 -0.3136  0.5127
   21MOL   H13715377   5.534   1.827   6.336 -0.8130 -0.4498  0.6081
   21MOL   H13815378   5.750   1.910   6.236  0.4631 -0.2264  2.2532
   21MOL   H13915379   5.668   1.800   6.134  0.8647 -0.1885 -0.3734
   21MOL   H14015380   5.829   1.624   6.217  0.6968  0.3162 -1.2084
   21MOL   H14115381   6.039   1.710   6.116 -0.3034 -0.0515 -1.9920
   21MOL   H14215382   5.986   1.875   6.137  0.0223  0.3662  0.4111
   21MOL   H14315383   5.946   1.855   6.359 -1.1409 -0.2915 -2.2160
   21MOL   H14415384   5.993   1.672   6.360 -0.7734 -1.7251 -1.7181
   21MOL   H14515385   5.798   1.629   6.483 -0.8149  0.2496  1.6954
   21MOL   H14615386   5.886   1.761   6.575  2.2669  1.7183 -0.7302
   21MOL   H14715387   5.720   1.921   6.500  2.2125 -0.6450  1.7286
   21MOL   H14815388   5.587   1.674   6.598  1.3401 -0.7157  1.3237
   21MOL   H14915389   5.518   1.831   6.636 -0.6364 -0.8244 -0.7764
   21MOL   H15015390   5.595   1.792   7.112 -0.6048  0.1430 -1.5559
   21MOL   H15115391   5.758   1.873   7.284  2.0299 -1.6937  0.6684
   21MOL   H15215392   6.072   1.896   6.987 -1.4000  0.0209 -2.5510
   21MOL   H15315393   5.904   1.843   6.816 -0.0605 -3.3754  0.1649
   21MOL   C15415394   6.469   2.341   7.148 -0.3367  0.3243 -0.0259
   21MOL   C15515395   6.387   2.254   7.242 -0.2548 -0.5181  0.1684
   21MOL   C15615396   6.295   2.164   7.165 -0.1072 -0.0159 -0.3251
   21MOL   C15715397   6.214   2.074   7.269 -0.1231 -0.0142 -0.4996
   21MOL   C15815398   6.202   2.248   7.066  0.3103  0.2065  0.0327
   21MOL   C15915399   6.292   2.330   6.976 -0.4081  0.3884  0.8631
   21MOL   C16015400   6.378   2.426   7.062  0.2495 -0.0294 -0.1667
   21MOL   C16115401   6.462   2.531   6.977  0.1952  0.0871 -0.6795
   21MOL   O16215402   6.400   2.661   6.972 -0.2478  0.2995  0.0211
   21MOL   C16315403   6.476   2.761   6.950 -0.2217 -0.7207 -0.9433
   21MOL   O16415404   6.596   2.758   6.944 -0.2198  0.1763 -0.3486
   21MOL   C16515405   6.399   2.887   6.944  0.1967 -0.3457  1.1766
   21MOL   C16615406   6.465   3.015   6.936  0.4367  0.5713 -0.1106
   21MOL   C16715407   6.389   3.134   6.925 -0.5691  0.2572 -0.1850
   21MOL   C16815408   6.250   3.123   6.921 -0.5540 -0.2964  0.2582
   21MOL   C16915409   6.171   3.251   6.905 -0.5955 -0.4622  0.4552
   21MOL   O17015410   6.230   3.358   6.916  0.2064 -0.3665 -0.7119
   21MOL   O17115411   6.040   3.235   6.876  0.0125 -0.1781 -0.3451
   21MOL   C17215412   6.185   3.000   6.922 -0.2009  0.5008  0.2202
   21MOL   C17315413   6.260   2.881   6.943  0.2227 -0.5288  0.2359
   21MOL   H17415414   6.539   2.281   7.089 -0.6954  0.0600 -0.1845
   21MOL   H17515415   6.536   2.406   7.205  0.4326 -0.4186 -0.0621
   21MOL   H17615416   6.326   2.317   7.306 -1.5567  0.4118 -1.9374
   21MOL   H17715417   6.447   2.186   7.302  1.9580 -0.8946 -2.3687
   21MOL   H17815418   6.344   2.098   7.094 -2.2316 -1.2634 -0.6721
   21MOL   H17915419   6.166   2.142   7.339  1.7215 -2.2866  3.1161
   21MOL   H18015420   6.268   2.001   7.329 -0.3640  0.0141 -0.2476
   21MOL   H18115421   6.151   2.325   7.123 -1.1237 -0.6338 -0.0991
   21MOL   H18215422   6.133   2.183   7.013  1.0168  0.3348 -1.0568
   21MOL   H18315423   6.345   2.256   6.916  2.1015  1.8876  1.1831
   21MOL   H18415424   6.225   2.392   6.916  0.8853  1.3527  0.3961
   21MOL   H18515425   6.314   2.483   7.129 -0.2580 -0.6532 -0.1061
   21MOL   H18615426   6.489   2.487   6.881  1.6977  0.9446 -0.6562
   21MOL   H18715427   6.555   2.536   7.034 -0.1653 -1.0390  0.0355
   21MOL   H18815428   6.573   3.012   6.933  0.4078  0.3095 -1.1796
   21MOL   H18915429   6.433   3.232   6.919  2.2172 -1.0109 -1.3095
   21MOL   H19015430   6.077   2.998   6.911 -0.6107 -1.0558  3.7275
   21MOL   H19115431   6.200   2.791   6.944 -0.9051  0.2297  2.8053
   21MOL   C19215432   5.787   3.484   6.542 -0.3730 -0.4598 -0.0245
   21MOL   C19315433   5.838   3.491   6.688 -0.2105  0.4779  0.8086
   21MOL   C19415434   5.894   3.357   6.716 -0.0098  0.2965 -0.2701
   21MOL   C19515435   5.960   3.357   6.860 -0.0739 -0.3946  0.1617
   21MOL   C19615436   5.786   3.244   6.704 -0.8875  0.1444  0.5698
   21MOL   C19715437   5.731   3.240   6.557 -0.3529  0.0631 -0.2807
   21MOL   C19815438   5.678   3.377   6.518  0.1929  0.1797 -0.2099
   21MOL   C19915439   5.637   3.375   6.372 -0.2945  0.5573 -0.2608
   21MOL   O20015440   5.528   3.286   6.340  0.1153 -0.9220 -0.0043
   21MOL   C20115441   5.398   3.318   6.365 -0.5745 -0.5875  0.9072
   21MOL   O20215442   5.362   3.403   6.449 -0.5277  0.4770 -0.2237
   21MOL   C20315443   5.302   3.249   6.279 -0.1920 -0.4624 -0.5869
   21MOL   C20415444   5.171   3.221   6.323  0.7462 -0.5145  0.1162
   21MOL   C20515445   5.072   3.156   6.250  0.8427  0.0906 -0.6239
   21MOL   C20615446   5.106   3.108   6.125  0.2275  0.0831 -0.4219
   21MOL   C20715447   5.011   3.023   6.049  0.1641  0.4414 -0.5826
   21MOL   O20815448   4.909   2.975   6.097  0.1731 -0.5241 -0.0060
   21MOL   O20915449   5.040   3.019   5.912 -0.3496  0.7434  0.4836
   21MOL   C21015450   5.244   3.121   6.078  1.3723 -0.6071  0.7295
   21MOL   C21115451   5.339   3.200   6.149  0.3603  0.1013 -0.4741
   21MOL   H21215452   5.861   3.493   6.462  0.2108  2.1954  0.7639
   21MOL   H21315453   5.725   3.572   6.523 -0.4561 -0.0702  1.9219
   21MOL   H21415454   5.751   3.519   6.747 -2.4043  1.1210 -2.5462
   21MOL   H21515455   5.915   3.568   6.698  0.4311  0.1458 -1.2462
   21MOL   H21615456   5.966   3.350   6.634  1.2128  1.8708  0.6315
   21MOL   H21715457   5.874   3.357   6.928  0.4989 -0.2910  0.8949
   21MOL   H21815458   6.019   3.448   6.870  1.2088 -1.0168 -1.5111
   21MOL   H21915459   5.714   3.273   6.780 -1.8641  0.6034 -0.5274
   21MOL   H22015460   5.834   3.149   6.728 -0.3967  0.2232 -0.0886
   21MOL   H22115461   5.813   3.205   6.494 -1.6024 -1.3945 -1.1350
   21MOL   H22215462   5.653   3.165   6.546 -0.8248  0.0120  2.9338
   21MOL   H22315463   5.596   3.401   6.585 -0.9411 -1.1256 -1.1038
   21MOL   H22415464   5.706   3.314   6.314 -1.4080 -2.0424  1.0467
   21MOL   H22515465   5.625   3.472   6.324 -0.7395 -0.0265 -1.3476
   21MOL   H22615466   5.137   3.256   6.420 -0.9136 -1.9845  0.0877
   21MOL   H22715467   4.977   3.140   6.300  0.6459  1.6216 -0.4680
   21MOL   H22815468   5.272   3.087   5.980 -0.6423  2.1713 -0.8975
   21MOL   H22915469   5.438   3.212   6.108  0.2819  1.5202 -0.2642
   21MOL   C23015470   5.257   2.805   5.619  0.4541  0.7821 -0.3230
   21MOL   C23115471   5.162   2.831   5.739  0.9173 -0.2225  0.0427
   21MOL   C23215472   5.048   2.917   5.695 -0.0220  0.2868  0.0192
   21MOL   C23315473   4.965   2.950   5.821 -0.1543  0.2425  0.5434
   21MOL   C23415474   5.095   3.049   5.620  0.0559  0.1291  0.1916
   21MOL   C23515475   5.193   3.013   5.501  0.2875  0.0514  0.1641
   21MOL   C23615476   5.310   2.933   5.556 -0.4708  0.7365 -0.2458
   21MOL   C23715477   5.416   2.892   5.455 -0.3869  0.8042  0.2238
   21MOL   O23815478   5.520   2.819   5.525  0.3064 -0.0417 -0.0070
   21MOL   C23915479   5.644   2.869   5.538  0.2393  0.7263 -0.1579
   21MOL   O24015480   5.680   2.964   5.471 -0.1283 -0.5193 -0.3381
   21MOL   C24115481   5.725   2.804   5.640  0.5851 -0.5177  0.6659
   21MOL   C24215482   5.846   2.867   5.680  0.2550  0.3972  0.4105
   21MOL   C24315483   5.933   2.794   5.772  0.2976 -0.4442 -0.2604
   21MOL   C24415484   5.895   2.672   5.831  0.6526 -0.3729 -0.3994
   21MOL   C24515485   5.984   2.611   5.930  0.1181 -0.3601  0.1510
   21MOL   O24615486   6.085   2.671   5.965  0.2289 -0.3117  0.0574
   21MOL   O24715487   5.945   2.491   5.963 -0.1561  0.6883  0.0277
   21MOL   C24815488   5.767   2.620   5.794 -0.2923  0.3338  0.1196
   21MOL   C24915489   5.690   2.679   5.693  0.3155  0.3463  0.0425
   21MOL   H25015490   5.201   2.746   5.546 -0.3425  1.7393 -0.4940
   21MOL   H25115491   5.335   2.735   5.651  0.5240  1.7276  1.6806
   21MOL   H25215492   5.230   2.872   5.814  0.1072  0.2727  0.5186
   21MOL   H25315493   5.119   2.736   5.773  1.7672 -0.7185 -0.2674
   21MOL   H25415494   4.984   2.858   5.629 -1.0685  1.6693 -0.2399
   21MOL   H25515495   4.942   2.856   5.873  1.7034  1.3145  3.4132
   21MOL   H25615496   4.881   3.016   5.799 -0.3432 -0.5174 -1.0608
   21MOL   H25715497   5.147   3.116   5.689  2.0440  1.0639 -2.1066
   21MOL   H25815498   5.010   3.108   5.585  1.3783  1.2705 -1.2118
   21MOL   H25915499   5.133   2.958   5.428 -0.7054 -0.6860  1.5172
   21MOL   H26015500   5.225   3.105   5.452 -1.2246  0.8795  0.6852
   21MOL   H26115501   5.350   2.987   5.642  1.6107 -0.3311 -0.5148
   21MOL   H26215502   5.453   2.981   5.405  1.2446  0.3912  0.6610
   21MOL   H26315503   5.382   2.818   5.383  1.8610  1.7366 -1.8324
   21MOL   H26415504   5.866   2.970   5.651 -1.5267 -0.3803 -3.8530
   21MOL   H26515505   6.029   2.840   5.792 -0.0774  0.4182 -0.4131
   21MOL   H26615506   5.732   2.531   5.843  0.8107  1.2363  2.6629
   21MOL   H26715507   5.599   2.632   5.658 -0.3980  1.0401  0.9354
   21MOL   C26815508   6.050   2.458   6.401 -0.3918 -0.4145  0.1208
   21MOL   C26915509   6.078   2.485   6.247  0.1536  0.0111  0.3441
   21MOL   C27015510   6.021   2.370   6.160 -0.1921 -0.2089  0.3377
   21MOL   C27115511   6.036   2.400   6.011 -0.2468  0.3433 -0.4938
   21MOL   C27215512   6.078   2.230   6.200  0.1905  0.0783  0.3376
   21MOL   C27315513   6.071   2.210   6.352 -0.8765  0.4079 -0.2371
   21MOL   C27415514   6.125   2.330   6.434  0.0556  0.0675  0.5352
   21MOL   C27515515   6.131   2.300   6.580 -0.5588 -0.3535  0.0814
   21MOL   O27615516   6.006   2.260   6.620 -0.2755 -0.4975  0.0820
   21MOL   C27715517   5.986   2.179   6.718 -0.5837  1.3698 -0.8563
   21MOL   O27815518   6.083   2.119   6.767  0.8601  0.0145 -0.6604
   21MOL   C27915519   5.848   2.159   6.759  0.1467 -0.7318 -0.6153
   21MOL   C28015520   5.744   2.152   6.661  0.3830  0.2115  0.6757
   21MOL   C28115521   5.610   2.133   6.708  0.4811  0.1449 -0.4257
   21MOL   C28215522   5.578   2.125   6.839  0.6118 -0.1328 -1.1424
   21MOL   C28315523   5.435   2.111   6.879  0.3305  0.0655  0.0062
   21MOL   O28415524   5.342   2.104   6.802  0.1803 -0.2694  0.1480
   21MOL   O28515525   5.421   2.125   7.009  0.2175 -0.6686 -0.5696
   21MOL   C28615526   5.682   2.120   6.932 -0.0327  0.6427 -0.1794
   21MOL   C28715527   5.816   2.132   6.893  0.3996 -0.6554 -0.7194
   21MOL   H28815528   5.943   2.448   6.422 -0.2549 -0.8400  0.6227
   21MOL   H28915529   6.088   2.539   6.464 -0.8016  0.3436 -0.6002
   21MOL   H29015530   6.182   2.496   6.214 -0.1526 -2.0531 -1.4679
   21MOL   H29115531   6.030   2.577   6.214  1.5597  0.1965 -1.3105
   21MOL   H29215532   5.912   2.363   6.169 -0.1070 -1.3086  0.6184
   21MOL   H29315533   6.007   2.305   5.964 -0.2316  0.4777 -0.7737
   21MOL   H29415534   6.136   2.425   5.975 -0.2676 -1.0860 -1.6166
   21MOL   H29515535   6.179   2.222   6.159  0.2152  0.2495  0.3664
   21MOL   H29615536   6.031   2.141   6.156 -1.6012  0.4745  1.4038
   21MOL   H29715537   5.965   2.210   6.377 -1.1281 -1.3286 -1.1944
   21MOL   H29815538   6.119   2.119   6.390  0.5311  1.3710  0.3415
   21MOL   H29915539   6.232   2.338   6.415 -0.6517 -0.1891 -3.9714
   21MOL   H30015540   6.152   2.386   6.644 -3.2669  0.9512 -0.6946
   21MOL   H30115541   6.211   2.227   6.586 -0.2265 -0.0063 -0.0557
   21MOL   H30215542   5.766   2.162   6.556 -1.5337 -0.1582  0.2143
   21MOL   H30315543   5.537   2.123   6.629  2.6207 -2.0739 -2.1943
   21MOL   H30415544   5.660   2.104   7.036 -1.0026 -3.4537 -0.9014
   21MOL   H30515545   5.888   2.134   6.974  1.2768  1.5804 -1.5123
   21MOL   C30615546   5.080   1.769   7.095  0.2517  0.4862 -0.6477
   21MOL   C30715547   5.121   1.917   7.067 -0.3887  0.3017  0.6012
   21MOL   C30815548   5.273   1.949   7.079 -0.0414 -0.3373  0.5660
   21MOL   C30915549   5.292   2.098   7.065  0.4477  0.3341 -0.5768
   21MOL   C31015550   5.328   1.892   7.208 -0.0775 -0.1721 -0.3941
   21MOL   C31115551   5.304   1.740   7.208  0.1662  0.7703  0.2884
   21MOL   C31215552   5.150   1.709   7.220 -0.8921  0.5571  0.0458
   21MOL   C31315553   5.130   1.561   7.241  0.5767 -0.1024  0.5791
   21MOL   O31415554   5.000   1.544   7.290 -0.6836  0.1299 -0.7001
   21MOL   C31515555   4.908   1.488   7.211 -0.3182 -1.1151  0.6345
   21MOL   O31615556   4.915   1.477   7.082  0.1670 -0.0028 -0.2665
   21MOL   C31715557   4.772   1.480   7.276  0.0180  0.6164  0.2946
   21MOL   C31815558   4.760   1.499   7.416 -0.0917 -0.6112 -0.4435
   21MOL   C31915559   4.636   1.497   7.476  0.0210  0.6005  0.3361
   21MOL   C32015560   4.522   1.456   7.405 -0.4709  0.3941  0.3470
   21MOL   C32115561   4.392   1.448   7.468  0.8452 -0.0366 -1.0445
   21MOL   O32215562   4.299   1.392   7.418  0.7068 -0.2694  0.1313
   21MOL   O32315563   4.382   1.508   7.592 -0.5805  0.1848  0.0993
   21MOL   C32415564   4.531   1.429   7.265  0.1149  0.6554 -0.1038
   21MOL   C32515565   4.656   1.448   7.198  0.2944  0.5241 -0.2191
   21MOL   H32615566   5.118   1.709   7.012 -0.1052  0.3738 -0.7314
   21MOL   H32715567   4.972   1.757   7.093  0.1520  0.8047  1.8008
   21MOL   H32815568   5.062   1.989   7.124 -1.1055 -0.3733  0.7217
   21MOL   H32915569   5.084   1.940   6.967  0.6521 -1.1466 -0.1278
   21MOL   H33015570   5.310   1.905   6.987 -1.2646 -0.7915  0.2840
   21MOL   H33115571   5.285   2.135   7.168  0.3654 -1.6751  0.1560
   21MOL   H33215572   5.215   2.146   7.005 -0.7904 -1.3666 -0.3680
   21MOL   H33315573   5.274   1.941   7.289  0.2732 -0.9665  0.3274
   21MOL   H33415574   5.437   1.900   7.209 -0.2529  2.4921 -0.1915
   21MOL   H33515575   5.357   1.693   7.125  0.6958 -2.3153  2.2503
   21MOL   H33615576   5.356   1.702   7.297 -1.8684 -1.4634  0.5726
   21MOL   H33715577   5.113   1.760   7.310  2.0459  2.4796  0.2510
   21MOL   H33815578   5.196   1.534   7.323  2.7819  0.4213 -0.9850
   21MOL   H33915579   5.158   1.500   7.155  1.4464  2.3912 -0.9608
   21MOL   H34015580   4.850   1.521   7.473  0.6763 -1.8611 -1.1414
   21MOL   H34115581   4.626   1.525   7.580  0.5612 -0.3627  0.6476
   21MOL   H34215582   4.449   1.404   7.199  1.9439 -0.8335 -1.8823
   21MOL   H34315583   4.668   1.425   7.093  0.7452  1.7806 -0.4540
   21MOL   C34415584   4.461   1.304   7.961 -0.2160 -0.6227  0.4604
   21MOL   C34515585   4.416   1.408   7.858 -1.1242  0.1113 -0.0409
   21MOL   C34615586   4.286   1.380   7.783  0.4001 -0.3540 -0.0341
   21MOL   C34715587   4.263   1.487   7.668 -0.4366  0.3633 -0.8087
   21MOL   C34815588   4.283   1.240   7.724 -0.0432 -0.3715  0.0988
   21MOL   C34915589   4.301   1.145   7.838 -0.6019 -0.6914  0.6137
   21MOL   C35015590   4.442   1.156   7.900 -0.0342 -0.1960 -0.3304
   21MOL   C35115591   4.480   1.052   8.004 -0.0307 -0.1671  0.2125
   21MOL   O35215592   4.628   1.046   8.010  0.4094  0.8013 -0.2689
   21MOL   C35315593   4.689   0.944   0.039 -0.1788 -0.1556  0.4836
   21MOL   O35415594   4.637   0.858   0.106 -0.2750  0.9005 -0.5853
   21MOL   C35515595   4.832   0.960   0.035 -0.4171 -0.1400  0.0302
   21MOL   C35615596   4.900   1.070   8.012 -0.6971 -0.3525 -0.0901
   21MOL   C35715597   5.041   1.061   7.987 -0.0423  0.1707 -0.2937
   21MOL   C35815598   5.118   0.958   8.024  0.2375 -0.2580 -0.3559
   21MOL   C35915599   5.259   0.939   7.976  0.6052  0.3532 -0.3930
   21MOL   O36015600   5.317   1.027   7.919  0.2684  0.5540 -0.0961
   21MOL   O36115601   5.309   0.814   8.008  0.4733  0.1454  0.0608
   21MOL   C36215602   5.051   0.860   0.076  0.0795 -0.3946  0.3595
   21MOL   C36315603   4.913   0.861   0.091  0.5583  0.0029 -0.3759
   21MOL   H36415604   4.408   1.306   0.024 -1.6187 -1.9768 -0.2622
   21MOL   H36515605   4.566   1.317   7.984  0.0024  1.7641 -1.6561
   21MOL   H36615606   4.495   1.429   7.787 -1.6453  0.6910 -0.4598
   21MOL   H36715607   4.407   1.497   7.921 -1.1593 -0.4166  0.7089
   21MOL   H36815608   4.203   1.393   7.853  0.8525 -0.7415  0.5787
   21MOL   H36915609   4.255   1.581   7.723 -0.4419  0.3559 -0.7968
   21MOL   H37015610   4.173   1.482   7.606 -0.6856  1.8288 -0.5870
   21MOL   H37115611   4.375   1.233   7.667 -0.6456  2.0446 -1.2286
   21MOL   H37215612   4.197   1.221   7.660 -0.7293 -0.6993  1.1019
   21MOL   H37315613   4.224   1.157   7.915  0.7763  0.6913  1.7954
   21MOL   H37415614   4.298   1.046   7.792 -0.4643 -0.0668 -0.7631
   21MOL   H37515615   4.514   1.154   7.818  1.4468 -0.3759  0.9420
   21MOL   H37615616   4.436   0.957   7.972 -2.7080  0.9677  0.3677
   21MOL   H37715617   4.437   1.083   0.067 -1.6862 -0.1402 -0.5355
   21MOL   H37815618   4.850   1.159   7.977  0.1787 -0.1941 -0.9311
   21MOL   H37915619   5.094   1.137   7.931 -3.0201  2.2265 -0.4816
   21MOL   H38015620   5.108   0.776   0.113 -0.6763  0.3401  3.2563
   21MOL   H38115621   4.868   0.782   0.151  1.0519  0.4416  0.5765
   21MOL   C38215622   5.490   0.740   7.577  0.4495 -0.2837  0.9330
   21MOL   C38315623   5.477   0.810   7.708 -0.1840  0.0111  0.2078
   21MOL   C38415624   5.447   0.716   7.828  0.3206  0.3563  0.4168
   21MOL   C38515625   5.444   0.781   7.973 -0.3700 -0.3492 -0.3731
   21MOL   C38615626   5.318   0.641   7.799 -0.4365 -0.0150 -0.0115
   21MOL   C38715627   5.326   0.573   7.660  0.1096  0.3775 -0.0322
   21MOL   C38815628   5.351   0.677   7.540  0.1659  0.3843 -0.3532
   21MOL   C38915629   5.342   0.606   7.404  0.4862  0.0503  0.1450
   21MOL   O39015630   5.339   0.712   7.308 -0.7414 -0.4506  0.9935
   21MOL   C39115631   5.369   0.692   7.178 -0.1790 -0.6755 -0.3203
   21MOL   O39215632   5.402   0.579   7.136  0.4800  0.3143 -0.0951
   21MOL   C39315633   5.351   0.822   7.101 -0.4722  0.0817 -0.6723
   21MOL   C39415634   5.306   0.941   7.161 -0.0398  0.4348 -0.4491
   21MOL   C39515635   5.308   1.058   7.086 -0.1761  0.1621  0.0194
   21MOL   C39615636   5.360   1.063   6.953 -0.5949  0.6137 -0.3777
   21MOL   C39715637   5.397   1.200   6.890  0.6091 -0.0638 -0.5483
   21MOL   O39815638   5.420   1.213   6.766  0.5907 -0.6241  0.2930
   21MOL   O39915639   5.397   1.302   6.984  0.3026  0.3303  0.1301
   21MOL   C40015640   5.399   0.948   6.891 -1.0770  0.0352  0.2529
   21MOL   C40115641   5.396   0.830   6.967  0.0398 -0.1981  0.2180
   21MOL   H40215642   5.562   0.660   7.595 -0.7595 -1.5643  0.1978
   21MOL   H40315643   5.521   0.807   7.498 -1.2611 -1.9048 -1.1784
   21MOL   H40415644   5.395   0.882   7.705 -2.6113 -2.7251 -1.4031
   21MOL   H40515645   5.572   0.859   7.730 -0.2084 -0.4519  1.3485
   21MOL   H40615646   5.529   0.645   7.829  0.4830  0.5200 -0.6868
   21MOL   H40715647   5.512   0.866   7.973 -1.5400  0.6100  0.9246
   21MOL   H40815648   5.477   0.708   0.015 -0.8667 -0.7309 -0.5267
   21MOL   H40915649   5.236   0.712   7.810  0.5073  1.1673 -0.4295
   21MOL   H41015650   5.302   0.563   7.873  0.1138  0.1269  0.2591
   21MOL   H41115651   5.400   0.493   7.664 -1.8107 -1.4456 -0.0778
   21MOL   H41215652   5.233   0.518   7.645  0.4248  0.0112 -0.6646
   21MOL   H41315653   5.268   0.746   7.554 -1.4952 -1.7397  0.5474
   21MOL   H41415654   5.258   0.537   7.412  1.2303 -0.8720  0.0876
   21MOL   H41515655   5.429   0.541   7.388  1.2213  1.7807 -3.4813
   21MOL   H41615656   5.267   0.936   7.261 -1.7984  2.3002 -1.0095
   21MOL   H41715657   5.276   1.151   7.131 -1.5746 -0.2648 -0.0830
   21MOL   H41815658   5.442   0.949   6.792  0.5114 -2.7961  0.8536
   21MOL   H41915659   5.432   0.738   6.925 -1.3282 -1.1055  0.9713
   21MOL   C42015660   5.832   1.437   7.002 -0.1538 -0.1917  0.5347
   21MOL   C42115661   5.696   1.400   6.941  0.3634 -0.1360 -0.2977
   21MOL   C42215662   5.573   1.448   7.023  0.5553 -0.8224 -0.8543
   21MOL   C42315663   5.435   1.433   6.952 -0.3226 -0.2392 -0.0457
   21MOL   C42415664   5.579   1.399   7.171  0.3083  0.7522 -0.4177
   21MOL   C42515665   5.723   1.418   7.235 -0.2629  0.0695 -0.0386
   21MOL   C42615666   5.844   1.374   7.144 -0.3165  0.1567 -0.1176
   21MOL   C42715667   5.981   1.417   7.206 -0.1020 -1.2166 -0.7051
   21MOL   O42815668   6.082   1.343   7.139  0.3181 -0.1192 -0.0207
   21MOL   C42915669   6.156   1.244   7.199  0.7465 -0.0853  0.2711
   21MOL   O43015670   6.157   1.224   7.320  0.0781  0.0280 -0.0810
   21MOL   C43115671   6.242   1.166   7.107 -0.1404 -0.3754 -0.0288
   21MOL   C43215672   6.208   1.158   6.970 -0.0437 -0.5321  0.0018
   21MOL   C43315673   6.287   1.095   6.872  0.4990  1.1088  0.1215
   21MOL   C43415674   6.409   1.028   6.918  0.7833  0.5157 -0.1618
   21MOL   C43515675   6.495   0.952   6.822  0.4570 -0.2058  0.5025
   21MOL   O43615676   6.534   0.839   6.836  0.4813 -0.2538  0.8472
   21MOL   O43715677   6.526   1.026   6.713  0.4417  1.0031 -0.3371
   21MOL   C43815678   6.431   1.019   7.057 -0.4273 -1.3003 -0.3874
   21MOL   C43915679   6.358   1.095   7.155  0.1382  0.0167  0.5002
   21MOL   H44015680   5.826   1.545   7.009 -0.8831 -0.1036 -1.3213
   21MOL   H44115681   5.907   1.397   6.933  0.0374 -0.2168  0.7562
   21MOL   H44215682   5.698   1.291   6.936  0.0677 -0.2594  1.6864
   21MOL   H44315683   5.691   1.443   6.841  0.8666  1.7482  0.4785
   21MOL   H44415684   5.596   1.553   7.035  0.1750 -0.8223 -0.0541
   21MOL   H44515685   5.432   1.447   6.844 -1.4181 -0.8499 -0.0952
   21MOL   H44615686   5.361   1.499   6.996 -1.1088 -0.3501 -1.1781
   21MOL   H44715687   5.554   1.295   7.192  1.8630  0.5050  0.2250
   21MOL   H44815688   5.501   1.451   7.227  1.2913 -0.5029  2.1847
   21MOL   H44915689   5.740   1.525   7.252 -2.0565  0.2979  0.3540
   21MOL   H45015690   5.739   1.382   7.336 -1.2337 -1.0579 -0.2718
   21MOL   H45115691   5.847   1.266   7.138 -0.1821  0.1484  0.0813
   21MOL   H45215692   5.978   1.414   7.315 -1.5307  1.6803 -0.6240
   21MOL   H45315693   5.997   1.521   7.179 -2.2134 -0.6917 -0.0567
   21MOL   H45415694   6.113   1.202   6.942 -0.0605 -0.6052 -0.0574
   21MOL   H45515695   6.260   1.110   6.768  0.0815 -0.6931 -0.0454
   21MOL   H45615696   6.515   0.958   7.086  0.7648  0.0234 -0.9813
   21MOL   H45715697   6.385   1.091   7.260  0.0001 -1.3501  0.4919
   21MOL   C45815698   6.960   1.151   6.590  0.0303 -0.4001  0.3076
   21MOL   C45915699   6.811   1.130   6.587 -0.4263 -0.2237  0.2427
   21MOL   C46015700   6.752   0.990   6.630  0.3830 -0.5167  0.4933
   21MOL   C46115701   6.596   0.970   6.605  0.4834  0.5159 -0.8846
   21MOL   C46215702   6.831   0.886   6.550  0.8851 -0.0728 -0.0264
   21MOL   C46315703   6.985   0.898   6.569 -0.4229 -0.6098  0.4960
   21MOL   C46415704   7.038   1.034   6.529 -0.1610  0.4709 -0.5680
   21MOL   C46515705   7.190   1.059   6.539  0.2199  0.0686  0.1876
   21MOL   O46615706   7.261   1.001   6.439 -0.4667 -0.4467  0.5277
   21MOL   C46715707   7.305   1.069   6.330 -0.5864 -0.3606 -0.9468
   21MOL   O46815708   7.292   1.189   6.303 -0.1714  0.1544  0.6234
   21MOL   C46915709   7.382   0.968   6.245  0.5764 -0.4753 -0.3135
   21MOL   C47015710   7.428   0.999   6.116 -0.0610  0.6489 -0.7681
   21MOL   C47115711   7.500   0.900   6.041  1.0906 -0.2548  0.6686
   21MOL   C47215712   7.537   0.777   6.084 -0.1804 -0.0298 -0.4570
   21MOL   C47315713   7.629   0.681   6.015 -0.2071 -0.1951  0.4130
   21MOL   O47415714   7.702   0.721   5.928 -0.5298  0.2569  0.1512
   21MOL   O47515715   7.622   0.558   6.065 -0.5013  0.4386  0.3060
   21MOL   C47615716   7.491   0.744   6.215 -0.3784 -0.1187  0.1062
   21MOL   C47715717   7.418   0.835   6.293  0.6298 -0.0694  0.1212
   21MOL   H47815718   6.985   1.164   6.695 -0.6598 -0.9117  0.5390
   21MOL   H47915719   6.986   1.240   6.533 -0.7865 -0.3719 -0.0336
   21MOL   H48015720   6.772   1.156   6.489 -1.1595 -0.6069  0.4257
   21MOL   H48115721   6.762   1.204   6.651  2.0553  1.9125 -0.2812
   21MOL   H48215722   6.772   0.979   6.736 -1.3541  0.7027  0.9709
   21MOL   H48315723   6.564   0.866   6.596  0.9433  0.3432 -0.5543
   21MOL   H48415724   6.557   1.029   6.521  0.9011 -0.2463 -1.6217
   21MOL   H48515725   6.823   0.892   6.442  0.8280  0.9769  0.0280
   21MOL   H48615726   6.800   0.785   6.576 -0.7241  0.5674  0.5917
   21MOL   H48715727   7.013   0.878   6.673 -1.7986  2.5743  1.5379
   21MOL   H48815728   7.034   0.822   6.509  4.3994  2.2371  0.5881
   21MOL   H48915729   7.014   1.032   6.423  0.0313  0.1364 -0.6067
   21MOL   H49015730   7.222   1.016   6.634 -3.5773  1.4040  2.1904
   21MOL   H49115731   7.221   1.162   6.558  0.5288  0.0352 -0.1389
   21MOL   H49215732   7.423   1.098   6.074  3.4493  1.4793  0.6096
   21MOL   H49315733   7.537   0.934   5.946 -0.2550 -0.3891  0.0828
   21MOL   H49415734   7.513   0.654   6.271 -1.2688  0.0320  0.7062
   21MOL   H49515735   7.396   0.816   6.397 -0.1300  1.5971  0.2721
   21MOL   C49615736   7.826   0.360   6.387  1.0943  0.5121 -0.4787
   21MOL   C49715737   7.734   0.384   6.267  0.4272  0.7421 -0.2684
   21MOL   C49815738   7.811   0.428   6.136 -0.2871 -0.4857  0.8487
   21MOL   C49915739   7.717   0.456   6.029 -0.1791  0.0107  0.3414
   21MOL   C50015740   7.917   0.532   6.159 -0.0837 -0.1091  0.6001
   21MOL   C50115741   8.006   0.494   6.275 -0.1127 -0.1064 -0.0766
   21MOL   C50215742   7.928   0.473   6.405  0.1166 -0.1790 -0.0611
   21MOL   C50315743   8.018   0.458   6.529 -0.0865  0.0610  0.0482
   21MOL   O50415744   0.088   0.358   6.533  0.0055  0.1128 -1.0774
   21MOL   C50515745   0.217   0.389   6.501 -0.7135  0.7405 -0.0231
   21MOL   O50615746   0.250   0.491   6.436 -0.1260  0.2333 -0.5293
   21MOL   C50715747   0.314   0.284   6.533 -0.1924 -0.4435  0.1658
   21MOL   C50815748   0.438   0.275   6.465  0.2389 -0.2040  1.2112
   21MOL   C50915749   0.533   0.184   6.509 -0.3862  0.1734 -0.8933
   21MOL   C51015750   0.509   0.103   6.620  0.6418  0.2080 -0.2347
   21MOL   C51115751   0.611   0.012   6.666 -0.4395 -0.5545  0.0769
   21MOL   O51215752   0.717   0.002   6.609 -0.0156  0.2166 -0.3761
   21MOL   O51315753   0.573   7.966   6.768  0.6856  0.0970  0.1392
   21MOL   C51415754   0.386   0.113   6.690 -0.3395  0.2699  1.1497
   21MOL   C51515755   0.291   0.204   6.644  0.2756  0.5029  0.3962
   21MOL   H51615756   7.883   0.269   6.366 -0.5484 -0.2941 -1.5754
   21MOL   H51715757   7.774   0.344   6.482 -0.1715 -0.1581 -1.2700
   21MOL   H51815758   7.663   0.461   6.297  0.2214  1.2185 -1.9551
   21MOL   H51915759   7.673   0.294   6.258 -0.5464  1.2413  1.2168
   21MOL   H52015760   7.873   0.340   6.116  0.5040  0.1772  0.3434
   21MOL   H52115761   7.659   0.365   6.014  2.3320 -1.5282 -0.4229
   21MOL   H52215762   7.766   0.486   5.936  1.0572 -1.0688  0.6226
   21MOL   H52315763   7.869   0.628   6.178 -0.0599  0.0693 -0.2181
   21MOL   H52415764   7.980   0.537   6.070 -0.1282 -1.4586  0.4954
   21MOL   H52515765   0.043   0.410   6.262 -0.5757 -0.5397  0.2313
   21MOL   H52615766   0.037   0.582   6.291  0.2657 -0.8666  3.1366
   21MOL   H52715767   7.869   0.558   6.439 -1.5869 -0.5594 -2.0320
   21MOL   H52815768   7.967   0.440   6.624  0.3072 -0.0717  0.2381
   21MOL   H52915769   0.030   0.557   6.531 -1.3404  0.6303 -0.0541
   21MOL   H53015770   0.462   0.335   6.378  0.1632 -3.2175 -0.9761
   21MOL   H53115771   0.623   0.164   6.452 -0.6789 -1.4082 -0.8483
   21MOL   H53215772   0.375   0.062   6.785 -2.8809 -0.6562  0.3875
   21MOL   H53315773   0.200   0.210   6.702 -0.7272  1.1111 -1.2236
   21MOL   C53415774   0.403   7.673   7.035  0.4243 -0.2221 -0.2066
   21MOL   C53515775   0.487   7.802   6.994  0.2021  0.0468  0.6556
   21MOL   C53615776   0.587   7.775   6.885  0.4137 -0.4211 -0.6133
   21MOL   C53715777   0.664   7.892   6.843 -0.3501 -0.0525 -0.6519
   21MOL   C53815778   0.680   7.660   6.919  0.3018 -0.1580  0.0817
   21MOL   C53915779   0.603   7.533   6.958 -0.2582  0.3685  0.1149
   21MOL   C54015780   0.504   7.561   7.071  0.4778 -0.3873  0.5526
   21MOL   C54115781   0.428   7.426   7.114  0.6733 -0.0330 -0.0687
   21MOL   O54215782   0.337   7.385   7.015  0.1372  0.1897  0.4116
   21MOL   C54315783   0.270   7.265   7.028  0.6675 -0.1305  0.0648
   21MOL   O54415784   0.288   7.188   7.122 -0.1192  0.3914 -0.1564
   21MOL   C54515785   0.160   7.239   6.933  0.2681 -0.3663 -0.4677
   21MOL   C54615786   0.128   7.333   6.835  0.2678  0.0536  0.1304
   21MOL   C54715787   0.026   7.310   6.742  0.8549  0.8297  0.0296
   21MOL   C54815788   7.981   7.194   6.742 -0.3474 -0.1207  0.3452
   21MOL   C54915789   7.852   7.188   6.663 -0.1840  0.6492  0.1112
   21MOL   O55015790   7.801   7.291   6.620 -0.1653 -0.2224 -1.1570
   21MOL   O55115791   7.805   7.064   6.642 -0.3372 -0.9134 -0.0483
   21MOL   C55215792   0.002   7.090   6.815 -0.0023  0.3805 -0.8538
   21MOL   C55315793   0.094   7.110   6.917 -0.6726 -0.6978  0.2842
   21MOL   H55415794   0.343   7.642   6.949 -2.2269  2.1575  0.7164
   21MOL   H55515795   0.326   7.698   7.107 -0.9162 -0.3928 -1.5485
   21MOL   H55615796   0.539   7.830   7.086 -2.5811  0.5581  2.1336
   21MOL   H55715797   0.424   7.880   6.951  0.1645 -0.2186  0.2310
   21MOL   H55815798   0.522   7.736   6.806  0.1104 -1.6468  0.2194
   21MOL   H55915799   0.758   7.867   6.793  2.0029  3.1553  1.9386
   21MOL   H56015800   0.683   7.955   6.930  0.9601  0.7706 -1.5235
   21MOL   H56115801   0.756   7.682   6.994  3.1400  1.6194 -3.1659
   21MOL   H56215802   0.751   7.649   6.837  2.2863  2.3816  1.3803
   21MOL   H56315803   0.541   7.510   6.872 -0.5897 -1.3456  0.7904
   21MOL   H56415804   0.670   7.447   6.972  2.2096  1.8679 -1.9832
   21MOL   H56515805   0.561   7.591   7.159 -2.0141  0.0562  2.0901
   21MOL   H56615806   0.387   7.449   7.213 -0.2707 -0.4751 -0.3503
   21MOL   H56715807   0.501   7.347   7.130  0.7572  0.3736  1.6175
   21MOL   H56815808   0.170   7.431   6.822 -1.5889  1.1309  1.8635
   21MOL   H56915809   8.029   7.393   6.679  0.6574 -0.5166 -1.7247
   21MOL   H57015810   7.985   6.994   6.801 -2.8248  1.3558  1.6714
   21MOL   H57115811   0.124   7.027   6.980 -0.9781 -1.5423 -0.6788
   21MOL   C57215812   7.624   6.666   6.535 -0.2920 -0.2927  0.4342
   21MOL   C57315813   7.671   6.793   6.607  0.1882 -0.6935  0.6759
   21MOL   C57415814   7.663   6.910   6.509 -0.2822 -0.0159  0.2038
   21MOL   C57515815   7.677   7.042   6.578  0.2928  0.4657  0.1545
   21MOL   C57615816   7.761   6.885   6.392 -0.0173 -0.6366  0.2623
   21MOL   C57715817   7.731   6.752   6.314 -0.5498  0.1062 -0.5672
   21MOL   C57815818   7.713   6.633   6.414  0.0246  0.0020 -0.0448
   21MOL   C57915819   7.644   6.528   6.333  0.1450  0.1213 -0.1914
   21MOL   O58015820   7.624   6.409   6.405  0.2570  0.0830  0.1288
   21MOL   C58115821   7.721   6.316   6.398 -0.2831 -0.3680  0.0009
   21MOL   O58215822   7.827   6.332   6.336  0.2721  0.0591 -0.0907
   21MOL   C58315823   7.683   6.185   6.458  0.5155  0.0353  0.3071
   21MOL   C58415824   7.585   6.173   6.559 -0.7119 -0.2055  0.0701
   21MOL   C58515825   7.548   6.045   6.607  0.5035  0.0830 -0.1017
   21MOL   C58615826   7.608   5.924   6.556 -0.1152 -0.3513  0.8032
   21MOL   C58715827   7.562   5.786   6.578  0.1053 -0.1787 -0.2933
   21MOL   O58815828   7.610   5.680   6.547  0.1051 -0.1489  0.1551
   21MOL   O58915829   7.443   5.789   6.645 -0.0749  0.0620  0.6090
   21MOL   C59015830   7.716   5.948   6.472  0.1038 -0.2400 -0.1420
   21MOL   C59115831   7.752   6.069   6.419  0.4493 -0.2871  0.0863
   21MOL   H59215832   7.522   6.679   6.499 -0.8155  1.3759  2.3955
   21MOL   H59315833   7.627   6.581   6.603  1.9773 -0.5468  0.0481
   21MOL   H59415834   7.770   6.779   6.650  1.0344 -1.1999 -1.3450
   21MOL   H59515835   7.613   6.811   6.697 -2.6758 -1.6991 -0.9028
   21MOL   H59615836   7.561   6.919   6.474  0.0700  1.9565 -0.4219
   21MOL   H59715837   7.599   7.064   6.651  0.3815  1.4831 -0.0473
   21MOL   H59815838   7.652   7.114   6.500  0.4296  0.4274  0.0727
   21MOL   H59915839   7.859   6.887   6.440  0.1705  1.2249 -0.1648
   21MOL   H60015840   7.771   6.971   6.326 -1.0521  1.0954  2.2924
   21MOL   H60115841   7.641   6.766   6.254  1.3399  1.2682 -3.2414
   21MOL   H60215842   7.802   6.717   6.239  1.0035 -0.1297  0.9792
   21MOL   H60315843   7.815   6.611   6.446  1.2106  4.2305 -0.5955
   21MOL   H60415844   7.713   6.514   6.250  0.7322 -1.1244  0.4949
   21MOL   H60515845   7.556   6.579   6.294  1.5388  0.0817 -3.6208
   21MOL   H60615846   7.531   6.256   6.602  1.2230  0.0737  2.0734
   21MOL   H60715847   7.465   6.042   6.675  2.0526  2.0126  1.9406
   21MOL   H60815848   7.764   5.858   6.434  1.8395  0.8284 -0.5247
   21MOL   H60915849   7.823   6.064   6.339  1.1594 -3.2976  0.8399
   21MOL   C61015850   7.122   5.851   6.918 -0.4445 -0.4118 -0.0775
   21MOL   C61115851   7.261   5.814   6.865  0.0081 -0.0608 -0.4847
   21MOL   C61215852   7.253   5.709   6.748 -0.2245  0.1217 -0.2421
   21MOL   C61315853   7.396   5.667   6.699 -0.3460 -0.4507  0.0083
   21MOL   C61415854   7.164   5.598   6.787  0.0284 -0.1897  0.3767
   21MOL   C61515855   7.023   5.642   6.841 -0.2455 -0.0819  0.2915
   21MOL   C61615856   7.043   5.729   6.973  0.4064  0.0419  0.3640
   21MOL   C61715857   6.901   5.771   7.027 -0.3094 -0.4443 -0.0905
   21MOL   O61815858   6.937   5.804   7.162  0.0292  0.6818  0.1907
   21MOL   C61915859   6.851   5.879   7.231 -0.1628 -0.4866  0.1338
   21MOL   O62015860   6.769   5.956   7.175 -0.1040 -0.2387 -0.1298
   21MOL   C62115861   6.870   5.859   7.381 -0.3098 -0.7393 -0.5320
   21MOL   C62215862   6.815   5.954   7.473 -0.3792 -0.5392 -0.0404
   21MOL   C62315863   6.810   5.932   7.613 -0.5092  0.8610  0.1422
   21MOL   C62415864   6.880   5.819   7.663 -0.3610 -0.3828  0.1479
   21MOL   C62515865   6.895   5.803   7.811 -0.3712 -0.0122 -0.1840
   21MOL   O62615866   6.915   5.691   7.864 -0.8704 -0.0245  0.2458
   21MOL   O62715867   6.869   5.916   7.866 -0.1200  0.5165 -0.0973
   21MOL   C62815868   6.948   5.730   7.579 -0.3934  0.4442  0.6672
   21MOL   C62915869   6.943   5.754   7.443  0.2207  0.3396 -0.0313
   21MOL   H63015870   7.052   5.903   6.852  1.6365  3.0725  0.3048
   21MOL   H63115871   7.139   5.919   7.002  3.0893 -0.0595 -1.0040
   21MOL   H63215872   7.322   5.762   6.938  1.4868  2.8597  0.4558
   21MOL   H63315873   7.325   5.900   6.843  0.1005  0.2255  0.8454
   21MOL   H63415874   7.206   5.752   6.659 -0.9125 -1.0204 -0.4355
   21MOL   H63515875   7.387   5.583   6.631 -1.1097  0.1465 -0.6381
   21MOL   H63615876   7.470   5.644   6.775 -0.7079 -4.1684 -0.6664
   21MOL   H63715877   7.206   5.551   6.876 -1.7215 -0.4405  1.0863
   21MOL   H63815878   7.161   5.520   6.710 -1.9191 -0.0556  0.2936
   21MOL   H63915879   6.964   5.692   6.764 -0.4669 -0.4030  0.2554
   21MOL   H64015880   6.958   5.557   6.857 -0.5700 -0.1368 -1.3408
   21MOL   H64115881   7.090   5.667   7.049 -2.7150 -0.3203  2.0598
   21MOL   H64215882   6.832   5.689   7.041 -0.4919 -0.3173 -0.2464
   21MOL   H64315883   6.859   5.844   6.957  2.4239 -1.4975 -2.9460
   21MOL   H64415884   6.770   6.045   7.436  0.2328 -0.5604 -0.8398
   21MOL   H64515885   6.760   6.007   7.673  0.1285  2.1368 -0.9036
   21MOL   H64615886   6.995   5.639   7.613 -0.2278 -0.7810 -2.7242
   21MOL   H64715887   6.994   5.684   7.380  1.1787 -0.4240  1.5757
   21MOL   C64815888   7.096   6.243   0.148 -1.0931  0.2019  0.0599
   21MOL   C64915889   7.034   6.107   0.119 -0.3158  0.7628 -0.1506
   21MOL   C65015890   6.998   6.074   8.004 -0.1348 -0.2720 -0.0125
   21MOL   C65115891   6.910   5.942   7.998  0.0366 -0.5393 -0.5318
   21MOL   C65215892   6.935   6.203   7.944  0.1324 -0.2465  0.1247
   21MOL   C65315893   7.007   6.334   7.964 -0.4288  0.4376  0.7869
   21MOL   C65415894   7.020   6.363   0.083  0.5223 -0.2939 -0.1205
   21MOL   C65515895   7.092   6.495   0.121 -0.0323 -0.7521 -0.1907
   21MOL   O65615896   7.077   6.595   0.023  0.2987  0.0192 -0.3996
   21MOL   C65715897   7.175   6.689   0.013 -0.8148  0.3592  0.2136
   21MOL   O65815898   7.263   6.706   0.098 -0.3759  0.1996  0.0619
   21MOL   C65915899   7.165   6.776   7.924  0.0154  0.4098  0.4053
   21MOL   C66015900   7.277   6.849   7.876 -1.2681 -0.3173  0.0611
   21MOL   C66115901   7.278   6.928   7.757  1.1942  0.2569 -0.0818
   21MOL   C66215902   7.151   6.936   7.685 -0.0556 -0.2454  0.0086
   21MOL   C66315903   7.143   7.021   7.563  0.0485 -0.0529  1.0843
   21MOL   O66415904   7.232   7.097   7.531  0.2224 -0.2828  0.1099
   21MOL   O66515905   7.025   6.997   7.500  0.1767  0.0155  0.3113
   21MOL   C66615906   7.038   6.865   7.723  0.4117  0.3557 -0.3639
   21MOL   C66715907   7.045   6.783   7.843  0.2421 -0.3912  1.0698
   21MOL   H66815908   7.200   6.241   0.113 -0.9583 -2.8958  0.5078
   21MOL   H66915909   7.109   6.260   0.255 -2.6926 -0.7371  0.4187
   21MOL   H67015910   6.945   6.106   0.183 -0.3797  1.5204 -0.2186
   21MOL   H67115911   7.090   6.025   0.163  1.1490  1.8108 -0.0346
   21MOL   H67215912   7.094   6.063   7.953 -0.3008  1.2834 -0.7145
   21MOL   H67315913   6.819   5.975   0.016  0.6774  0.1538  0.1964
   21MOL   H67415914   6.948   5.858   0.024  0.0406 -0.4424 -0.3934
   21MOL   H67515915   6.834   6.195   7.986 -1.6729 -0.1544 -3.9501
   21MOL   H67615916   6.924   6.185   7.837  1.0541 -1.7017  0.2637
   21MOL   H67715917   7.106   6.329   7.919 -0.3963  2.1303  0.6188
   21MOL   H67815918   6.958   6.417   7.912 -2.2568 -2.3770 -2.1636
   21MOL   H67915919   6.915   6.361   0.113 -0.1433 -2.7654 -2.4506
   21MOL   H68015920   7.197   6.474   0.140 -0.0612 -2.5827 -1.9357
   21MOL   H68115921   7.057   6.527   0.219  1.0626 -1.1389  0.3332
   21MOL   H68215922   7.371   6.831   7.925 -1.5321 -1.6644  0.1159
   21MOL   H68315923   7.366   6.986   7.730  1.6190 -0.1324  0.4580
   21MOL   H68415924   6.949   6.859   7.662  0.5114  0.1953 -0.4931
   21MOL   H68515925   6.962   6.729   7.884  0.5480 -0.8756  1.0607
   21MOL   C68615926   6.848   6.794   7.158 -0.3421  0.1080  0.0665
   21MOL   C68715927   6.956   6.882   7.224 -0.1157  0.6424  0.8044
   21MOL   C68815928   6.888   7.003   7.301  0.7756 -0.0764 -0.6551
   21MOL   C68915929   6.993   7.075   7.377 -0.0202 -0.0537 -0.1305
   21MOL   C69015930   6.818   7.094   7.206  0.2301 -0.0788  0.0715
   21MOL   C69115931   6.717   7.000   7.127 -0.1432 -0.3704  0.4531
   21MOL   C69215932   6.771   6.872   7.055 -0.7534 -0.1655 -1.1603
   21MOL   C69315933   6.661   6.779   6.995 -0.1143 -0.2688  0.0099
   21MOL   O69415934   6.708   6.661   6.929  0.0067  0.3097 -0.3444
   21MOL   C69515935   6.696   6.538   6.989 -0.6324 -0.7215 -0.2156
   21MOL   O69615936   6.667   6.517   7.111 -0.3351  0.0038  0.4405
   21MOL   C69715937   6.742   6.428   6.899  0.7225 -0.2157 -0.8888
   21MOL   C69815938   6.766   6.439   6.756  0.0056 -0.4525 -0.5539
   21MOL   C69915939   6.804   6.325   6.680 -0.7910 -0.6188  0.1861
   21MOL   C70015940   6.823   6.194   6.739 -0.2596  1.0078  0.9118
   21MOL   C70115941   6.851   6.064   6.673 -0.4466  1.7479  0.0929
   21MOL   O70215942   6.851   5.956   6.726 -0.0944 -0.0982 -0.1568
   21MOL   O70315943   6.875   6.092   6.543  0.4981  0.4377  0.2182
   21MOL   C70415944   6.785   6.192   6.875  0.1832 -0.1832  0.0513
   21MOL   C70515945   6.744   6.301   6.952 -0.1370 -0.7216  0.2184
   21MOL   H70615946   6.771   6.757   7.227  0.8315 -0.7504  0.9520
   21MOL   H70715947   6.900   6.706   7.120  3.0292  2.2026 -0.2824
   21MOL   H70815948   7.027   6.921   7.152  0.7794 -2.2157  0.1023
   21MOL   H70915949   7.020   6.831   7.296 -0.8279  0.4428  1.2954
   21MOL   H71015950   6.803   6.974   7.363  1.7382  1.1251  1.2715
   21MOL   H71115951   6.941   7.170   7.394 -2.1038 -1.4533  1.6364
   21MOL   H71215952   7.084   7.086   7.318  2.2921 -3.2335  2.6203
   21MOL   H71315953   6.893   7.148   7.147  1.1098 -0.1742  1.0815
   21MOL   H71415954   6.765   7.176   7.256 -2.3198 -1.8413  0.3318
   21MOL   H71515955   6.626   6.972   7.180 -0.2503  0.1425  0.5440
   21MOL   H71615956   6.668   7.052   7.045 -1.4873 -0.7831  0.9922
   21MOL   H71715957   6.831   6.907   6.971  2.2725 -0.1765  0.9222
   21MOL   H71815958   6.614   6.832   6.912 -0.5018 -0.0186  0.3868
   21MOL   H71915959   6.583   6.758   7.068  0.3697  3.5228  1.7710
   21MOL   H72015960   6.763   6.535   6.707 -1.1441 -0.4889 -0.5685
   21MOL   H72115961   6.827   6.343   6.576 -0.6880 -1.3181  0.0870
   21MOL   H72215962   6.802   6.100   6.929  0.6140 -0.8360 -1.1920
   21MOL   H72315963   6.718   6.285   7.056  0.0928  3.0530  0.9032
   21MOL   C72415964   7.249   6.183   6.347 -0.5090 -0.1992 -0.0927
   21MOL   C72515965   7.104   6.155   6.389 -0.0139  0.5355  0.1412
   21MOL   C72615966   7.079   6.006   6.439  0.1579 -0.0647  0.2721
   21MOL   C72715967   6.923   5.986   6.463  0.2730 -0.1722  0.2566
   21MOL   C72815968   7.143   5.897   6.353  0.3588 -0.2525 -0.2993
   21MOL   C72915969   7.282   5.943   6.293  0.7096  0.1977  0.5165
   21MOL   C73015970   7.285   6.085   6.234 -0.2205 -0.5990  0.0306
   21MOL   C73115971   7.421   6.132   6.174  0.6068 -0.3067 -0.4606
   21MOL   O73215972   7.400   6.264   6.135 -0.1914  0.4649 -0.7009
   21MOL   C73315973   7.347   6.290   6.015 -0.2364  0.7792  0.0484
   21MOL   O73415974   7.311   6.195   5.943 -0.4286  0.1092 -0.3772
   21MOL   C73515975   7.323   6.440   5.988  0.4393  0.0696  0.1339
   21MOL   C73615976   7.306   6.480   5.854  0.2190  0.5747  0.1683
   21MOL   C73715977   7.293   6.622   5.826  0.4167  0.6202  0.2029
   21MOL   C73815978   7.307   6.711   5.928 -1.1510  0.3424  0.2602
   21MOL   C73915979   7.295   6.860   5.904 -0.0492  0.0100  0.5358
   21MOL   O74015980   7.266   6.896   5.791 -0.9819  0.3843 -0.9053
   21MOL   O74115981   7.331   6.941   6.005 -0.4492 -0.8606  0.4006
   21MOL   C74215982   7.317   6.670   6.066 -0.2735  0.3965  0.0106
   21MOL   C74315983   7.326   6.535   6.091 -0.7294  0.6181 -0.5695
   21MOL   H74415984   7.313   6.161   6.433 -0.7035  1.2931  0.4451
   21MOL   H74515985   7.265   6.290   6.339  0.1968 -0.3983 -1.3888
   21MOL   H74615986   7.032   6.179   6.310  0.2777  0.9677  0.0083
   21MOL   H74715987   7.084   6.225   6.470 -1.7870  0.5827 -0.3068
   21MOL   H74815988   7.125   5.987   6.536 -0.0299 -0.2899  0.3199
   21MOL   H74915989   6.921   5.892   6.518  1.2886 -0.9192 -0.9661
   21MOL   H75015990   6.863   5.976   6.373 -0.3489 -0.3977  0.6922
   21MOL   H75115991   7.091   5.854   6.268  0.5824 -0.0689 -0.5296
   21MOL   H75215992   7.167   5.816   6.422  2.5126  0.7854  0.2233
   21MOL   H75315993   7.364   5.919   6.361  0.8396 -1.4428 -0.1927
   21MOL   H75415994   7.314   5.881   6.209  0.4774  0.7261  0.0341
   21MOL   H75515995   7.214   6.092   6.152  1.9147 -1.5351 -1.9466
   21MOL   H75615996   7.449   6.057   6.100 -0.6903  0.3721 -1.6724
   21MOL   H75715997   7.496   6.130   6.253 -1.1157  2.0155  1.3022
   21MOL   H75815998   7.290   6.408   5.775 -1.7023  0.9405  0.2206
   21MOL   H75915999   7.273   6.647   5.724  0.3004 -0.2026  0.0216
   21MOL   H76016000   7.322   6.740   6.148 -1.5980 -0.3889  0.7866
   21MOL   H76116001   7.356   6.496   6.188 -0.2375 -0.7321 -1.2515
   21MOL   H76216002   7.301   7.029   5.989  1.7206 -0.2155 -0.2726
   22MOL     C116003   5.584   6.559   3.194 -0.1553 -0.0660 -0.8439
   22MOL     C216004   5.722   6.620   3.225  0.2429 -0.0024 -0.1721
   22MOL     C316005   5.824   6.514   3.197 -0.7994 -0.0737  0.4938
   22MOL     C416006   5.968   6.549   3.224 -0.3207  0.4237 -0.6345
   22MOL     C516007   5.802   6.389   3.282  0.4468 -0.3660  0.0924
   22MOL     C616008   5.665   6.326   3.256 -0.5349 -0.2989  0.0331
   22MOL     C716009   5.549   6.430   3.273  0.4957 -0.5556  0.3799
   22MOL     C816010   5.411   6.382   3.260  0.4694 -0.4016 -0.5081
   22MOL     O916011   5.375   6.351   3.127 -0.0911  0.3439 -0.7973
   22MOL    C1016012   5.262   6.285   3.111 -0.0353  0.5896  0.5951
   22MOL    O1116013   5.190   6.249   3.203 -0.2393 -0.2752 -0.1541
   22MOL    C1216014   5.226   6.267   2.971 -0.1174 -0.6233  0.5891
   22MOL    C1316015   5.325   6.271   2.868  0.4186  0.5355 -0.4498
   22MOL    C1416016   5.285   6.245   2.736 -0.2718 -0.2491  0.2765
   22MOL    C1516017   5.149   6.213   2.698  0.4545 -0.9712 -0.3599
   22MOL    C1616018   5.114   6.190   2.560 -0.0972  0.2262  0.1303
   22MOL    O1716019   5.190   6.146   2.475 -0.0357  0.0067 -0.2078
   22MOL    O1816020   4.989   6.218   2.539 -0.0399 -0.9207  0.5533
   22MOL    C1916021   5.058   6.219   2.802 -0.0436 -0.8169  0.1103
   22MOL    C2016022   5.093   6.234   2.935 -0.3010 -0.0077 -0.1416
   22MOL    H2116023   5.571   6.539   3.088  0.8647  1.7510 -1.3435
   22MOL    H2216024   5.507   6.632   3.216 -2.4720 -2.4674 -0.7702
   22MOL    H2316025   5.737   6.648   3.330  0.6907  3.0380 -1.0118
   22MOL    H2416026   5.750   6.705   3.164  0.1976  0.9036  1.0468
   22MOL    H2516027   5.828   6.499   3.089 -1.1666 -1.8509  0.7037
   22MOL    H2616028   5.993   6.634   3.161  1.2466  0.4996  0.0613
   22MOL    H2716029   6.028   6.465   3.189  0.4152  1.1874 -1.2095
   22MOL    H2816030   5.810   6.408   3.389  3.2300 -0.2000 -0.1039
   22MOL    H2916031   5.881   6.317   3.262 -1.5701 -2.2272 -1.4076
   22MOL    H3016032   5.671   6.274   3.161  1.5846 -2.5498  1.3218
   22MOL    H3116033   5.654   6.245   3.328  0.3329 -1.5683 -1.2418
   22MOL    H3216034   5.556   6.464   3.376  1.7280 -0.3421  0.2436
   22MOL    H3316035   5.346   6.461   3.298  0.0858 -0.8551 -0.2272
   22MOL    H3416036   5.396   6.298   3.327  0.7554 -1.9989 -2.4208
   22MOL    H3516037   5.429   6.294   2.885  0.4859 -1.2288  1.7916
   22MOL    H3616038   5.361   6.246   2.659 -0.3956 -1.4525  0.1238
   22MOL    H3716039   4.954   6.198   2.786 -0.4634  1.2346  0.0752
   22MOL    H3816040   5.008   6.218   3.000 -0.4391 -1.6335 -0.7174
   22MOL    H3916041   5.986   6.568   3.330 -1.5717 -1.7548  0.0117
   22MOL    C4016042   4.864   6.583   2.346  0.2374  0.2588  0.7034
   22MOL    C4116043   4.848   6.449   2.417 -0.2837 -0.4757  0.5221
   22MOL    C4216044   4.928   6.344   2.333  0.1443 -0.6277 -0.0513
   22MOL    C4316045   4.927   6.212   2.408 -0.6602  0.9940 -0.2469
   22MOL    C4416046   4.898   6.341   2.189  0.1751 -0.1507 -0.3264
   22MOL    C4516047   4.899   6.477   2.118  0.8153  0.0002 -0.4146
   22MOL    C4616048   4.817   6.587   2.194 -0.0772  0.5011 -0.1351
   22MOL    C4716049   4.831   6.731   2.141 -0.1622  0.0839  0.6020
   22MOL    O4816050   4.746   6.817   2.226 -0.5872 -0.5019 -1.0956
   22MOL    C4916051   4.688   6.926   2.163  0.2679 -0.1659 -0.2380
   22MOL    O5016052   4.727   6.974   2.053 -0.0695 -0.2662  0.0218
   22MOL    C5116053   4.580   6.988   2.249 -1.0987 -0.2888  0.2779
   22MOL    C5216054   4.504   6.912   2.345  0.1014 -0.4943 -0.2008
   22MOL    C5316055   4.395   6.970   2.417 -0.5203 -0.1151  0.1840
   22MOL    C5416056   4.370   7.107   2.406  0.2320  0.0347 -0.6738
   22MOL    C5516057   4.277   7.180   2.496  0.4724 -0.0684  0.3978
   22MOL    O5616058   4.263   7.303   2.484 -0.0699 -0.3335 -0.1894
   22MOL    O5716059   4.221   7.099   2.589  0.1909  0.2537  0.0647
   22MOL    C5816060   4.440   7.183   2.309  0.2007  0.5327 -0.3177
   22MOL    C5916061   4.550   7.128   2.236 -0.5986  0.2326  0.3910
   22MOL    H6016062   4.966   6.622   2.347  0.3783 -0.0351 -0.6328
   22MOL    H6116063   4.797   6.649   2.400 -0.9148 -0.1178 -0.2334
   22MOL    H6216064   4.742   6.426   2.426 -0.6472  1.8138  2.4132
   22MOL    H6316065   4.888   6.470   2.516 -0.5908 -0.5301  0.6579
   22MOL    H6416066   5.033   6.373   2.340 -0.3266  1.7637 -2.0655
   22MOL    H6516067   4.985   6.146   2.343 -0.7269  1.0071 -0.3187
   22MOL    H6616068   4.827   6.172   2.423  0.6297 -2.5728 -0.6588
   22MOL    H6716069   4.794   6.306   2.186  0.1959 -0.4598  1.9141
   22MOL    H6816070   4.956   6.267   2.134  0.6111 -2.1547  2.7399
   22MOL    H6916071   5.004   6.501   2.101  0.6656 -0.4553 -2.0410
   22MOL    H7016072   4.871   6.465   2.014 -0.0377 -1.1659 -0.0631
   22MOL    H7116073   4.710   6.566   2.184  0.1053 -1.1536  1.1716
   22MOL    H7216074   4.815   6.742   2.034  0.6935 -0.2194  0.4347
   22MOL    H7316075   4.936   6.763   2.145 -0.5863  1.6312 -0.4157
   22MOL    H7416076   4.517   6.805   2.354 -1.0079 -0.7960 -1.9695
   22MOL    H7516077   4.336   6.912   2.486 -1.5564  2.6463  1.7168
   22MOL    H7616078   4.416   7.283   2.278  0.4538  0.3552 -1.0885
   22MOL    H7716079   4.601   7.189   2.163 -1.1395 -0.2092 -0.3615
   22MOL    C7816080   4.343   7.355   2.950  0.8819 -0.9443 -0.3246
   22MOL    C7916081   4.281   7.316   2.811 -0.0678  0.0206  0.5416
   22MOL    C8016082   4.200   7.185   2.819 -0.4213  0.2519  0.1742
   22MOL    C8116083   4.128   7.150   2.686  0.0332  0.1671  0.6283
   22MOL    C8216084   4.288   7.074   2.883 -0.5290  0.6460  0.5501
   22MOL    C8316085   4.347   7.121   3.022  0.1023  0.2254 -0.2797
   22MOL    C8416086   4.438   7.239   3.000 -0.2978  0.3005 -0.3681
   22MOL    C8516087   4.529   7.282   3.114 -0.6253 -0.1061 -0.8216
   22MOL    O8616088   4.465   7.290   3.233  0.0486  0.1635 -0.4448
   22MOL    C8716089   4.512   7.346   3.341  0.0547 -1.2711  0.1433
   22MOL    O8816090   4.622   7.397   3.352  0.3280  0.3649  0.0996
   22MOL    C8916091   4.412   7.348   3.448 -0.1038 -0.9502 -0.3754
   22MOL    C9016092   4.287   7.283   3.434 -0.1913  0.4042 -0.2898
   22MOL    C9116093   4.204   7.274   3.544  0.0639  0.3105  0.4141
   22MOL    C9216094   4.226   7.338   3.663  0.3302  0.2870 -0.5139
   22MOL    C9316095   4.129   7.327   3.774  0.4916  0.1049 -0.1789
   22MOL    O9416096   4.064   7.227   3.796  0.4627  0.0155  0.3690
   22MOL    O9516097   4.112   7.444   3.842 -0.4102 -0.2207  0.5008
   22MOL    C9616098   4.353   7.414   3.674  0.8835 -0.8912  0.2365
   22MOL    C9716099   4.443   7.414   3.572  0.2420 -0.4760 -0.4486
   22MOL    H9816100   4.258   7.372   3.016 -0.5925 -0.5858 -2.2700
   22MOL    H9916101   4.388   7.452   2.930  1.7186 -0.6726  2.6101
   22MOL   H10016102   4.361   7.307   2.737 -0.4931 -1.5630  0.2585
   22MOL   H10116103   4.215   7.396   2.779 -1.8852 -1.2215  1.1059
   22MOL   H10216104   4.116   7.199   2.887  1.5993  0.3602  2.7835
   22MOL   H10316105   4.083   7.240   2.644  0.9003  0.8482  1.1412
   22MOL   H10416106   4.059   7.072   2.719 -1.3987  0.7746 -0.8825
   22MOL   H10516107   4.364   7.053   2.808 -0.3866  1.6589  0.4014
   22MOL   H10616108   4.234   6.980   2.891  1.4836 -0.4276  1.7581
   22MOL   H10716109   4.278   7.145   3.102  3.6260  0.9205  2.6750
   22MOL   H10816110   4.408   7.039   3.059 -1.1302 -0.7694 -0.4442
   22MOL   H10916111   4.510   7.205   2.926  1.0465 -0.3546  1.2110
   22MOL   H11016112   4.572   7.379   3.089 -1.1192  1.0536  2.6189
   22MOL   H11116113   4.605   7.205   3.127 -0.6199  0.0140 -0.1270
   22MOL   H11216114   4.255   7.221   3.351  0.8997  0.3583 -0.6755
   22MOL   H11316115   4.112   7.219   3.527  0.1749  0.2471  0.0117
   22MOL   H11416116   4.373   7.467   3.766 -1.8481  1.2402 -0.2997
   22MOL   H11516117   4.541   7.457   3.583  1.0868 -1.5965 -3.2089
   22MOL   C11616118   3.874   7.805   4.079 -0.3974 -0.6617  0.7263
   22MOL   C11716119   3.907   7.658   4.075 -0.0535  0.2253 -0.3636
   22MOL   C11816120   3.997   7.620   3.956  0.3308 -0.0909  0.7240
   22MOL   C11916121   4.022   7.465   3.951 -0.3005 -0.2545  0.2613
   22MOL   C12016122   3.930   7.665   3.824 -0.8457  0.4671  0.0069
   22MOL   C12116123   3.885   7.810   3.831 -0.0405  0.1629 -0.3266
   22MOL   C12216124   3.799   7.843   3.953 -0.3712  0.7943  0.1526
   22MOL   C12316125   3.760   7.987   3.959  0.2754  0.5451  0.4503
   22MOL   O12416126   3.680   8.022   4.070 -0.0290 -0.3062 -0.2271
   22MOL   C12516127   3.587   0.082   4.054 -0.2768  0.7752 -0.0001
   22MOL   O12616128   3.566   0.139   3.946  0.2651 -0.6044 -1.2442
   22MOL   C12716129   3.520   0.111   4.184  0.2241  0.1587 -0.1388
   22MOL   C12816130   3.573   0.065   4.315 -0.1720  0.0771 -0.2624
   22MOL   C12916131   3.502   0.084   4.436 -0.0007 -0.9200  0.2604
   22MOL   C13016132   3.375   0.156   4.429  0.2926 -0.1367 -0.4217
   22MOL   C13116133   3.290   0.150   4.551 -0.4759  0.2979 -0.2178
   22MOL   O13216134   3.327   0.097   4.655  0.0481  0.8304 -0.2678
   22MOL   O13316135   3.158   0.178   4.528 -0.1256  0.3841  0.4320
   22MOL   C13416136   3.316   0.200   4.305  0.7661  0.3634  0.4817
   22MOL   C13516137   3.396   0.181   4.190  0.6088 -0.0313 -0.1203
   22MOL   H13616138   3.969   7.858   4.076 -1.2041  0.7424 -0.7593
   22MOL   H13716139   3.829   7.828   4.176  0.9652  0.4466  1.1184
   22MOL   H13816140   3.821   7.590   4.081 -1.2033  1.6401 -0.5453
   22MOL   H13916141   3.981   7.633   4.150  1.4738 -0.3539 -2.0336
   22MOL   H14016142   4.094   7.669   3.954 -0.6092  1.9044  2.1479
   22MOL   H14116143   3.927   7.412   3.945 -0.6384  0.5851 -2.6060
   22MOL   H14216144   4.059   7.415   4.041 -0.6345 -0.6053  0.2056
   22MOL   H14316145   3.844   7.600   3.809 -0.3588 -0.1435 -0.2008
   22MOL   H14416146   3.987   7.650   3.732  0.7178  2.7458  0.5472
   22MOL   H14516147   3.973   7.874   3.839 -0.9449  1.4456 -0.4501
   22MOL   H14616148   3.837   7.838   3.737 -2.0016  0.1028  0.6287
   22MOL   H14716149   3.715   7.773   3.949  0.0091  0.2256  1.7375
   22MOL   H14816150   3.703   8.007   3.868  1.6890 -1.5555 -0.9418
   22MOL   H14916151   3.852   0.013   3.955  0.6129 -0.0028  0.2812
   22MOL   H15016152   3.663   0.006   4.309 -0.9299 -1.1008 -0.3094
   22MOL   H15116153   3.532   0.050   4.534  0.0892  0.9067  0.8983
   22MOL   H15216154   3.224   0.254   4.298 -0.8102 -2.3459 -0.6825
   22MOL   H15316155   3.355   0.217   4.097 -0.1823 -0.7476 -0.0486
   22MOL   C15416156   2.689   0.056   4.601  0.0101 -0.5985 -0.3251
   22MOL   C15516157   2.806   0.134   4.666  0.4566  0.2549  0.0972
   22MOL   C15616158   2.937   0.096   4.595  0.4306  0.2916  0.1059
   22MOL   C15716159   3.057   0.184   4.626  0.0661  0.7836  0.5405
   22MOL   C15816160   2.959   7.981   4.634  0.8003  0.0685 -0.2302
   22MOL   C15916161   2.840   7.896   4.580 -0.5775  1.0971  0.9592
   22MOL   C16016162   2.705   7.942   4.635  0.8348 -0.2925  0.2068
   22MOL   C16116163   2.589   7.864   4.571  0.4457  0.4184  0.0370
   22MOL   O16216164   2.569   7.898   4.434  0.4303 -0.1221 -0.3915
   22MOL   C16316165   2.591   7.818   4.327 -0.2585  0.0585  0.1353
   22MOL   O16416166   2.633   7.704   4.335 -0.1588 -0.5995  0.0417
   22MOL   C16516167   2.573   7.889   4.201  1.5053  0.4046 -0.5961
   22MOL   C16616168   2.633   7.846   4.082  0.1490 -0.2269 -0.0983
   22MOL   C16716169   2.612   7.922   3.964 -0.9792 -0.2682  0.5044
   22MOL   C16816170   2.527   0.004   3.959 -0.6845  0.0207 -0.8051
   22MOL   C16916171   2.514   0.087   3.841  0.3342  0.2070  0.2123
   22MOL   O17016172   2.422   0.161   3.819  0.8563  0.4384  0.4842
   22MOL   O17116173   2.625   0.084   3.772 -0.7113  0.2666  0.2784
   22MOL   C17216174   2.460   0.043   4.075  0.5630  0.4906  0.3500
   22MOL   C17316175   2.482   8.002   4.195  0.1493  0.5165 -0.2747
   22MOL   H17416176   2.693   0.093   4.499 -0.8942 -1.0841 -0.5411
   22MOL   H17516177   2.590   0.095   4.627  1.1233  1.7204  0.6459
   22MOL   H17616178   2.808   0.113   4.773  2.7682  1.0698  0.2277
   22MOL   H17716179   2.780   0.239   4.660  1.5067  0.5264  0.2908
   22MOL   H17816180   2.926   0.099   4.487 -0.4432  0.3914  0.1990
   22MOL   H17916181   3.100   0.161   4.723  0.7914 -3.0914 -0.6214
   22MOL   H18016182   3.020   0.286   4.638  0.7428  1.3951 -2.1755
   22MOL   H18116183   2.960   7.984   4.742 -2.5325  0.1882 -0.1303
   22MOL   H18216184   3.056   7.951   4.594  0.2493 -1.6442 -0.3486
   22MOL   H18316185   2.840   7.895   4.471  1.6487 -0.4877  0.9346
   22MOL   H18416186   2.858   7.789   4.591  1.7830  1.6782  3.4241
   22MOL   H18516187   2.705   7.933   4.744  0.3538  2.1400  0.4341
   22MOL   H18616188   2.492   7.876   4.620  0.3716 -0.3703  0.0764
   22MOL   H18716189   2.615   7.759   4.586 -0.5876  0.2244  0.5387
   22MOL   H18816190   2.684   7.752   4.074 -0.3397 -0.4463 -0.6898
   22MOL   H18916191   2.656   7.892   3.870 -0.9438  0.6267  0.2289
   22MOL   H19016192   2.375   0.110   4.068  0.3280  0.3557  1.6536
   22MOL   H19116193   2.421   8.017   4.283 -0.6297  0.7027 -0.8374
   22MOL   C19216194   2.623   0.179   3.278  0.1142 -0.2114  0.0815
   22MOL   C19316195   2.629   0.236   3.423 -0.0049  0.0503  0.7336
   22MOL   C19416196   2.640   0.130   3.525 -0.2494  0.1911  0.4180
   22MOL   C19516197   2.649   0.184   3.672  0.6723  0.2178 -0.1706
   22MOL   C19616198   2.511   0.045   3.514 -0.3782  0.1294  0.1505
   22MOL   C19716199   2.499   8.018   3.378  0.1081  0.5710 -0.2132
   22MOL   C19816200   2.502   0.089   3.263 -0.5523 -0.5536  0.4114
   22MOL   C19916201   2.495   0.040   3.121 -0.4138 -0.1026  0.2780
   22MOL   O20016202   2.596   7.977   3.111  0.2595  0.6305 -0.5845
   22MOL   C20116203   2.585   7.859   3.058  0.1153  0.1757  0.3140
   22MOL   O20216204   2.500   7.812   2.983  0.1750 -0.1455  0.4455
   22MOL   C20316205   2.690   7.767   3.115  1.0379  0.2675 -0.6776
   22MOL   C20416206   2.814   7.812   3.174 -0.7861 -0.3938 -0.4093
   22MOL   C20516207   2.901   7.719   3.230  0.2959 -0.5256 -0.3893
   22MOL   C20616208   2.881   7.583   3.200 -0.2082 -0.3305  0.0320
   22MOL   C20716209   2.993   7.487   3.237 -0.1983  0.3297  0.1373
   22MOL   O20816210   3.051   7.488   3.345 -0.2210 -0.3989  0.8372
   22MOL   O20916211   3.020   7.409   3.128 -0.3533 -0.1137  0.0565
   22MOL   C21016212   2.765   7.538   3.136 -0.1298 -0.3573  0.1840
   22MOL   C21116213   2.662   7.628   3.103  0.0096  0.1315  0.4208
   22MOL   H21216214   2.720   0.132   3.267 -0.5914 -1.3443 -1.4205
   22MOL   H21316215   2.601   0.252   3.200  0.9814 -1.3868 -1.2655
   22MOL   H21416216   2.532   0.285   3.440 -0.0907  0.6421 -1.3018
   22MOL   H21516217   2.702   0.316   3.433  0.6307 -0.3953 -0.3054
   22MOL   H21616218   2.722   0.060   3.509  0.7233  1.1063  1.3388
   22MOL   H21716219   2.584   0.267   3.698 -1.5413 -2.1792  2.3180
   22MOL   H21816220   2.749   0.218   3.698  1.1971  0.1718 -2.0419
   22MOL   H21916221   2.424   0.108   3.531 -0.1675  1.6349 -3.7347
   22MOL   H22016222   2.517   7.991   3.581  0.7704 -0.9758 -1.3367
   22MOL   H22116223   2.572   7.937   3.379  0.3542  0.7841 -0.5695
   22MOL   H22216224   2.402   7.968   3.368  0.0905  0.6987 -0.7374
   22MOL   H22316225   2.415   0.154   3.275 -0.5496 -0.3464 -0.6507
   22MOL   H22416226   2.505   0.124   3.053  1.0156 -0.1680  0.4014
   22MOL   H22516227   2.396   8.026   3.115  0.0067 -0.8649 -0.9987
   22MOL   H22616228   2.827   7.919   3.181 -1.1191 -0.3774 -0.0061
   22MOL   H22716229   2.989   7.754   3.281 -0.2627 -0.7711  0.7740
   22MOL   H22816230   2.756   7.440   3.092  0.9470 -0.0909 -0.6760
   22MOL   H22916231   2.581   7.588   3.044  1.0797 -2.7340  0.8178
   22MOL   C23016232   3.028   7.128   2.795 -0.5173 -0.3114 -0.2080
   22MOL   C23116233   3.043   7.255   2.888  0.1640 -0.1404  0.2493
   22MOL   C23216234   3.110   7.210   3.022 -0.0449 -0.2236 -0.2724
   22MOL   C23316235   3.135   7.330   3.119  0.0093  0.1447  0.4131
   22MOL   C23416236   3.021   7.098   3.085  0.0661  0.2753 -0.5065
   22MOL   C23516237   2.994   6.977   2.993 -0.5275  0.2880 -0.5276
   22MOL   C23616238   2.930   7.024   2.852  0.2119  0.2836  0.1080
   22MOL   C23716239   2.904   6.917   2.744  0.1274 -0.3673 -0.5341
   22MOL   O23816240   3.017   6.859   2.682 -0.0550  0.1105 -0.7588
   22MOL   C23916241   3.012   6.802   2.564  0.1090  0.2696  0.1356
   22MOL   O24016242   2.905   6.760   2.507 -0.5531 -0.1627 -0.5322
   22MOL   C24116243   3.147   6.779   2.512  0.1583 -0.3300  0.0626
   22MOL   C24216244   3.253   6.721   2.583 -0.5431  0.0710  0.3928
   22MOL   C24316245   3.387   6.707   2.525 -0.6138 -0.7035 -0.7194
   22MOL   C24416246   3.419   6.752   2.396 -0.3894  0.2615 -0.4527
   22MOL   C24516247   3.546   6.721   2.331 -0.3396 -1.1048  0.2511
   22MOL   O24616248   3.583   6.763   2.219  0.2105  0.1970 -0.2972
   22MOL   O24716249   3.633   6.657   2.415 -0.3439 -0.6889  0.5580
   22MOL   C24816250   3.310   6.810   2.323  0.8102  0.4628 -0.4907
   22MOL   C24916251   3.175   6.818   2.378 -0.2488 -0.2928 -0.0927
   22MOL   H25016252   3.122   7.079   2.770 -1.3220 -3.1702  2.1892
   22MOL   H25116253   2.982   7.172   2.706 -0.6533  1.8719  0.9107
   22MOL   H25216254   2.946   7.300   2.910  0.2877 -0.2423  0.9936
   22MOL   H25316255   3.101   7.327   2.831  0.1208  0.5527  1.0686
   22MOL   H25416256   3.200   7.159   2.988  0.1774  0.0937 -0.1540
   22MOL   H25516257   3.222   7.393   3.098 -0.8650  0.8096 -1.2967
   22MOL   H25616258   3.152   7.290   3.219 -2.8698 -0.0949  0.8455
   22MOL   H25716259   2.931   7.145   3.126  1.9778  0.9081  3.1545
   22MOL   H25816260   3.068   7.053   3.172  0.2137 -0.2352 -0.8445
   22MOL   H25916261   3.092   6.930   2.991 -1.3071 -1.3820 -0.8161
   22MOL   H26016262   2.933   6.898   3.037 -1.5068  0.5135 -1.4552
   22MOL   H26116263   2.833   7.063   2.880 -0.3066 -1.4929  0.8232
   22MOL   H26216264   2.841   6.955   2.663 -0.5114 -0.7205 -0.2037
   22MOL   H26316265   2.842   6.838   2.786 -0.9940  0.7540 -0.0535
   22MOL   H26416266   3.247   6.693   2.688  2.0916  2.5037  1.2545
   22MOL   H26516267   3.466   6.669   2.589  1.4137  2.3818 -1.2571
   22MOL   H26616268   3.332   6.841   2.222 -0.1799 -2.0339 -1.5155
   22MOL   H26716269   3.090   6.856   2.324 -1.4180  0.8457  2.4317
   22MOL   C26816270   3.734   6.240   2.360  0.4904 -0.5131  0.1690
   22MOL   C26916271   3.696   6.391   2.343  0.4061  0.4443  0.6071
   22MOL   C27016272   3.803   6.476   2.399  0.4588 -0.0875  0.3984
   22MOL   C27116273   3.768   6.627   2.374  0.0407  0.9030 -0.1676
   22MOL   C27216274   3.815   6.456   2.555  0.2712  0.4270  0.0105
   22MOL   C27316275   3.834   6.303   2.583 -0.3127 -0.2387 -0.0396
   22MOL   C27416276   3.749   6.198   2.511 -0.6114  0.1074  1.1701
   22MOL   C27516277   3.802   6.053   2.531 -0.3369  0.2462 -0.0368
   22MOL   O27616278   3.717   5.972   2.454 -0.6576 -0.0803  0.4354
   22MOL   C27716279   3.643   5.872   2.523 -0.3631 -0.2652 -0.7243
   22MOL   O27816280   3.652   5.837   2.643 -0.0344 -0.0772  0.0845
   22MOL   C27916281   3.559   5.791   2.430  0.0034 -0.2893 -0.1522
   22MOL   C28016282   3.538   5.834   2.294  0.2268 -0.5654 -0.6150
   22MOL   C28116283   3.461   5.756   2.211 -0.1747 -0.1061  0.3981
   22MOL   C28216284   3.421   5.624   2.245  0.5941 -0.1494 -0.3164
   22MOL   C28316285   3.350   5.539   2.145  0.2133  0.2552 -0.1816
   22MOL   O28416286   3.315   5.426   2.166 -0.5857 -0.0044 -0.0431
   22MOL   O28516287   3.342   5.595   2.023  0.2027  0.8300  0.0833
   22MOL   C28616288   3.464   5.579   2.368 -0.6986  0.4942 -0.0495
   22MOL   C28716289   3.516   5.664   2.470  0.4507 -0.4675  1.1943
   22MOL   H28816290   3.821   6.225   2.296 -0.8233 -2.5764 -1.1808
   22MOL   H28916291   3.656   6.179   2.315  0.1957 -1.1324  1.4948
   22MOL   H29016292   3.597   6.408   2.385 -0.9697 -0.3893 -2.2016
   22MOL   H29116293   3.673   6.427   2.243 -0.3451 -0.6662  0.3781
   22MOL   H29216294   3.898   6.445   2.354  0.1321 -0.2341 -0.1846
   22MOL   H29316295   3.790   6.663   2.273 -2.4372  0.8106 -0.7777
   22MOL   H29416296   3.844   6.677   2.434  3.4997 -2.1345 -1.7955
   22MOL   H29516297   3.715   6.486   2.585  0.4147  1.2404 -0.3158
   22MOL   H29616298   3.879   6.524   2.612 -0.6107 -0.1894  1.7710
   22MOL   H29716299   3.939   6.276   2.571 -0.0542  1.4100 -1.7793
   22MOL   H29816300   3.809   6.288   2.688 -2.4959 -2.9396 -0.8969
   22MOL   H29916301   3.655   6.207   2.565 -0.9093  0.7128  0.5640
   22MOL   H30016302   3.797   6.028   2.637 -1.0489  2.3623  0.4657
   22MOL   H30116303   3.901   6.034   2.492 -0.6877 -0.4179 -0.6170
   22MOL   H30216304   3.570   5.931   2.260  0.8957 -0.3291  0.6592
   22MOL   H30316305   3.433   5.800   2.116 -0.4222  1.2694  1.0952
   22MOL   H30416306   3.439   5.477   2.395 -1.7327  0.8434  0.3562
   22MOL   H30516307   3.537   5.619   2.566  0.8019 -0.5504  1.0817
   22MOL   C30616308   2.870   5.510   1.948 -0.1710  0.3854  0.0614
   22MOL   C30716309   3.011   5.467   1.930  0.1014 -0.4357  0.1363
   22MOL   C30816310   3.119   5.579   1.942 -0.0973  0.0866 -0.2012
   22MOL   C30916311   3.263   5.533   1.927 -0.5310 -0.5513 -0.1035
   22MOL   C31016312   3.095   5.687   1.841 -0.2888 -0.9135  0.1716
   22MOL   C31116313   2.952   5.738   1.869  0.0694  0.0537  0.6642
   22MOL   C31216314   2.845   5.619   1.843 -0.2149  0.3133  0.6988
   22MOL   C31316315   2.700   5.671   1.854  0.0903 -0.0273 -0.9261
   22MOL   O31416316   2.596   5.576   1.837 -0.1077 -0.0016  0.3720
   22MOL   C31516317   2.466   5.605   1.845 -0.3125  0.5552 -0.0936
   22MOL   O31616318   2.429   5.722   1.839  0.0750 -0.0245 -0.5536
   22MOL   C31716319   2.369   5.490   1.852 -0.2059 -0.2203 -0.9007
   22MOL   C31816320   2.409   5.358   1.825  0.0623  0.1141 -1.1457
   22MOL   C31916321   2.310   5.255   1.840  1.0542 -0.2369  0.0114
   22MOL   C32016322   2.183   5.279   1.888  0.3881  0.1473  1.0027
   22MOL   C32116323   2.080   5.173   1.908 -0.6256 -0.0832  0.1414
   22MOL   O32216324   1.964   5.199   1.940  0.0146  0.5105 -0.4521
   22MOL   O32316325   2.122   5.055   1.858  0.5819  0.4870 -0.1565
   22MOL   C32416326   2.147   5.408   1.913  0.1346 -0.0274  0.0945
   22MOL   C32516327   2.239   5.514   1.901  0.1619  0.3845 -0.5518
   22MOL   H32616328   2.842   5.553   2.044 -1.6615  2.8100 -1.4114
   22MOL   H32716329   2.811   5.421   1.925  1.0529 -0.3899 -0.1322
   22MOL   H32816330   3.021   5.406   1.840 -0.8268 -0.4495  0.0436
   22MOL   H32916331   3.037   5.402   2.014  0.5181  1.4130  1.4452
   22MOL   H33016332   3.106   5.614   2.044  0.3728 -4.4099  1.5157
   22MOL   H33116333   3.314   5.563   1.835 -1.4155  1.4461  0.0313
   22MOL   H33216334   3.281   5.425   1.929  0.4157 -0.3841  0.6086
   22MOL   H33316335   3.104   5.659   1.736 -0.8862 -3.6716  0.7984
   22MOL   H33416336   3.163   5.769   1.863  1.4396 -2.3115  0.0968
   22MOL   H33516337   2.952   5.766   1.975  1.0879 -0.3836  0.7892
   22MOL   H33616338   2.932   5.821   1.802 -0.7749 -0.1817  0.6223
   22MOL   H33716339   2.854   5.576   1.743 -2.3522  0.6250  0.3429
   22MOL   H33816340   2.678   5.744   1.777 -1.7080  0.9239  0.4411
   22MOL   H33916341   2.691   5.725   1.949 -0.0887 -1.3004 -0.2043
   22MOL   H34016342   2.509   5.328   1.795  0.6259  0.6911  0.1279
   22MOL   H34116343   2.346   5.155   1.819 -1.3189 -0.6087 -2.5892
   22MOL   H34216344   2.045   5.424   1.943  0.1600 -2.5556  1.6535
   22MOL   H34316345   2.207   5.612   1.930  1.4601  0.6696 -0.0679
   22MOL   C34416346   2.221   4.677   2.049 -0.4642 -0.4653  0.2488
   22MOL   C34516347   2.200   4.799   1.956  0.2293 -0.1275  0.2158
   22MOL   C34616348   2.059   4.852   1.967 -0.1449  0.0567 -0.3272
   22MOL   C34716349   2.032   4.949   1.853  0.4114 -0.9905 -1.0079
   22MOL   C34816350   1.953   4.728   1.968  0.0137 -0.0823  0.3306
   22MOL   C34916351   1.979   4.636   2.083  0.4742  0.1374  0.1039
   22MOL   C35016352   2.114   4.567   2.051 -0.3168  0.0910 -0.0325
   22MOL   C35116353   2.149   4.459   2.152 -0.1337  0.0528 -0.2690
   22MOL   O35216354   2.253   4.380   2.103 -0.2693  0.2855 -0.0885
   22MOL   C35316355   2.291   4.268   2.176  0.6482  0.3796  0.3953
   22MOL   O35416356   2.242   4.225   2.281  0.0099 -0.7550 -0.5328
   22MOL   C35516357   2.405   4.200   2.112  0.4992 -0.0374  0.9118
   22MOL   C35616358   2.448   4.239   1.985  0.5907 -0.1229 -0.3122
   22MOL   C35716359   2.564   4.185   1.925 -0.4085 -0.3801 -0.4776
   22MOL   C35816360   2.633   4.079   1.989  0.7871 -0.8425  0.2039
   22MOL   C35916361   2.751   4.015   1.925 -0.1210 -0.9974  0.2287
   22MOL   O36016362   2.799   3.916   1.971  0.3071  0.1482 -0.2587
   22MOL   O36116363   2.803   4.077   1.816 -0.3442  0.2327 -0.7969
   22MOL   C36216364   2.589   4.036   2.120  0.3124  0.1100  0.2031
   22MOL   C36316365   2.476   4.100   2.175 -0.4437 -0.0153 -0.5354
   22MOL   H36416366   2.245   4.722   2.145 -1.1158  0.7049 -0.1244
   22MOL   H36516367   2.305   4.620   2.009 -0.0480  1.1717 -1.3061
   22MOL   H36616368   2.203   4.785   1.848 -1.7264  1.6023 -0.1052
   22MOL   H36716369   2.285   4.865   1.976 -0.2822 -0.3829  3.4166
   22MOL   H36816370   2.058   4.895   2.068 -0.1956 -0.1442 -0.2419
   22MOL   H36916371   1.930   4.988   1.857 -0.1863 -2.6499  0.1967
   22MOL   H37016372   2.037   4.901   1.755 -0.4919 -1.0552 -1.0233
   22MOL   H37116373   1.958   4.680   1.870 -0.8061  1.0521 -0.2748
   22MOL   H37216374   1.851   4.764   1.981  0.2443  0.4252  0.7792
   22MOL   H37316375   1.989   4.682   2.182 -5.1718 -1.5084  1.6069
   22MOL   H37416376   1.894   4.568   2.089  0.9337 -0.5781 -1.4036
   22MOL   H37516377   2.102   4.512   1.958 -0.4013 -1.1952  0.7280
   22MOL   H37616378   2.056   4.408   2.179 -0.9487  2.0183  0.7354
   22MOL   H37716379   2.178   4.507   2.244 -2.5213  0.0444  0.5332
   22MOL   H37816380   2.389   4.311   1.930  0.8323  0.2730 -0.0585
   22MOL   H37916381   2.604   4.216   1.830  4.2371 -0.8146  1.2208
   22MOL   H38016382   2.646   3.963   2.175  1.9922  1.9001  0.8873
   22MOL   H38116383   2.465   4.077   2.280 -0.1821 -1.1276 -0.7390
   22MOL   C38216384   3.137   4.341   1.699  0.2194 -0.5116  0.4990
   22MOL   C38316385   3.049   4.237   1.771  1.0287 -0.1292  0.8875
   22MOL   C38416386   3.014   4.118   1.684  0.1413  0.2242 -0.5560
   22MOL   C38516387   2.924   4.023   1.755 -0.4605 -0.2097  0.0498
   22MOL   C38616388   2.946   4.156   1.549 -0.4127 -0.0012  0.3561
   22MOL   C38716389   3.044   4.253   1.474 -0.1386  0.5018  0.3002
   22MOL   C38816390   3.087   4.376   1.558 -0.1879 -0.6585  0.5259
   22MOL   C38916391   3.161   4.485   1.490 -0.2965 -0.0035 -0.3380
   22MOL   O39016392   3.140   4.606   1.561  0.0383 -0.4190 -0.4376
   22MOL   C39116393   3.235   4.674   1.629 -0.1933  0.1084 -0.0139
   22MOL   O39216394   3.356   4.631   1.634  0.6647 -0.1331 -0.4260
   22MOL   C39316395   3.185   4.795   1.710  0.3555  0.1174  0.4739
   22MOL   C39416396   3.270   4.871   1.787  0.1852  0.4614  0.0470
   22MOL   C39516397   3.223   4.979   1.864  0.3475  0.5331 -0.5081
   22MOL   C39616398   3.085   5.002   1.871  0.4320  0.6975  0.0326
   22MOL   C39716399   3.025   5.099   1.966  0.0546  0.0592 -1.0124
   22MOL   O39816400   2.910   5.145   1.955  0.3130 -0.1612  0.4516
   22MOL   O39916401   3.108   5.132   2.065  0.6025 -0.4608 -0.0679
   22MOL   C40016402   2.998   4.930   1.780 -0.2237 -0.4409  0.2657
   22MOL   C40116403   3.048   4.829   1.695 -0.4537  0.0002 -0.5226
   22MOL   H40216404   3.244   4.323   1.692  0.4766 -0.3518  3.2553
   22MOL   H40316405   3.131   4.429   1.764  1.6688  1.5453 -2.0443
   22MOL   H40416406   2.957   4.279   1.812  0.6087  0.8551 -1.0087
   22MOL   H40516407   3.093   4.213   1.867 -0.4433  0.7791  1.8271
   22MOL   H40616408   3.102   4.063   1.651  1.1657  2.7720 -2.2207
   22MOL   H40716409   2.987   3.974   1.829 -0.2858 -0.3369 -0.1807
   22MOL   H40816410   2.880   3.953   1.684 -0.6733  0.4253 -0.4487
   22MOL   H40916411   2.846   4.195   1.569 -0.8761 -1.1575  0.3490
   22MOL   H41016412   2.942   4.066   1.487  2.1178 -0.6619  1.1243
   22MOL   H41116413   3.133   4.206   1.434 -0.5003  1.3229 -1.4819
   22MOL   H41216414   2.993   4.278   1.381  2.0551  1.3779 -0.7075
   22MOL   H41316415   2.987   4.410   1.584  0.8938  1.9314  1.4808
   22MOL   H41416416   3.133   4.501   1.385  0.8618 -0.8727 -0.7792
   22MOL   H41516417   3.268   4.469   1.492 -0.1638  0.8167 -0.5163
   22MOL   H41616418   3.375   4.847   1.793 -0.3671 -2.2442 -0.4594
   22MOL   H41716419   3.294   5.022   1.933 -0.6009 -0.9535  1.4457
   22MOL   H41816420   2.893   4.959   1.778  0.3654  1.7889 -3.1483
   22MOL   H41916421   2.983   4.767   1.636 -1.6033 -0.2615  0.9893
   22MOL   C42016422   3.198   4.913   2.417  0.1711 -0.1706  0.1861
   22MOL   C42116423   3.200   5.033   2.320 -0.4940 -0.1564  0.0901
   22MOL   C42216424   3.056   5.092   2.306 -0.0821 -0.4070 -0.1477
   22MOL   C42316425   3.063   5.191   2.190 -0.1276 -0.0057 -0.1528
   22MOL   C42416426   2.944   4.981   2.288  0.9080 -0.1379 -0.8497
   22MOL   C42516427   2.954   4.877   2.391 -0.2735 -0.2895 -0.7066
   22MOL   C42616428   3.092   4.808   2.384  0.4847 -0.2739  0.2995
   22MOL   C42716429   3.110   4.685   2.468  0.0339 -0.1369  0.2397
   22MOL   O42816430   3.081   4.708   2.608 -0.3526  0.7807  0.1619
   22MOL   C42916431   2.959   4.686   2.654 -0.5756 -0.3461 -0.1537
   22MOL   O43016432   2.865   4.632   2.593  0.0464 -0.0497  0.1541
   22MOL   C43116433   2.929   4.745   2.783  0.6407  0.6485 -0.2507
   22MOL   C43216434   3.035   4.785   2.865  0.0975 -0.0146 -0.3426
   22MOL   C43316435   3.014   4.862   2.979  0.3398  0.6791 -0.1763
   22MOL   C43416436   2.886   4.882   3.024  0.0088 -0.1048  0.2020
   22MOL   C43516437   2.857   4.928   3.159  0.4272  0.2060 -0.2697
   22MOL   O43616438   2.743   4.936   3.203  0.7625  0.2740 -0.1151
   22MOL   O43716439   2.967   4.958   3.233  0.4698  0.0017  0.2176
   22MOL   C43816440   2.778   4.836   2.947 -0.6103  0.3366  0.5053
   22MOL   C43916441   2.802   4.768   2.827  0.0782  0.2542 -0.4156
   22MOL   H44016442   3.178   4.956   2.515  1.1773 -0.2805  0.4370
   22MOL   H44116443   3.295   4.864   2.411  0.5428  0.7319 -1.4674
   22MOL   H44216444   3.240   5.003   2.223  3.1455  0.2987  1.3528
   22MOL   H44316445   3.267   5.110   2.359  0.3971  0.5703 -2.7520
   22MOL   H44416446   3.021   5.147   2.393 -0.3729  0.4047 -0.7737
   22MOL   H44516447   3.141   5.261   2.221  0.5128 -1.0309  0.5865
   22MOL   H44616448   2.969   5.245   2.181  0.2231  0.5419 -0.5590
   22MOL   H44716449   2.957   4.932   2.192  0.7036 -1.2222 -0.3317
   22MOL   H44816450   2.843   5.021   2.299 -0.0708 -3.1872  1.8713
   22MOL   H44916451   2.933   4.914   2.491  0.8615  0.2924 -0.6784
   22MOL   H45016452   2.885   4.796   2.368  0.9661 -1.1348 -1.5285
   22MOL   H45116453   3.099   4.775   2.280 -3.1617  2.4476 -0.9124
   22MOL   H45216454   3.207   4.640   2.450  0.6162  0.9705  0.5503
   22MOL   H45316455   3.035   4.614   2.434 -1.5910  1.8096 -0.3515
   22MOL   H45416456   3.137   4.757   2.840 -0.3749 -2.3023  0.1924
   22MOL   H45516457   3.091   4.899   3.045  0.6317  0.1942 -0.2390
   22MOL   H45616458   2.677   4.838   2.984 -0.8740  2.5464 -0.2837
   22MOL   H45716459   2.712   4.746   2.771 -1.5927 -0.9612  2.6212
   22MOL   C45816460   3.265   5.114   3.514  0.2510 -0.2692  1.1893
   22MOL   C45916461   3.128   5.096   3.439  0.3243 -0.3463 -0.3716
   22MOL   C46016462   3.081   4.953   3.442  0.0709 -0.0915  0.1278
   22MOL   C46116463   2.947   4.938   3.371 -0.0070 -0.1014 -0.1395
   22MOL   C46216464   3.179   4.851   3.391 -0.8726 -0.3213  0.2356
   22MOL   C46316465   3.322   4.871   3.465 -0.5744  0.5495  0.3185
   22MOL   C46416466   3.374   5.016   3.467  0.4862  0.1772 -0.1065
   22MOL   C46516467   3.508   5.024   3.546 -0.0796 -0.6662  0.3967
   22MOL   O46616468   3.545   5.160   3.578  0.1162  0.1643  0.3331
   22MOL   C46716469   3.639   5.177   3.676  0.1960 -0.4542  0.1232
   22MOL   O46816470   3.717   5.091   3.716 -0.0226 -0.0887 -0.3386
   22MOL   C46916471   3.627   5.316   3.723 -0.3707 -0.1432  0.3545
   22MOL   C47016472   3.700   5.362   3.833 -0.0754 -0.7566 -0.2216
   22MOL   C47116473   3.676   5.484   3.891  0.3405  0.5210 -0.1248
   22MOL   C47216474   3.566   5.560   3.849 -0.1985  0.4253 -0.0503
   22MOL   C47316475   3.536   5.692   3.913 -0.1032  0.0916 -0.0279
   22MOL   O47416476   3.605   5.727   4.008  0.1392  0.0600 -0.1454
   22MOL   O47516477   3.429   5.752   3.859 -0.3193 -0.7439  0.0544
   22MOL   C47616478   3.492   5.513   3.738 -0.0941 -0.6129 -0.8119
   22MOL   C47716479   3.524   5.395   3.669 -0.1134 -0.9475  0.6473
   22MOL   H47816480   3.251   5.094   3.621 -1.8975  0.4474  1.0673
   22MOL   H47916481   3.304   5.214   3.501  1.6199 -0.8555  0.7135
   22MOL   H48016482   3.140   5.131   3.337 -0.0027  1.7752  0.2944
   22MOL   H48116483   3.051   5.160   3.483  1.4958  1.0950 -0.3829
   22MOL   H48216484   3.064   4.940   3.549  0.1239  2.0604  0.4156
   22MOL   H48316485   2.867   5.004   3.403  0.1697 -0.6590  1.5067
   22MOL   H48416486   2.903   4.840   3.391 -2.8199  0.7304 -1.9238
   22MOL   H48516487   3.194   4.852   3.283  2.0862 -0.4832  0.5918
   22MOL   H48616488   3.138   4.754   3.418 -1.2926 -0.9788 -2.6085
   22MOL   H48716489   3.304   4.840   3.567 -0.7752  1.9048  0.7110
   22MOL   H48816490   3.404   4.808   3.431 -0.7299  0.7060 -0.3745
   22MOL   H48916491   3.397   5.041   3.363  0.0394  1.3136  0.0650
   22MOL   H49016492   3.588   4.970   3.495  0.9176  1.3479 -0.2164
   22MOL   H49116493   3.472   4.994   3.645 -1.2824  0.2150  0.2382
   22MOL   H49216494   3.773   5.297   3.879  2.2349  2.3419  0.6512
   22MOL   H49316495   3.726   5.503   3.984  0.2921  0.2105 -0.0349
   22MOL   H49416496   3.408   5.571   3.702 -0.0071  0.1097  0.1489
   22MOL   H49516497   3.465   5.370   3.582 -0.7368  0.9704  0.5041
   22MOL   C49616498   3.148   6.146   3.801 -0.3254 -0.1472 -0.0012
   22MOL   C49716499   3.276   6.081   3.839 -0.4311 -0.7478  0.0792
   22MOL   C49816500   3.280   5.931   3.827 -0.3989 -0.7302  0.2051
   22MOL   C49916501   3.405   5.884   3.892 -0.4353  0.4319 -0.2217
   22MOL   C50016502   3.160   5.858   3.888  0.0592 -0.2958 -0.2054
   22MOL   C50116503   3.033   5.918   3.820 -0.0566 -0.3822  0.3388
   22MOL   C50216504   3.026   6.066   3.853  0.6300 -0.2634 -0.9550
   22MOL   C50316505   2.893   6.128   3.797 -0.3196  0.2615 -0.7069
   22MOL   O50416506   2.880   6.115   3.653  0.8891  0.6057  0.0101
   22MOL   C50516507   2.798   6.017   3.610 -0.5315 -0.5984 -0.1745
   22MOL   O50616508   2.697   5.983   3.663  0.7009 -0.0775  0.4522
   22MOL   C50716509   2.852   5.949   3.490 -0.5522  0.3316 -0.9034
   22MOL   C50816510   2.985   5.959   3.446  0.7999 -0.3819  0.8830
   22MOL   C50916511   3.037   5.886   3.331  0.7661 -0.2044  0.1158
   22MOL   C51016512   2.947   5.798   3.259  0.8935  0.4868  0.5586
   22MOL   C51116513   2.995   5.706   3.146  0.2309 -0.8874  0.0934
   22MOL   O51216514   2.912   5.647   3.076 -0.1189 -0.1810  0.1790
   22MOL   O51316515   3.127   5.716   3.126  0.0095  0.1342 -0.0774
   22MOL   C51416516   2.813   5.794   3.302  0.9853 -0.0541 -0.0758
   22MOL   C51516517   2.772   5.864   3.417  0.1807 -0.3097 -0.9087
   22MOL   H51616518   3.139   6.170   3.695 -0.8366  1.4122  0.3833
   22MOL   H51716519   3.147   6.245   3.846 -0.1644 -0.2904  0.3195
   22MOL   H51816520   3.292   6.105   3.944 -0.9682  1.3411 -0.3076
   22MOL   H51916521   3.359   6.124   3.783 -1.5759  1.1872 -0.1448
   22MOL   H52016522   3.282   5.909   3.721  0.1480 -1.1820  0.3086
   22MOL   H52116523   3.397   5.893   4.001 -0.9725 -0.9408 -0.1379
   22MOL   H52216524   3.490   5.933   3.844 -0.7312  1.0161 -0.1521
   22MOL   H52316525   3.164   5.869   3.997  0.6741 -1.0648 -0.1408
   22MOL   H52416526   3.164   5.751   3.866  1.5687 -0.0811 -1.0224
   22MOL   H52516527   3.026   5.901   3.713 -0.4611 -0.8352  0.4368
   22MOL   H52616528   2.954   5.858   3.864  0.5952 -2.7470 -1.6123
   22MOL   H52716529   3.030   6.076   3.961 -2.3681 -2.1922 -0.6298
   22MOL   H52816530   2.899   6.234   3.822 -1.1971 -0.1591  1.3702
   22MOL   H52916531   2.809   6.082   3.848 -1.6226  1.5541 -1.6420
   22MOL   H53016532   3.057   6.018   3.501 -0.7032  1.7056  0.7103
   22MOL   H53116533   3.142   5.892   3.306  0.5349 -1.2933 -1.1554
   22MOL   H53216534   2.742   5.723   3.263 -0.9422  0.7588  1.8305
   22MOL   H53316535   2.668   5.860   3.448  0.7754  0.4472  1.2226
   22MOL   C53416536   3.555   5.590   2.902 -0.6583  0.0333  0.2055
   22MOL   C53516537   3.404   5.583   2.895 -0.0891 -0.4027 -0.7003
   22MOL   C53616538   3.344   5.658   3.020  0.4550 -0.0773  0.5382
   22MOL   C53716539   3.192   5.644   3.025 -0.1758  0.5346 -1.1020
   22MOL   C53816540   3.401   5.605   3.151  0.4301 -0.0695 -0.0039
   22MOL   C53916541   3.556   5.597   3.159 -0.3322 -0.6450  0.5875
   22MOL   C54016542   3.608   5.519   3.032 -0.7096 -0.3593 -0.3950
   22MOL   C54116543   3.761   5.507   3.036  0.2383 -0.4720 -0.2115
   22MOL   O54216544   3.809   5.432   3.145  0.8195 -0.1348 -0.1899
   22MOL   C54316545   3.936   5.399   3.148 -0.3273 -0.6985 -0.0899
   22MOL   O54416546   4.019   5.442   3.063  0.5637 -0.5070 -0.3759
   22MOL   C54516547   3.980   5.312   3.259  0.2180 -0.0488  0.4280
   22MOL   C54616548   4.112   5.257   3.259  0.9465  0.2303  0.1270
   22MOL   C54716549   4.155   5.194   3.377 -0.4622  0.0808 -0.0673
   22MOL   C54816550   4.074   5.161   3.483  1.2592 -0.8504  0.8904
   22MOL   C54916551   4.131   5.088   3.592  0.6880  0.0181 -0.7210
   22MOL   O55016552   4.216   5.001   3.575 -0.1681  0.0530 -0.2085
   22MOL   O55116553   4.084   5.115   3.716 -0.3310  0.1332  0.8627
   22MOL   C55216554   3.943   5.219   3.481 -0.0072 -0.4579  0.6488
   22MOL   C55316555   3.904   5.295   3.374  0.7802 -0.2820  0.1683
   22MOL   H55416556   3.590   5.692   2.886  0.6640 -0.0555  2.2880
   22MOL   H55516557   3.599   5.535   2.818  0.8862  2.0482 -0.3412
   22MOL   H55616558   3.376   5.478   2.901  2.5128 -1.0415  1.5126
   22MOL   H55716559   3.365   5.633   2.807 -0.3115  2.1262  0.7863
   22MOL   H55816560   3.366   5.765   3.014  0.0273 -0.0738 -1.0508
   22MOL   H55916561   3.181   5.536   3.033 -1.0683  0.6326 -0.9266
   22MOL   H56016562   3.149   5.672   2.929 -1.6317  0.4762 -0.4744
   22MOL   H56116563   3.372   5.501   3.169 -2.6678  0.2383 -2.5749
   22MOL   H56216564   3.370   5.670   3.232 -2.1834  1.2640 -1.9863
   22MOL   H56316565   3.603   5.695   3.165 -0.4535 -0.5240 -0.3035
   22MOL   H56416566   3.589   5.552   3.252  0.2082  0.8322  1.1310
   22MOL   H56516567   3.558   5.423   3.039 -0.8376 -0.2974 -0.4714
   22MOL   H56616568   3.806   5.606   3.037  0.3936 -0.3793 -5.0405
   22MOL   H56716569   3.784   5.461   2.939 -1.8651 -1.6338 -0.1915
   22MOL   H56816570   4.186   5.274   3.182  3.9360 -0.7304  2.6857
   22MOL   H56916571   4.255   5.153   3.373 -0.8124 -0.7225 -0.6675
   22MOL   H57016572   3.877   5.217   3.566  0.3957  0.8240  0.9952
   22MOL   H57116573   3.810   5.346   3.390  1.5657  0.8988  1.0681
   22MOL   C57216574   3.886   4.758   3.879  0.3254  0.0759  0.2572
   22MOL   C57316575   3.963   4.857   3.799 -0.3041  0.4095 -0.1898
   22MOL   C57416576   4.046   4.956   3.893 -0.1701 -0.5543 -0.4919
   22MOL   C57516577   4.147   5.045   3.825  0.5455 -0.7583  0.3978
   22MOL   C57616578   3.944   5.026   3.982 -0.0544 -0.5715  0.3168
   22MOL   C57716579   3.864   4.927   4.064 -0.4604 -0.3447 -1.1494
   22MOL   C57816580   3.788   4.829   3.976 -0.3870 -0.2793 -0.1448
   22MOL   C57916581   3.713   4.725   4.055 -0.7089 -0.3435  0.1292
   22MOL   O58016582   3.577   4.759   4.077  0.1508  0.2447 -0.0944
   22MOL   C58116583   3.482   4.773   3.977 -0.5370 -0.0491 -0.4570
   22MOL   O58216584   3.508   4.752   3.860 -0.0777 -0.2123  0.4067
   22MOL   C58316585   3.360   4.838   4.026 -0.9071  0.5372  0.1754
   22MOL   C58416586   3.261   4.868   3.933 -0.5632 -0.5756  0.4293
   22MOL   C58516587   3.150   4.935   3.969  0.0092  0.0725 -0.1130
   22MOL   C58616588   3.131   4.969   4.105 -0.2352 -0.0309  0.1892
   22MOL   C58716589   2.999   5.022   4.150 -0.6753 -0.5207  0.2574
   22MOL   O58816590   2.908   5.042   4.069 -0.0855  0.1546 -0.2000
   22MOL   O58916591   2.998   5.046   4.276 -0.2102  0.5648 -0.0863
   22MOL   C59016592   3.233   4.947   4.202  0.7815 -0.0450 -0.4888
   22MOL   C59116593   3.342   4.869   4.163 -1.3798 -0.1284  0.1691
   22MOL   H59216594   3.956   4.691   3.929  0.0430  0.2374  0.8754
   22MOL   H59316595   3.826   4.698   3.811 -0.0173 -0.3457  0.9323
   22MOL   H59416596   3.900   4.917   3.733  2.8861  2.3701 -1.6087
   22MOL   H59516597   4.046   4.820   3.738  0.9766  0.3438  1.5419
   22MOL   H59616598   4.091   4.898   3.973 -3.0475 -0.1223  1.5272
   22MOL   H59716599   4.222   4.976   3.787  1.9216  1.6433 -1.3796
   22MOL   H59816600   4.205   5.112   3.889 -1.4407  0.8819  0.5268
   22MOL   H59916601   3.880   5.098   3.931  1.1990 -0.5681 -1.2850
   22MOL   H60016602   4.009   5.083   4.049 -0.5919 -0.7690  1.0146
   22MOL   H60116603   3.935   4.882   4.132 -0.8682  1.0889  0.2751
   22MOL   H60216604   3.789   4.986   4.119  2.2858  3.3163 -1.1320
   22MOL   H60316605   3.713   4.885   3.921  0.0379  0.9038  0.4812
   22MOL   H60416606   3.760   4.714   4.153  0.9450 -1.2252 -0.7453
   22MOL   H60516607   3.720   4.630   4.003 -1.2375  0.7471 -1.9736
   22MOL   H60616608   3.263   4.835   3.831 -0.3672 -0.7522  0.4897
   22MOL   H60716609   3.076   4.968   3.897 -0.4130  0.6859  0.5990
   22MOL   H60816610   3.227   4.978   4.306 -2.1509 -1.2542 -0.2564
   22MOL   H60916611   3.417   4.847   4.237 -1.5415 -2.9461 -0.4324
   22MOL   C61016612   2.814   5.397   4.483 -0.0325 -0.1233 -0.4059
   22MOL   C61116613   2.827   5.298   4.376 -0.1743 -0.3300 -0.0853
   22MOL   C61216614   2.855   5.156   4.434  0.0422 -0.5688  0.2416
   22MOL   C61316615   2.868   5.049   4.332  0.7846  0.4355 -0.8015
   22MOL   C61416616   2.972   5.151   4.537 -0.0353  0.4497  0.1581
   22MOL   C61516617   2.956   5.270   4.644 -0.2339  0.1932 -0.8725
   22MOL   C61616618   2.943   5.408   4.565  0.0049  1.0993  0.0211
   22MOL   C61716619   2.922   5.538   4.648 -0.5878  0.0569  0.1408
   22MOL   O61816620   2.812   5.516   4.733 -0.4142 -0.5663 -0.4063
   22MOL   C61916621   2.704   5.601   4.724 -0.4123 -0.2284  0.0831
   22MOL   O62016622   2.697   5.698   4.647  0.2532 -0.3454  0.3797
   22MOL   C62116623   2.587   5.554   4.803 -0.2974 -0.4426  0.5636
   22MOL   C62216624   2.458   5.607   4.781  0.7887  0.4466  0.4160
   22MOL   C62316625   2.354   5.566   4.863 -0.3420 -0.0319  0.2250
   22MOL   C62416626   2.372   5.470   4.969 -0.3612 -0.3217  1.3511
   22MOL   C62516627   2.273   5.434   5.068 -0.3792 -0.2183  0.2137
   22MOL   O62616628   2.155   5.470   5.062 -0.6804 -0.1470  0.0481
   22MOL   O62716629   2.320   5.365   5.182 -0.0054  0.1783 -0.2580
   22MOL   C62816630   2.500   5.418   4.983 -0.2698 -0.3874  0.1943
   22MOL   C62916631   2.609   5.453   4.901 -0.0775 -0.1106  0.1595
   22MOL   H63016632   2.724   5.385   4.543 -0.6456  0.0201 -1.2795
   22MOL   H63116633   2.805   5.495   4.435 -1.4789  0.9959  2.0672
   22MOL   H63216634   2.900   5.327   4.300  0.2634 -2.2876 -0.4215
   22MOL   H63316635   2.732   5.293   4.324  0.4323  2.3197 -1.5335
   22MOL   H63416636   2.766   5.132   4.493  0.5349  1.0628  1.7106
   22MOL   H63516637   2.784   5.046   4.263 -0.2699 -1.3112  0.5298
   22MOL   H63616638   2.849   4.955   4.385 -0.7257  1.3764  0.3653
   22MOL   H63716639   3.068   5.151   4.486  0.1950 -2.6997  0.5273
   22MOL   H63816640   2.965   5.058   4.593 -0.6289 -0.9763 -2.2395
   22MOL   H63916641   2.858   5.261   4.691  0.3807  2.0889  0.7793
   22MOL   H64016642   3.036   5.276   4.717 -1.5931  0.7830  0.5826
   22MOL   H64116643   3.027   5.420   4.496  0.0313 -2.2089 -0.6166
   22MOL   H64216644   2.907   5.625   4.583 -0.0767 -0.5432 -0.7917
   22MOL   H64316645   3.011   5.557   4.707 -0.3456 -1.8017  0.3988
   22MOL   H64416646   2.454   5.669   4.693  0.3184 -3.2849 -2.3530
   22MOL   H64516647   2.253   5.602   4.849 -1.5730 -2.9808  1.1492
   22MOL   H64616648   2.518   5.339   5.055  3.2233  0.7946  0.7206
   22MOL   H64716649   2.708   5.414   4.916 -0.2786 -1.2737 -1.4775
   22MOL   C64816650   2.296   5.263   5.664  0.7195 -0.1329  0.2297
   22MOL   C64916651   2.221   5.265   5.529  0.5407 -1.0394 -0.0325
   22MOL   C65016652   2.314   5.327   5.416 -0.1806  0.0244  0.6126
   22MOL   C65116653   2.233   5.319   5.285  0.0789 -0.4112  0.7685
   22MOL   C65216654   2.346   5.471   5.450  0.2910  0.1164  0.0408
   22MOL   C65316655   2.401   5.477   5.591  0.0946  0.0466  0.1348
   22MOL   C65416656   2.325   5.408   5.702 -0.8201  0.3449  0.2538
   22MOL   C65516657   2.406   5.414   5.828  0.7168 -0.0981 -0.2640
   22MOL   O65616658   2.336   5.372   5.946  0.2687  0.1800  0.4250
   22MOL   C65716659   2.410   5.375   6.056  0.1095  0.2293 -0.6962
   22MOL   O65816660   2.523   5.418   6.068  0.1786 -0.1245  0.2879
   22MOL   C65916661   2.329   5.333   6.174 -0.6788  0.1612 -0.7939
   22MOL   C66016662   2.385   5.367   6.303 -0.1675 -0.8982 -0.2432
   22MOL   C66116663   2.313   5.344   6.418  0.3763 -0.0045 -0.1595
   22MOL   C66216664   2.187   5.278   6.409 -1.1772  0.0307  0.5699
   22MOL   C66316665   2.121   5.260   6.544  0.2503  0.9398 -0.6560
   22MOL   O66416666   2.171   5.294   6.649  0.1861 -0.0083 -0.7631
   22MOL   O66516667   1.998   5.216   6.530 -0.4031  0.2913  0.5222
   22MOL   C66616668   2.136   5.232   6.285  0.3385  0.3088 -0.0017
   22MOL   C66716669   2.208   5.262   6.169 -0.6211 -0.1132  0.2910
   22MOL   H66816670   2.391   5.209   5.656  0.6896 -0.5223  2.3449
   22MOL   H66916671   2.234   5.233   5.747  1.3942  0.4440  0.9515
   22MOL   H67016672   2.129   5.323   5.531  1.7728  0.9198  1.2123
   22MOL   H67116673   2.191   5.162   5.507  2.7165 -2.1673  1.9329
   22MOL   H67216674   2.413   5.282   5.414 -0.2623 -0.1567  0.6401
   22MOL   H67316675   2.134   5.362   5.301  0.1062 -1.2255  3.3876
   22MOL   H67416676   2.216   5.214   5.260 -1.2638  0.5384 -2.5297
   22MOL   H67516677   2.248   5.518   5.450 -0.2747 -1.0523 -0.1940
   22MOL   H67616678   2.413   5.523   5.381 -1.5380  2.1950 -0.2223
   22MOL   H67716679   2.504   5.443   5.587  0.1724  0.3426 -0.4035
   22MOL   H67816680   2.410   5.581   5.623 -1.1821 -0.0045  0.6802
   22MOL   H67916681   2.237   5.470   5.714 -1.3155 -0.2926 -0.0452
   22MOL   H68016682   2.440   5.516   5.844 -1.3245  0.1518  3.0791
   22MOL   H68116683   2.491   5.346   5.829  0.1548 -0.8057  0.9112
   22MOL   H68216684   2.477   5.422   6.308 -0.6408 -0.1465  0.3662
   22MOL   H68316685   2.358   5.382   6.509  1.8307 -3.1303  0.5073
   22MOL   H68416686   2.042   5.179   6.290  1.2057 -1.1686  0.8464
   22MOL   H68516687   2.175   5.233   6.070 -0.7461  0.6168  0.1157
   22MOL   C68616688   1.615   5.425   6.615 -0.2904 -0.3778 -0.3834
   22MOL   C68716689   1.755   5.385   6.628 -0.5738 -0.3141 -0.1064
   22MOL   C68816690   1.777   5.233   6.624 -0.0746 -0.3841 -0.7656
   22MOL   C68916691   1.923   5.193   6.645  0.1038 -0.0545 -0.5807
   22MOL   C69016692   1.680   5.157   6.710 -0.4623 -0.0916 -0.2128
   22MOL   C69116693   1.532   5.204   6.713  0.0559 -0.0413  0.9129
   22MOL   C69216694   1.532   5.357   6.724  0.5709 -0.1379 -0.3621
   22MOL   C69316695   1.388   5.414   6.714  0.2007 -0.4115  0.2763
   22MOL   O69416696   1.388   5.553   6.753 -0.2992 -0.1834  0.0461
   22MOL   C69516697   1.354   5.585   6.877  0.6071  0.1871  0.4047
   22MOL   O69616698   1.326   5.500   6.958 -0.1867  0.6003 -0.0123
   22MOL   C69716699   1.348   5.733   6.893  0.3243  0.0003  0.6995
   22MOL   C69816700   1.388   5.828   6.799 -0.2388 -0.1100  0.1103
   22MOL   C69916701   1.388   5.964   6.823  1.1207  0.1936 -0.3343
   22MOL   C70016702   1.339   6.014   6.945 -0.3845  0.0259 -0.1912
   22MOL   C70116703   1.318   6.156   6.968  0.1844 -0.2772  0.6845
   22MOL   O70216704   1.365   6.248   6.902  0.1320 -0.2665 -0.1887
   22MOL   O70316705   1.218   6.173   7.062  0.0947  0.3328 -0.2246
   22MOL   C70416706   1.288   5.918   7.036 -0.5205 -0.9920  0.1336
   22MOL   C70516707   1.296   5.782   7.010  0.4614 -0.0209 -0.4664
   22MOL   H70616708   1.562   5.405   6.521 -0.0921  3.2172 -1.3150
   22MOL   H70716709   1.615   5.533   6.627 -0.3565  0.0582 -3.8444
   22MOL   H70816710   1.800   5.405   6.725  0.9155  3.0620 -1.4015
   22MOL   H70916711   1.820   5.420   6.549  0.1882  1.0421  1.1062
   22MOL   H71016712   1.751   5.225   6.519  1.8415  2.8500 -1.5409
   22MOL   H71116713   1.915   5.087   6.671 -1.6654 -0.0210 -0.9073
   22MOL   H71216714   1.964   5.248   6.730 -0.7259  0.4182 -0.4799
   22MOL   H71316715   1.707   5.153   6.815  1.0120  1.1433 -0.5215
   22MOL   H71416716   1.688   5.052   6.682 -0.6120 -0.4437  1.0441
   22MOL   H71516717   1.491   5.174   6.616 -0.1440  0.2410  0.9085
   22MOL   H71616718   1.471   5.154   6.788 -0.7077 -0.5907 -0.0635
   22MOL   H71716719   1.577   5.388   6.818  1.5099  2.0756 -1.5174
   22MOL   H71816720   1.327   5.351   6.777  0.2950 -1.3819 -0.5926
   22MOL   H71916721   1.351   5.415   6.611 -0.4806  0.4527  0.5231
   22MOL   H72016722   1.428   5.799   6.703 -0.3698  1.5181 -0.4546
   22MOL   H72116723   1.422   6.027   6.742  1.2467  0.5061 -0.0360
   22MOL   H72216724   1.250   5.952   7.132  2.1656 -1.6720  1.4985
   22MOL   H72316725   1.259   5.722   7.091 -0.1278  0.1578 -0.5951
   22MOL   C72416726   1.107   6.269   7.480 -0.2352  0.6072  0.2736
   22MOL   C72516727   1.182   6.269   7.351  0.1868 -0.1804 -0.2852
   22MOL   C72616728   1.093   6.309   7.233 -0.6221  0.1442  0.4994
   22MOL   C72716729   1.174   6.306   7.099  0.2489  0.1472 -0.2249
   22MOL   C72816730   0.967   6.211   7.228 -0.6578  0.2044  0.3768
   22MOL   C72916731   0.896   6.206   7.363  0.7354  0.5677 -0.0920
   22MOL   C73016732   0.996   6.163   7.467 -0.3129 -0.4371  0.5466
   22MOL   C73116733   0.918   6.132   7.599  0.3692  0.3897 -0.3625
   22MOL   O73216734   0.846   6.239   7.657  0.1550  0.0268  0.4494
   22MOL   C73316735   0.777   6.219   7.772  0.0157 -0.3689  0.4613
   22MOL   O73416736   0.777   6.109   7.830 -0.0775  0.2892  0.3059
   22MOL   C73516737   0.702   6.340   7.810 -0.2666 -0.4640 -0.0938
   22MOL   C73616738   0.598   6.328   7.904  0.5092  0.1056  0.5297
   22MOL   C73716739   0.525   6.441   7.946  0.3045 -0.2811  0.6037
   22MOL   C73816740   0.560   6.567   7.891  0.9529  0.8162 -0.0290
   22MOL   C73916741   0.470   6.686   7.927  0.5370  0.6218  0.8143
   22MOL   O74016742   0.390   6.678   8.021 -0.5753 -0.3564  0.1904
   22MOL   O74116743   0.470   6.779   7.828  0.1390  0.0775  0.1043
   22MOL   C74216744   0.663   6.579   7.798 -0.5928 -0.6825 -0.0866
   22MOL   C74316745   0.740   6.466   7.758 -0.1219 -0.4220  0.8265
   22MOL   H74416746   1.060   6.363   7.508  1.8439  1.4367  1.0601
   22MOL   H74516747   1.175   6.244   7.562  0.0153 -1.9706 -0.6827
   22MOL   H74616748   1.233   6.172   7.347  0.4879 -0.0742  0.6765
   22MOL   H74716749   1.271   6.332   7.343  0.7278 -0.8306  0.3969
   22MOL   H74816750   1.069   6.416   7.236  0.8905  0.5268 -0.8194
   22MOL   H74916751   1.266   6.365   7.105 -0.0481  0.6021 -0.0696
   22MOL   H75016752   1.121   6.353   7.016 -0.9563  0.0066  0.4553
   22MOL   H75116753   1.002   6.110   7.209 -1.9635 -0.3418  0.8108
   22MOL   H75216754   0.901   6.242   7.147 -0.6599  1.0732  0.7039
   22MOL   H75316755   0.858   6.305   7.387 -0.9841  0.5220 -2.4069
   22MOL   H75416756   0.813   6.136   7.354 -0.2577  1.5454  1.3284
   22MOL   H75516757   1.043   6.066   7.447 -2.2445 -1.3284  0.2148
   22MOL   H75616758   0.995   6.107   7.672 -1.4984 -1.7995  0.9129
   22MOL   H75716759   0.869   6.035   7.604 -0.5580  0.8981  0.5639
   22MOL   H75816760   0.583   6.229   7.944 -0.3555  0.1232  0.2643
   22MOL   H75916761   0.451   6.437   8.024  1.5435  0.5759  1.8344
   22MOL   H76016762   0.691   6.672   7.751  3.9049 -1.4968  0.7744
   22MOL   H76116763   0.826   6.478   7.694 -0.0982  2.6200  1.3488
   22MOL   H76216764   0.393   6.831   7.846  0.2768  0.0301  0.8627
   23MOL     C116765   6.836   0.999   0.177  0.4864  0.1411  0.1446
   23MOL     C216766   6.910   0.872   0.172 -0.3790 -0.6091  0.0929
   23MOL     C316767   7.005   0.849   0.290 -0.4588 -0.0755  0.7370
   23MOL     C416768   7.061   0.702   0.292  0.0040  0.5210  0.0275
   23MOL     C516769   7.112   0.963   0.286  0.0286  0.4083  0.8942
   23MOL     C616770   7.042   1.102   0.279 -0.3379 -0.2024  0.7812
   23MOL     C716771   6.930   1.124   0.167  0.0956 -0.9459 -0.6619
   23MOL     C816772   6.869   1.264   0.179 -0.6723 -0.3160 -0.0702
   23MOL     O916773   6.791   1.284   0.296 -0.0541 -0.0033 -0.4158
   23MOL    C1016774   6.789   1.398   0.372 -0.4804 -0.1659  0.0084
   23MOL    O1116775   6.876   1.481   0.363  1.0565 -0.1225 -0.1835
   23MOL    C1216776   6.667   1.403   0.460 -0.0325 -0.5732 -0.7789
   23MOL    C1316777   6.669   1.488   0.574 -0.5557  0.2237 -0.7097
   23MOL    C1416778   6.557   1.494   0.659 -0.0032  0.8673  0.2761
   23MOL    C1516779   6.440   1.414   0.624 -0.4577 -0.8724 -0.5117
   23MOL    C1616780   6.327   1.409   0.722  0.4659 -0.6874  0.0450
   23MOL    O1716781   6.213   1.376   0.691  0.6971 -0.0973  0.3318
   23MOL    O1816782   6.366   1.444   0.849 -0.0441 -0.3820 -0.6199
   23MOL    C1916783   6.443   1.334   0.509  0.5760 -0.0638 -0.7319
   23MOL    C2016784   6.554   1.325   0.427  0.0438 -0.7873  0.4924
   23MOL    H2116785   6.775   1.011   0.266  0.6951 -1.2292  0.4821
   23MOL    H2216786   6.777   1.000   0.085  0.7796 -0.3452 -0.0523
   23MOL    H2316787   6.966   0.864   0.080 -0.3105 -1.3985  0.1986
   23MOL    H2416788   6.829   0.798   0.163  0.5664 -1.5671 -0.6506
   23MOL    H2516789   6.943   0.860   0.379 -0.2274  1.9399  0.6749
   23MOL    H2616790   7.113   0.689   0.197 -0.4816  0.6765 -0.2661
   23MOL    H2716791   6.973   0.637   0.293 -0.2299  0.8433  0.2688
   23MOL    H2816792   7.173   0.956   0.196 -1.9177  0.0486 -0.4379
   23MOL    H2916793   7.172   0.946   0.375  0.1306  1.0735  0.9517
   23MOL    H3016794   7.001   1.117   0.379 -1.1532 -1.6762  0.6766
   23MOL    H3116795   7.127   1.170   0.271 -1.0285  0.8609  2.2058
   23MOL    H3216796   6.986   1.119   0.074  0.0399  1.0701 -0.8375
   23MOL    H3316797   6.809   1.291   0.092  0.4677  1.3158 -0.3841
   23MOL    H3416798   6.949   1.339   0.178 -1.7346  0.8491 -2.2285
   23MOL    H3516799   6.752   1.552   0.598 -0.9163  0.3866  0.1248
   23MOL    H3616800   6.574   1.554   0.747  1.3069 -0.5563  1.0193
   23MOL    H3716801   6.348   1.292   0.477 -0.0136  0.7944 -0.1129
   23MOL    H3816802   6.556   1.271   0.333  0.0377  1.0987 -0.6134
   23MOL    H3916803   7.114   0.676   0.383 -0.6262 -0.1225  0.2208
   23MOL    C4016804   6.506   1.223   1.185  0.1321  0.1152  0.9033
   23MOL    C4116805   6.395   1.256   1.085 -0.3069 -0.1170  0.2650
   23MOL    C4216806   6.363   1.404   1.073  0.2836  0.1696  0.1312
   23MOL    C4316807   6.274   1.440   0.952  0.1175  0.7103  0.9917
   23MOL    C4416808   6.307   1.458   1.209 -0.0041  0.1250 -0.1182
   23MOL    C4516809   6.412   1.436   1.318 -0.5951  0.0640 -0.3981
   23MOL    C4616810   6.478   1.293   1.321  0.5406 -0.2196  0.0447
   23MOL    C4716811   6.589   1.279   1.431  0.2307 -0.1231  0.2191
   23MOL    O4816812   6.705   1.336   1.371  0.1071 -0.4753  0.1727
   23MOL    C4916813   6.820   1.314   1.428 -0.7349 -0.4013  0.4715
   23MOL    O5016814   6.840   1.271   1.547 -0.0722  0.6474  0.4091
   23MOL    C5116815   6.930   1.368   1.339 -0.0073 -0.4128  0.2629
   23MOL    C5216816   7.058   1.379   1.400  1.0464 -0.3244  0.5826
   23MOL    C5316817   7.169   1.440   1.331 -0.0477  0.3719 -0.0008
   23MOL    C5416818   7.138   1.505   1.212 -0.0699 -0.2238  0.7685
   23MOL    C5516819   7.260   1.570   1.137 -0.3443  0.5584 -0.3736
   23MOL    O5616820   7.373   1.577   1.191 -0.9240  0.3943  1.0315
   23MOL    O5716821   7.221   1.622   1.019  0.1152  0.4907 -0.0263
   23MOL    C5816822   7.011   1.497   1.151 -0.5461 -0.6584  0.1489
   23MOL    C5916823   6.902   1.431   1.215  0.4964 -0.5365  0.1282
   23MOL    H6016824   6.603   1.251   1.146 -0.4017  0.1939 -0.4058
   23MOL    H6116825   6.516   1.117   1.210  0.0790 -0.6741 -2.1500
   23MOL    H6216826   6.300   1.208   1.111 -0.8941  1.5341  1.3196
   23MOL    H6316827   6.420   1.217   0.987  0.0823 -1.6077  0.9511
   23MOL    H6416828   6.458   1.455   1.056  0.9995 -0.7580  1.2902
   23MOL    H6516829   6.217   1.533   0.956 -1.8425 -0.4040 -0.2971
   23MOL    H6616830   6.189   1.374   0.941  1.3182 -0.7491  0.2540
   23MOL    H6716831   6.217   1.405   1.239 -0.1217  0.8290  0.7840
   23MOL    H6816832   6.277   1.562   1.212 -1.3016 -0.2673  1.0931
   23MOL    H6916833   6.489   1.512   1.301  1.5186 -2.3626 -2.2440
   23MOL    H7016834   6.355   1.456   1.409  0.2654  0.8193 -0.0070
   23MOL    H7116835   6.390   1.235   1.347 -1.5926  3.1100  0.5924
   23MOL    H7216836   6.613   1.173   1.445 -0.8306 -0.3711  0.2357
   23MOL    H7316837   6.568   1.311   1.533 -2.4814  0.4840 -0.4727
   23MOL    H7416838   7.082   1.336   1.496 -2.1742 -2.7222  0.4190
   23MOL    H7516839   7.270   1.433   1.370  1.3954  0.4048 -3.5529
   23MOL    H7616840   6.999   1.555   1.061  0.8821  0.0739  0.4102
   23MOL    H7716841   6.803   1.426   1.173 -0.1625  0.0170  1.5628
   23MOL    C7816842   7.381   1.583   0.546 -0.5770  0.0931  0.1785
   23MOL    C7916843   7.390   1.668   0.682  1.1036  0.4679 -0.0009
   23MOL    C8016844   7.298   1.602   0.786  0.3990  0.7303  0.3775
   23MOL    C8116845   7.309   1.680   0.922 -1.0070 -0.1242  0.1021
   23MOL    C8216846   7.154   1.586   0.733  0.7421 -0.5533 -0.2031
   23MOL    C8316847   7.152   1.501   0.614  0.2841  0.3282  0.4137
   23MOL    C8416848   7.240   1.559   0.495 -0.0423 -0.4465 -0.3123
   23MOL    C8516849   7.240   1.461   0.378  0.4997  1.0583 -0.3387
   23MOL    O8616850   7.288   1.519   0.257 -0.7735 -0.0391  0.0674
   23MOL    C8716851   7.255   1.471   0.134  0.3023 -0.0890  0.2527
   23MOL    O8816852   7.217   1.355   0.121  0.4235 -0.1083 -0.0940
   23MOL    C8916853   7.268   1.571   0.026  0.0709  0.1744  0.9460
   23MOL    C9016854   7.218   1.531   7.934  0.8322 -0.3243  0.0662
   23MOL    C9116855   7.233   1.611   7.820 -0.0363  0.3045 -0.2498
   23MOL    C9216856   7.298   1.739   7.832 -0.3036  0.0902  0.2591
   23MOL    C9316857   7.309   1.819   7.712 -0.1215  0.3912 -0.7853
   23MOL    O9416858   7.336   1.943   7.716  0.5343 -0.7300 -0.1486
   23MOL    O9516859   7.279   1.752   7.595  0.2187  1.2952 -0.1416
   23MOL    C9616860   7.329   1.792   7.957 -0.1675 -0.6400 -0.4591
   23MOL    C9716861   7.321   1.705   0.035 -0.0048  0.2621 -0.3608
   23MOL    H9816862   7.438   1.493   0.568 -0.4416  0.1764  0.1686
   23MOL    H9916863   7.438   1.634   0.468  0.0248  0.6728  0.9833
   23MOL   H10016864   7.359   1.772   0.672 -0.3850 -0.1192 -1.7597
   23MOL   H10116865   7.491   1.651   0.719  1.6331  0.5146 -1.3844
   23MOL   H10216866   7.333   1.499   0.795 -1.0756  0.2070  0.3251
   23MOL   H10316867   7.268   1.780   0.906  0.4212  0.3444 -0.6737
   23MOL   H10416868   7.412   1.666   0.954 -1.3440  2.6531  2.6285
   23MOL   H10516869   7.117   1.686   0.712 -0.1990 -0.1443  3.0411
   23MOL   H10616870   7.083   1.542   0.804 -0.3419 -1.5613 -1.8647
   23MOL   H10716871   7.182   1.399   0.639 -1.9398  0.2968  3.1775
   23MOL   H10816872   7.053   1.490   0.569  0.9408 -0.7893 -0.7668
   23MOL   H10916873   7.198   1.655   0.466 -1.0264 -0.8879 -0.3446
   23MOL   H11016874   7.139   1.423   0.364 -0.4698  3.3852  0.0357
   23MOL   H11116875   7.303   1.376   0.401  0.9834  1.3310 -0.6504
   23MOL   H11216876   7.166   1.436   7.929 -0.1188  0.0632  2.0204
   23MOL   H11316877   7.208   1.572   7.722 -1.8840  0.7413  0.0314
   23MOL   H11416878   7.365   1.892   7.981  0.7791 -0.9598 -0.5073
   23MOL   H11516879   7.356   1.731   0.134 -0.5472  1.3655 -0.4532
   23MOL   C11616880   7.392   1.601   7.199  0.3856  0.2117  0.5733
   23MOL   C11716881   7.382   1.673   7.331 -0.8504  0.2527  0.4907
   23MOL   C11816882   7.239   1.723   7.369  0.1150 -0.5328 -0.1630
   23MOL   C11916883   7.251   1.821   7.484 -0.1563 -0.5751  0.2628
   23MOL   C12016884   7.174   1.793   7.248  0.0097 -0.8493 -0.0859
   23MOL   C12116885   7.182   1.722   7.114 -0.3698 -0.2123  0.2514
   23MOL   C12216886   7.327   1.681   7.084  0.7981 -0.1550  0.3102
   23MOL   C12316887   7.350   1.599   6.958  0.1557  0.3065  0.0987
   23MOL   O12416888   7.278   1.483   6.966 -0.5086 -0.6872  0.1794
   23MOL   C12516889   7.279   1.384   6.868 -0.6245 -0.0182  0.4358
   23MOL   O12616890   7.343   1.379   6.765  0.6933 -0.4922  0.4902
   23MOL   C12716891   7.187   1.275   6.911  0.0151 -0.3143  0.1800
   23MOL   C12816892   7.214   1.143   6.866 -0.1192  0.7759  0.5493
   23MOL   C12916893   7.121   1.043   6.889 -0.1531  0.0039 -0.0188
   23MOL   C13016894   6.998   1.068   6.956  0.0358 -0.3746  0.1823
   23MOL   C13116895   6.897   0.964   6.983 -0.0550  0.1654  0.1401
   23MOL   O13216896   6.784   0.980   7.042 -0.0122 -0.4504  0.2709
   23MOL   O13316897   6.936   0.845   6.937  0.0311 -0.2457  0.0957
   23MOL   C13416898   6.970   1.197   6.993 -0.0878 -0.4657 -0.0771
   23MOL   C13516899   7.063   1.298   6.978  0.9341 -0.4405 -0.2457
   23MOL   H13616900   7.347   1.503   7.212  1.3418 -0.3436 -0.2483
   23MOL   H13716901   7.500   1.587   7.185  0.0598 -0.0203 -1.9405
   23MOL   H13816902   7.444   1.761   7.313 -0.4300  0.4175  2.6041
   23MOL   H13916903   7.435   1.606   7.400  0.1361 -0.4236 -0.9126
   23MOL   H14016904   7.175   1.642   7.403 -1.1821  0.6288  0.2003
   23MOL   H14116905   7.160   1.881   7.482  1.0320  1.2488 -2.5593
   23MOL   H14216906   7.339   1.885   7.476 -0.2043 -0.5034  0.3075
   23MOL   H14316907   7.217   1.892   7.240 -0.2214 -0.6062  1.5364
   23MOL   H14416908   7.069   1.812   7.270  0.0677  0.9865 -1.2850
   23MOL   H14516909   7.121   1.632   7.116 -2.4339  1.1722  2.3059
   23MOL   H14616910   7.131   1.788   7.044  0.3164  1.8932  1.6579
   23MOL   H14716911   7.395   1.766   7.072  1.9398 -1.2240 -0.8765
   23MOL   H14816912   7.453   1.573   6.933  0.2813 -0.0251  0.9600
   23MOL   H14916913   7.324   1.654   6.868 -1.6362 -2.8092 -1.3602
   23MOL   H15016914   7.300   1.119   6.805 -1.4672 -0.2641 -0.9604
   23MOL   H15116915   7.151   0.942   6.865 -0.3961 -0.5990  2.0534
   23MOL   H15216916   6.869   1.215   7.029  0.4055  0.9742  0.6518
   23MOL   H15316917   7.038   1.400   7.004 -0.9337 -0.5577 -1.4227
   23MOL   C15416918   6.936   0.354   6.872  0.1830 -0.6240  0.3435
   23MOL   C15516919   6.867   0.491   6.861  0.2540  0.3647  0.5033
   23MOL   C15616920   6.928   0.599   6.958 -0.0012  0.0221 -0.3007
   23MOL   C15716921   6.853   0.732   6.950 -0.0240  0.0130 -0.6831
   23MOL   C15816922   6.924   0.539   7.105  0.3069 -0.3016 -0.4687
   23MOL   C15916923   7.015   0.420   7.106 -0.2730 -0.0092  0.4012
   23MOL   C16016924   6.959   0.307   7.016 -0.1098  0.7379 -0.0106
   23MOL   C16116925   7.036   0.178   7.019  0.9083  0.5121 -0.2302
   23MOL   O16216926   7.168   0.188   6.959 -0.3480  0.2108  0.2386
   23MOL   C16316927   7.188   0.142   6.835  0.2619 -0.2252  0.5630
   23MOL   O16416928   7.100   0.101   6.761  0.7278  0.2443  0.1776
   23MOL   C16516929   7.331   0.145   6.793  0.0510 -0.4022  0.2643
   23MOL   C16616930   7.375   0.076   6.678  0.1141  0.3997 -0.4191
   23MOL   C16716931   7.514   0.075   6.647  0.1189 -0.1745 -0.0402
   23MOL   C16816932   7.606   0.163   6.714 -0.4779  0.8248 -0.1600
   23MOL   C16916933   7.750   0.151   6.674 -0.0293  0.6338 -0.0189
   23MOL   O17016934   7.790   0.098   6.567  0.1517 -0.1958  0.6504
   23MOL   O17116935   7.826   0.201   6.774 -0.2572  0.6260  0.3444
   23MOL   C17216936   7.556   0.246   6.818  0.6175 -0.2760  0.4026
   23MOL   C17316937   7.419   0.237   6.852  0.4684 -0.3763 -0.7855
   23MOL   H17416938   7.032   0.361   6.822 -0.0531 -0.5655 -0.1079
   23MOL   H17516939   6.883   0.279   6.813 -2.4535  1.5877 -0.1878
   23MOL   H17616940   6.759   0.481   6.863  0.1785  0.4492 -1.4952
   23MOL   H17716941   6.875   0.520   6.756 -2.0838 -1.6741 -0.2844
   23MOL   H17816942   7.032   0.621   6.933  0.6131 -0.6511  1.5832
   23MOL   H17916943   6.787   0.738   7.037  0.4492  1.2603 -0.4017
   23MOL   H18016944   6.790   0.735   6.861 -0.4124 -0.5421 -0.4276
   23MOL   H18116945   6.827   0.504   7.139  0.6956 -1.7541 -0.7899
   23MOL   H18216946   6.942   0.602   7.192 -0.4899  1.0134 -1.2350
   23MOL   H18316947   7.119   0.445   7.082 -0.8474  2.4954  0.4250
   23MOL   H18416948   7.019   0.380   7.207  0.8052  2.4263  1.3403
   23MOL   H18516949   6.859   0.283   7.050 -0.7546 -1.9068 -3.4162
   23MOL   H18616950   6.985   0.090   6.980  1.5927 -0.8053  1.7535
   23MOL   H18716951   7.036   0.142   7.122 -1.4980 -0.4114 -0.5184
   23MOL   H18816952   7.303   0.030   6.612  0.3852 -0.6845  0.0282
   23MOL   H18916953   7.546   0.022   6.559 -1.1820 -2.2904  0.7112
   23MOL   H19016954   7.622   0.314   6.870 -0.3478 -0.0850  1.4010
   23MOL   H19116955   7.387   0.301   6.933 -0.8710  1.4488 -2.7312
   23MOL   C19216956   0.144   0.011   7.057 -0.8448 -0.4106  0.2663
   23MOL   C19316957   0.109   0.074   6.926 -0.3844 -0.0398  0.4516
   23MOL   C19416958   7.987   0.111   6.914  0.7593  0.0448  0.1918
   23MOL   C19516959   7.958   0.174   6.778 -0.3629 -0.0289  0.5689
   23MOL   C19616960   7.892   8.027   6.956  0.3607 -1.5342  0.2123
   23MOL   C19716961   7.931   7.978   7.089 -0.0676 -0.2980 -0.2463
   23MOL   C19816962   0.046   7.934   7.092 -0.4690 -0.1585  0.1513
   23MOL   C19916963   0.078   7.861   7.225  0.9272 -0.1463 -0.3837
   23MOL   O20016964   8.015   7.763   7.256  0.2249  0.1861 -0.6750
   23MOL   C20116965   8.028   7.643   7.201  0.1704  0.0460  0.4435
   23MOL   O20216966   0.101   7.598   7.158 -0.2142 -0.2482  0.3112
   23MOL   C20316967   7.901   7.565   7.186 -0.0548  0.1351 -0.7681
   23MOL   C20416968   7.892   7.459   7.095 -0.6128 -0.3269  0.0249
   23MOL   C20516969   7.764   7.397   7.071 -0.3220  0.6834 -0.1458
   23MOL   C20616970   7.650   7.435   7.148 -0.5213  0.2739  0.3356
   23MOL   C20716971   7.518   7.373   7.128 -0.1526 -0.2174 -0.1534
   23MOL   O20816972   7.417   7.389   7.192  0.0093 -0.2951  0.4557
   23MOL   O20916973   7.525   7.303   7.015 -0.0782 -0.2131  0.0651
   23MOL   C21016974   7.661   7.534   7.247  0.1454  0.5100  0.0212
   23MOL   C21116975   7.785   7.596   7.265  0.0818 -0.0953  0.3679
   23MOL   H21216976   0.144   0.094   7.128  1.4520  0.5753 -0.8306
   23MOL   H21316977   0.249   8.013   7.052 -0.7363 -0.0021  0.1224
   23MOL   H21416978   0.132   0.004   6.845 -2.4523  1.8401 -1.8516
   23MOL   H21516979   0.165   0.166   6.915  1.0026 -1.0010 -0.6920
   23MOL   H21616980   7.979   0.196   6.983  1.4157  0.2103  0.0681
   23MOL   H21716981   7.986   0.104   6.699  0.9864  1.4787 -0.3321
   23MOL   H21816982   8.024   0.259   6.759 -2.9602  1.6372 -1.2943
   23MOL   H21916983   7.901   7.949   6.880  0.4486  0.5998 -2.0273
   23MOL   H22016984   7.788   0.027   6.960  0.6312 -0.5127 -0.5849
   23MOL   H22116985   7.914   0.017   7.171  3.4018 -0.1105  0.3863
   23MOL   H22216986   7.849   7.917   7.126 -1.9271  1.4428 -1.4202
   23MOL   H22316987   0.060   7.857   7.015 -1.1154  0.7239 -0.8615
   23MOL   H22416988   0.080   7.938   7.302 -1.5573  0.9997 -1.3977
   23MOL   H22516989   0.178   7.817   7.222  0.8459 -0.2695 -1.6650
   23MOL   H22616990   7.961   7.446   7.014 -1.5570 -0.3325 -0.7859
   23MOL   H22716991   7.757   7.323   6.992  0.2052  0.3173  0.1496
   23MOL   H22816992   7.573   7.551   7.308 -0.9588 -0.6894 -1.1879
   23MOL   H22916993   7.792   7.673   7.341 -0.2979 -0.6141  0.9248
   23MOL   C23016994   7.510   6.852   6.988 -0.3595  0.7683  0.0479
   23MOL   C23116995   7.524   6.999   6.948  0.7299 -0.1128 -0.0469
   23MOL   C23216996   7.403   7.086   6.997 -0.3294 -0.2790 -0.0066
   23MOL   C23316997   7.409   7.238   6.965  0.3345 -0.5679 -0.1604
   23MOL   C23416998   7.266   7.024   6.947  0.2555  0.5788  0.6548
   23MOL   C23516999   7.258   6.882   7.001  0.0443  0.1612 -0.1680
   23MOL   C23617000   7.375   6.793   6.947  0.7964  0.4076 -0.2665
   23MOL   C23717001   7.363   6.657   7.004 -0.1479 -0.3232  0.5534
   23MOL   O23817002   7.461   6.572   6.950  0.3167  0.6012 -0.6479
   23MOL   C23917003   7.475   6.450   7.016 -0.9569 -0.0089  0.5556
   23MOL   O24017004   7.395   6.407   7.105 -0.0347 -0.3430 -0.0480
   23MOL   C24117005   7.588   6.377   6.958 -0.0474  0.7941  0.0331
   23MOL   C24217006   7.699   6.444   6.901 -0.7885  0.1392 -0.2996
   23MOL   C24317007   7.804   6.377   6.844 -0.0906  0.1332  0.2647
   23MOL   C24417008   7.804   6.240   6.827  0.2916 -0.1051  0.4046
   23MOL   C24517009   7.915   6.173   6.753  0.4112  0.1932  0.3124
   23MOL   O24617010   8.026   6.230   6.727 -0.1509 -0.0297  0.0501
   23MOL   O24717011   7.893   6.038   6.722  0.3349  0.3381  0.4656
   23MOL   C24817012   7.696   6.172   6.879  0.2917  0.2448  0.6247
   23MOL   C24917013   7.593   6.239   6.944 -0.2287 -0.5893 -0.3233
   23MOL   H25017014   7.523   6.848   7.096  0.7810  2.4454 -0.0083
   23MOL   H25117015   7.586   6.788   6.942 -0.8116 -0.5044  1.0653
   23MOL   H25217016   7.532   6.986   6.840  3.2211  0.1910  0.0770
   23MOL   H25317017   7.622   7.032   6.981  0.6333  0.1569 -0.0282
   23MOL   H25417018   7.408   7.085   7.106  1.2533  2.2257  0.0061
   23MOL   H25517019   7.317   7.290   6.990  0.5784 -0.2920  0.1764
   23MOL   H25617020   7.427   7.242   6.858  1.1807  1.5189  0.0263
   23MOL   H25717021   7.250   7.030   6.839 -1.2956  1.9638  0.9509
   23MOL   H25817022   7.191   7.076   7.006  0.4448  0.2400  1.1993
   23MOL   H25917023   7.249   6.891   7.109  0.4709  2.6089 -0.2975
   23MOL   H26017024   7.163   6.844   6.964  0.3027 -1.1161  0.4828
   23MOL   H26117025   7.367   6.790   6.839  2.5840  1.0962 -0.4276
   23MOL   H26217026   7.270   6.607   6.977 -1.3244  1.2945  1.5502
   23MOL   H26317027   7.358   6.665   7.113 -0.4896  0.2403  0.4924
   23MOL   H26417028   7.696   6.552   6.907 -0.5845  0.1564 -0.4760
   23MOL   H26517029   7.893   6.434   6.820 -0.2714  0.3568  0.1248
   23MOL   H26617030   7.691   6.065   6.868  0.3578 -0.2489  4.7255
   23MOL   H26717031   7.503   6.190   6.978 -0.6576  0.6963  0.4258
   23MOL   C26817032   0.289   5.785   6.671  0.0038  0.3346 -0.4672
   23MOL   C26917033   0.157   5.836   6.609 -0.9771 -0.0018  0.9083
   23MOL   C27017034   0.084   5.936   6.698 -0.2045 -0.1450 -1.2777
   23MOL   C27117035   7.983   5.967   6.639  0.1903 -0.5692  0.0231
   23MOL   C27217036   0.064   5.865   6.840  0.4642 -0.1003 -0.7839
   23MOL   C27317037   0.191   5.814   6.901 -0.8952  0.4731 -0.0095
   23MOL   C27417038   0.260   5.716   6.801 -0.0993 -0.1141  1.0385
   23MOL   C27517039   0.382   5.645   6.864 -0.1487 -0.0177  0.6137
   23MOL   O27617040   0.478   5.754   6.893 -0.4614  0.1537 -0.3531
   23MOL   C27717041   0.606   5.713   6.944 -0.0636 -0.5733  0.9383
   23MOL   O27817042   0.635   5.602   6.974  0.3646  0.4917  0.6737
   23MOL   C27917043   0.703   5.829   6.949  0.2703 -0.2581 -0.2868
   23MOL   C28017044   0.841   5.808   6.957  0.0983 -0.2361  0.3107
   23MOL   C28117045   0.928   5.912   6.920 -0.3744 -0.4833 -0.4855
   23MOL   C28217046   0.886   6.043   6.881  0.1968  0.5974 -0.1440
   23MOL   C28317047   0.978   6.144   6.828 -0.9101  0.0270 -0.1164
   23MOL   O28417048   1.079   6.116   6.766  0.2840 -0.0419  0.9133
   23MOL   O28517049   0.921   6.267   6.835  0.0354 -0.8012  0.0383
   23MOL   C28617050   0.743   6.066   6.891  0.3294  0.4000 -0.6205
   23MOL   C28717051   0.659   5.958   6.913 -0.7592 -0.8367  0.5534
   23MOL   H28817052   0.353   5.870   6.693  1.3541 -0.6066 -0.7047
   23MOL   H28917053   0.343   5.723   6.598 -0.7885 -0.5746 -0.3000
   23MOL   H29017054   0.095   5.750   6.585 -1.7516  0.8358 -0.1997
   23MOL   H29117055   0.174   5.898   6.520 -1.4846  1.1282  1.5826
   23MOL   H29217056   0.147   6.024   6.714  0.7936 -0.9225 -0.8680
   23MOL   H29317057   7.928   5.876   6.618 -2.8190  0.8203  1.5645
   23MOL   H29417058   7.988   6.032   6.552  0.8414  0.5679  0.8844
   23MOL   H29517059   8.027   5.780   6.834  0.8854 -0.5953  1.1022
   23MOL   H29617060   0.026   5.937   6.912 -2.6467  0.8124 -3.1757
   23MOL   H29717061   0.261   5.889   6.938  0.7856 -0.4035 -1.3455
   23MOL   H29817062   0.158   5.754   6.986 -0.2693 -0.0081 -0.1052
   23MOL   H29917063   0.186   5.637   6.792 -0.6709  0.4290  0.9129
   23MOL   H30017064   0.414   5.573   6.789 -0.9473  0.2949 -0.0410
   23MOL   H30117065   0.359   5.587   6.953 -0.5602 -1.5565 -0.4744
   23MOL   H30217066   0.886   5.713   6.983  0.2218 -0.4244 -0.5701
   23MOL   H30317067   1.032   5.884   6.924 -0.4967 -0.7310  1.4738
   23MOL   H30417068   0.702   6.156   6.848 -0.1879 -0.0938 -1.1645
   23MOL   H30517069   0.555   5.978   6.891 -0.6066 -0.7623 -0.1173
   23MOL   C30617070   0.829   6.738   6.703 -0.3510  0.2984 -0.8141
   23MOL   C30717071   0.911   6.604   6.683 -0.3598 -0.0535  0.3702
   23MOL   C30817072   0.908   6.500   6.804  0.3124 -0.1834  0.7830
   23MOL   C30917073   0.988   6.374   6.766  0.4938 -0.1775  0.3714
   23MOL   C31017074   0.945   6.570   6.938 -0.5741 -0.0408 -0.1654
   23MOL   C31117075   0.855   6.692   6.955 -0.8599 -0.1790  0.1526
   23MOL   C31217076   0.867   6.798   6.841 -0.1598 -1.0696 -0.2894
   23MOL   C31317077   0.804   6.941   6.867 -0.3212 -0.9155  0.1330
   23MOL   O31417078   0.664   6.925   6.894 -0.2971  0.1037  0.1885
   23MOL   C31517079   0.614   6.896   7.016 -0.1177 -0.1546  0.4650
   23MOL   O31617080   0.680   6.894   7.122 -0.2265 -0.0612 -0.4363
   23MOL   C31717081   0.473   6.856   7.003 -0.2706 -1.0598  0.1866
   23MOL   C31817082   0.396   6.832   7.121 -0.9046  0.3683  0.0553
   23MOL   C31917083   0.270   6.775   7.111  0.0940  0.6021  0.8130
   23MOL   C32017084   0.204   6.764   6.982  0.3642  0.0858  0.1448
   23MOL   C32117085   0.067   6.707   6.977  0.0378  0.2449 -0.1422
   23MOL   O32217086   0.007   6.659   6.880 -0.3207 -0.3278  0.4657
   23MOL   O32317087   0.003   6.722   7.099 -0.0171 -0.3770 -0.2435
   23MOL   C32417088   0.277   6.798   6.861 -0.2005  0.1661 -0.9708
   23MOL   C32517089   0.412   6.839   6.874 -0.3640 -0.0400  0.5369
   23MOL   H32617090   0.721   6.726   6.700 -0.3643  0.3780 -0.6761
   23MOL   H32717091   0.846   6.814   6.627 -2.8682  3.0459  1.2213
   23MOL   H32817092   1.009   6.642   6.656 -0.6317 -0.0765 -0.6817
   23MOL   H32917093   0.877   6.558   6.590  0.7715 -4.0346  1.8696
   23MOL   H33017094   0.805   6.468   6.814 -0.1406  1.0306  0.0880
   23MOL   H33117095   1.094   6.372   6.793  0.8212  0.5188 -0.8137
   23MOL   H33217096   0.968   6.353   6.661 -0.0745 -0.1699  0.4746
   23MOL   H33317097   1.052   6.589   6.943 -0.3742 -0.7530 -1.4809
   23MOL   H33417098   0.926   6.491   7.010 -2.5798  0.9903  0.5016
   23MOL   H33517099   0.753   6.655   6.956 -1.3769  1.1952 -0.3005
   23MOL   H33617100   0.884   6.734   7.052  0.3321 -0.8349  0.0924
   23MOL   H33717101   0.973   6.823   6.832 -0.7827  1.2970 -1.4175
   23MOL   H33817102   0.814   7.008   6.782 -1.7118  1.5284  1.8468
   23MOL   H33917103   0.854   7.000   6.943  2.1742 -0.0751 -2.0615
   23MOL   H34017104   0.446   6.852   7.214 -0.2757  0.9813 -0.4060
   23MOL   H34117105   0.226   6.753   7.207  0.9590 -3.1040  0.4586
   23MOL   H34217106   0.233   6.790   6.763  3.5726 -1.1862 -2.6595
   23MOL   H34317107   0.465   6.868   6.785  1.7165  0.5163  1.9196
   23MOL   C34417108   8.005   6.388   7.423 -0.0205 -0.5022  0.2608
   23MOL   C34517109   8.010   6.453   7.277 -0.1749  0.0416 -0.3079
   23MOL   C34617110   7.919   6.581   7.267  0.1700  0.0549 -1.2802
   23MOL   C34717111   7.915   6.647   7.126  0.4886 -0.1103 -0.0525
   23MOL   C34817112   7.777   6.548   7.316 -0.2563  0.1615  0.3470
   23MOL   C34917113   7.778   6.499   7.460 -0.6362  0.8732 -0.1599
   23MOL   C35017114   7.862   6.370   7.473 -0.3119 -0.0039  0.6237
   23MOL   C35117115   7.852   6.311   7.613 -0.0932  0.5345 -0.7026
   23MOL   O35217116   7.925   6.188   7.622  0.2286  0.2566 -0.2254
   23MOL   C35317117   7.857   6.078   7.598  0.7001  0.3292  1.2246
   23MOL   O35417118   7.746   6.082   7.552  0.9343 -1.0396 -1.1973
   23MOL   C35517119   7.930   5.954   7.618 -0.0490  0.6248 -0.2137
   23MOL   C35617120   7.888   5.836   7.554  0.3726  0.4260 -0.0663
   23MOL   C35717121   7.947   5.712   7.570 -0.2213 -0.2193  0.1129
   23MOL   C35817122   0.021   5.697   7.659  0.2127  0.8611 -0.3390
   23MOL   C35917123   0.089   5.563   7.678 -0.2735  0.6518  0.1972
   23MOL   O36017124   0.206   5.541   7.710  0.2912 -0.0403  0.6472
   23MOL   O36117125   8.028   5.466   7.655 -0.4186  0.5811 -0.0845
   23MOL   C36217126   0.071   5.816   7.719 -0.6843 -0.7236  0.3291
   23MOL   C36317127   0.016   5.944   7.693  0.5627 -0.2495 -0.3347
   23MOL   H36417128   0.021   6.455   7.495 -0.3747 -1.1643  1.1181
   23MOL   H36517129   0.035   6.298   7.429  1.1249  0.2606  0.1166
   23MOL   H36617130   7.971   6.379   7.206  4.1935  0.6001 -3.4612
   23MOL   H36717131   0.080   6.469   7.243 -0.6252  1.6572 -0.9628
   23MOL   H36817132   7.960   6.647   7.343  4.3131 -2.4562 -1.1621
   23MOL   H36917133   7.821   6.702   7.114  0.0603 -0.5156  1.3119
   23MOL   H37017134   7.907   6.567   7.052 -1.0783 -0.2021  0.1985
   23MOL   H37117135   7.725   6.479   7.250  0.2530  1.2093 -1.1832
   23MOL   H37217136   7.714   6.637   7.311 -0.7466 -0.1784  0.5580
   23MOL   H37317137   7.819   6.567   7.534  0.1011  0.2215  0.0379
   23MOL   H37417138   7.676   6.474   7.492 -0.6607 -0.6774 -1.3867
   23MOL   H37517139   7.810   6.301   7.406 -0.3872 -0.0736  0.7521
   23MOL   H37617140   7.745   6.303   7.634 -0.2819  0.4635 -1.6701
   23MOL   H37717141   7.895   6.374   7.691 -2.2191 -0.6805  1.5302
   23MOL   H37817142   7.801   5.833   7.490  0.0976 -3.5402  0.3580
   23MOL   H37917143   7.917   5.625   7.512  0.0909 -0.7911  0.8043
   23MOL   H38017144   0.160   5.803   7.779  0.4959 -1.8255 -1.5888
   23MOL   H38117145   0.060   6.032   7.737  0.0757 -0.7097  1.1256
   23MOL   C38217146   7.897   5.025   7.456 -0.2950  0.0791 -0.4107
   23MOL   C38317147   7.991   5.110   7.548 -0.0104  0.1917 -0.0407
   23MOL   C38417148   7.965   5.260   7.552 -0.0375  0.1938 -0.2910
   23MOL   C38517149   0.039   5.330   7.636 -0.1036 -0.2540 -0.0969
   23MOL   C38617150   7.947   5.321   7.415 -0.1743  0.0931 -0.3066
   23MOL   C38717151   7.851   5.242   7.325 -0.1726 -0.2597 -0.4919
   23MOL   C38817152   7.891   5.091   7.309 -0.0321 -0.0058  0.8757
   23MOL   C38917153   7.796   5.003   7.219  0.7290  0.0414 -0.7910
   23MOL   O39017154   7.656   5.026   7.252  0.2373 -0.5007  0.2261
   23MOL   C39117155   7.562   4.993   7.161  0.1360  0.0509 -0.2287
   23MOL   O39217156   7.580   4.941   7.050 -0.2785 -0.0558 -0.8393
   23MOL   C39317157   7.427   5.010   7.211 -0.2465 -0.1348 -0.0158
   23MOL   C39417158   7.408   5.087   7.331 -0.2118 -0.2123  0.2696
   23MOL   C39517159   7.277   5.129   7.359  0.1103 -0.0758 -0.2570
   23MOL   C39617160   7.167   5.098   7.281 -0.0004 -0.3057  0.3090
   23MOL   C39717161   7.031   5.156   7.300 -0.4914  0.3816  0.1713
   23MOL   O39817162   7.003   5.239   7.390  0.4939  0.7240 -0.5119
   23MOL   O39917163   6.955   5.125   7.202 -0.0324 -0.3193 -0.6781
   23MOL   C40017164   7.194   5.008   7.168  0.3733  0.1330 -0.8627
   23MOL   C40117165   7.318   4.968   7.133 -0.4082 -0.0107  0.6189
   23MOL   H40217166   7.796   5.011   7.496 -0.2905 -0.1663 -0.4826
   23MOL   H40317167   7.931   4.922   7.444 -0.8610 -0.2385  0.6353
   23MOL   H40417168   0.060   5.085   7.515 -1.2032 -2.6590 -1.7604
   23MOL   H40517169   7.984   5.081   7.653  2.3000 -0.6453 -0.0834
   23MOL   H40617170   7.874   5.275   7.609  1.2310  0.5289  1.6930
   23MOL   H40717171   0.132   5.314   7.581  0.0098  0.6790 -0.1780
   23MOL   H40817172   0.057   5.275   7.728 -0.5410 -2.0266 -1.0546
   23MOL   H40917173   0.011   5.313   7.363 -0.2387 -0.1183 -0.3936
   23MOL   H41017174   7.909   5.422   7.408  0.5615  0.4626  0.9273
   23MOL   H41117175   7.744   5.250   7.345  0.0274 -1.5098  1.1816
   23MOL   H41217176   7.862   5.292   7.229  3.8227  1.1957  0.5899
   23MOL   H41317177   7.992   5.075   7.271 -0.3008 -1.5865  0.7874
   23MOL   H41417178   7.817   4.896   7.221  3.6107  0.5264 -1.9955
   23MOL   H41517179   7.815   5.025   7.114 -0.9258  1.3591 -0.8379
   23MOL   H41617180   7.493   5.107   7.395 -0.7486 -0.7432  1.1758
   23MOL   H41717181   7.261   5.202   7.438 -1.1085 -0.1839 -0.3950
   23MOL   H41817182   7.109   4.992   7.102 -0.0976  0.4873 -0.3413
   23MOL   H41917183   7.331   4.915   7.040  1.1904  2.0015 -0.3609
   23MOL   C42017184   6.760   5.093   6.812  0.2261  0.5564 -0.0223
   23MOL   C42117185   6.830   5.170   6.926 -0.2748  0.5873  0.3011
   23MOL   C42217186   6.766   5.124   7.060 -0.1504 -0.2544 -0.1395
   23MOL   C42317187   6.835   5.193   7.180  0.1015 -0.1642 -0.2346
   23MOL   C42417188   6.615   5.157   7.058  0.1079  0.4809  0.2778
   23MOL   C42517189   6.539   5.098   6.930  0.5114  0.0867 -0.5149
   23MOL   C42617190   6.612   5.140   6.801  0.7530  0.0953 -0.6881
   23MOL   C42717191   6.547   5.068   6.686 -0.1471 -0.8305  0.6286
   23MOL   O42817192   6.572   5.137   6.566 -0.6344 -0.0560  0.0132
   23MOL   C42917193   6.464   5.169   6.489 -0.2029 -0.5415  0.2083
   23MOL   O43017194   6.344   5.132   6.508 -0.4752  0.2390 -0.3579
   23MOL   C43117195   6.504   5.255   6.382  0.3873 -0.2343 -0.3771
   23MOL   C43217196   6.420   5.363   6.349  0.0278  0.5681 -0.6609
   23MOL   C43317197   6.453   5.442   6.240 -0.4867 -0.2247  0.6318
   23MOL   C43417198   6.564   5.417   6.159  0.3354  0.0393 -0.4393
   23MOL   C43517199   6.593   5.517   6.047 -0.5952  0.4176 -0.3998
   23MOL   O43617200   6.507   5.580   5.996 -0.3413 -0.4832  0.2009
   23MOL   O43717201   6.727   5.524   6.010 -0.1175 -0.0043 -0.1971
   23MOL   C43817202   6.650   5.311   6.191 -0.1326 -0.3757  0.2482
   23MOL   C43917203   6.626   5.238   6.313  0.1866 -0.2320  0.2234
   23MOL   H44017204   6.761   4.985   6.827 -0.7871  0.7896  1.8492
   23MOL   H44117205   6.815   5.111   6.719 -0.5433  1.2487 -0.3539
   23MOL   H44217206   6.822   5.278   6.913 -1.8264  0.5559  0.8861
   23MOL   H44317207   6.937   5.152   6.923 -0.5916 -1.1748 -2.1009
   23MOL   H44417208   6.791   5.019   7.073  2.7320  0.3470 -0.3975
   23MOL   H44517209   6.770   5.179   7.266 -0.6820 -0.9751 -0.9570
   23MOL   H44617210   6.863   5.295   7.152  0.5260 -0.2631 -0.1735
   23MOL   H44717211   6.604   5.266   7.064 -1.4348  0.3171  0.9358
   23MOL   H44817212   6.579   5.106   7.148  1.8642 -1.8111 -0.2921
   23MOL   H44917213   6.529   4.990   6.926  0.7701  0.1230 -2.8553
   23MOL   H45017214   6.441   5.145   6.919 -0.3686 -1.2886  1.2672
   23MOL   H45117215   6.610   5.249   6.797 -2.0546  0.1642  1.2684
   23MOL   H45217216   6.442   5.039   6.690 -0.7830  0.9925 -1.8250
   23MOL   H45317217   6.601   4.974   6.677  0.1335 -0.6675  0.6082
   23MOL   H45417218   6.326   5.370   6.402  0.1776 -0.8216 -0.1953
   23MOL   H45517219   6.392   5.530   6.220 -0.8980 -0.2756  1.6547
   23MOL   H45617220   6.746   5.293   6.144 -0.2064  1.0112 -0.4517
   23MOL   H45717221   6.699   5.169   6.354  0.1350 -0.3651  0.0903
   23MOL   C45817222   7.063   5.883   5.913  0.1796 -0.3118  0.2689
   23MOL   C45917223   6.929   5.816   5.877 -0.6153 -0.2213 -0.6008
   23MOL   C46017224   6.901   5.688   5.964  0.1437  0.5210  0.7689
   23MOL   C46117225   6.770   5.622   5.916 -0.4758  0.6996 -0.5044
   23MOL   C46217226   7.025   5.591   5.958 -0.2095  1.2294  0.7180
   23MOL   C46317227   7.158   5.661   5.991 -0.0309  0.3377 -0.4384
   23MOL   C46417228   7.173   5.777   5.890 -0.1570 -0.0946  0.2950
   23MOL   C46517229   7.305   5.856   5.905  0.2517  0.1070  0.1898
   23MOL   O46617230   7.390   5.820   5.797 -0.1488 -0.1938 -0.6466
   23MOL   C46717231   7.442   5.916   5.719 -0.9681 -0.0908  0.5145
   23MOL   O46817232   7.397   6.031   5.712 -0.0574 -0.0877  0.1504
   23MOL   C46917233   7.554   5.862   5.638  0.1256  0.1023 -0.9558
   23MOL   C47017234   7.566   5.907   5.505  0.5021 -0.6085 -0.0078
   23MOL   C47117235   7.649   5.836   5.416 -0.3127 -0.7515 -0.6181
   23MOL   C47217236   7.729   5.731   5.458 -0.1056  0.4176 -0.8385
   23MOL   C47317237   7.807   5.651   5.362  0.0462 -0.5719 -0.5383
   23MOL   O47417238   7.872   5.549   5.395  0.6980 -0.4753 -0.1577
   23MOL   O47517239   7.804   5.692   5.234 -0.5714  0.5679 -0.3122
   23MOL   C47617240   7.728   5.691   5.594  0.9313  0.0114  0.6259
   23MOL   C47717241   7.640   5.756   5.681 -0.8837 -0.2843  1.0872
   23MOL   H47817242   7.067   5.906   6.020  0.0599 -1.2978  0.4908
   23MOL   H47917243   7.077   5.967   5.845  1.7729 -1.2354 -0.5640
   23MOL   H48017244   6.921   5.795   5.770 -1.3584  1.5310 -0.9063
   23MOL   H48117245   6.855   5.891   5.903 -2.6384 -2.1704 -0.5291
   23MOL   H48217246   6.888   5.724   6.066 -0.3871  1.0789  0.5074
   23MOL   H48317247   6.793   5.575   5.820  1.0876  0.9048 -0.2463
   23MOL   H48417248   6.700   5.704   5.901  0.5257  1.4891 -0.8961
   23MOL   H48517249   7.034   5.529   5.869 -2.0220  1.5229  0.2985
   23MOL   H48617250   7.005   5.519   6.038  0.3315 -0.3320 -0.5253
   23MOL   H48717251   7.157   5.700   6.093  0.1574  2.2496 -1.1492
   23MOL   H48817252   7.235   5.584   5.987 -0.4263 -0.0135 -1.4492
   23MOL   H48917253   7.168   5.739   5.788 -2.6933  0.1082  0.3175
   23MOL   H49017254   7.358   5.823   5.994 -0.1352 -0.8775  0.0643
   23MOL   H49117255   7.291   5.964   5.906 -1.0810 -0.0227 -1.1499
   23MOL   H49217256   7.502   5.990   5.479  1.6633  0.7870  1.4692
   23MOL   H49317257   7.636   5.853   5.311 -0.3522 -1.0190 -0.6572
   23MOL   H49417258   7.795   5.613   5.627 -1.7602 -1.3038  3.2580
   23MOL   H49517259   7.632   5.728   5.785 -0.6331  1.5627  1.6291
   23MOL   C49617260   7.734   5.814   4.814  0.0782 -0.2242  0.1969
   23MOL   C49717261   7.726   5.732   4.944  0.6796  0.5959 -0.7871
   23MOL   C49817262   7.857   5.678   4.997  0.7916 -0.3470 -0.1831
   23MOL   C49917263   7.853   5.602   5.140  0.4249 -0.4258 -0.4885
   23MOL   C50017264   7.921   5.587   4.888 -0.2529  0.2938  0.5203
   23MOL   C50117265   7.940   5.663   4.761 -0.0729  0.5578  0.5775
   23MOL   C50217266   7.810   5.725   4.710 -0.1795  0.0392  0.1037
   23MOL   C50317267   7.834   5.789   4.577  0.1100 -0.1896 -0.4756
   23MOL   O50417268   7.702   5.820   4.530  0.3740 -0.0736  0.0322
   23MOL   C50517269   7.643   5.737   4.441 -0.3566 -0.1449  0.6525
   23MOL   O50617270   7.706   5.653   4.380  0.0143 -0.3430  0.5484
   23MOL   C50717271   7.496   5.752   4.435 -1.1259  0.2443  0.1143
   23MOL   C50817272   7.419   5.825   4.530 -0.7075  0.1103 -0.2070
   23MOL   C50917273   7.281   5.828   4.513  0.1364 -0.2606 -0.9562
   23MOL   C51017274   7.216   5.762   4.405  0.9339  0.2088 -0.3519
   23MOL   C51117275   7.070   5.774   4.391 -0.8403 -0.3615  0.0483
   23MOL   O51217276   7.011   5.742   4.291 -0.2934  0.2542 -0.0686
   23MOL   O51317277   7.018   5.847   4.490 -0.4164 -1.1204 -0.1295
   23MOL   C51417278   7.292   5.707   4.305  0.0182  0.5675  0.6714
   23MOL   C51517279   7.432   5.695   4.319  0.5184 -0.1832 -0.5988
   23MOL   H51617280   7.787   5.908   4.828  0.3605 -0.1585 -1.2614
   23MOL   H51717281   7.637   5.848   4.777  0.6873  1.5847  0.2438
   23MOL   H51817282   7.666   5.642   4.933 -0.0460  0.7238  1.6976
   23MOL   H51917283   7.680   5.801   5.015  0.3390  0.6361 -1.0465
   23MOL   H52017284   7.923   5.762   5.018  1.3284 -1.1231  1.3454
   23MOL   H52117285   7.954   5.568   5.163  0.9040  0.6789 -0.9224
   23MOL   H52217286   7.780   5.522   5.126  0.8872 -1.0347  0.4825
   23MOL   H52317287   7.866   5.495   4.868  2.2830 -1.0363 -0.5358
   23MOL   H52417288   8.021   5.564   4.925 -0.5085  0.4093  1.3016
   23MOL   H52517289   8.008   5.744   4.788 -0.5594  0.9959  0.5084
   23MOL   H52617290   7.984   5.596   4.687 -2.1185  2.5691 -2.6222
   23MOL   H52717291   7.747   5.637   4.695 -2.1580  1.1792  1.5975
   23MOL   H52817292   7.891   5.718   4.517 -1.5068  0.4026 -2.7879
   23MOL   H52917293   7.898   5.875   4.598 -0.3995 -0.1014  0.7713
   23MOL   H53017294   7.458   5.878   4.616 -1.8028 -0.8238  0.8830
   23MOL   H53117295   7.226   5.880   4.591 -0.3413  0.7854 -1.9799
   23MOL   H53217296   7.243   5.671   4.216  0.2486  1.2521  0.2633
   23MOL   H53317297   7.492   5.642   4.247 -1.3164 -1.2544 -1.3916
   23MOL   C53417298   6.630   6.075   4.725  0.1972 -0.1227  0.3746
   23MOL   C53517299   6.682   6.007   4.599 -0.4235  1.0513 -0.2401
   23MOL   C53617300   6.825   5.951   4.612  0.2629  0.5691  0.2045
   23MOL   C53717301   6.882   5.878   4.483 -0.0639  0.5650  0.0910
   23MOL   C53817302   6.920   6.055   4.677  0.5391  0.6561 -0.4646
   23MOL   C53917303   6.863   6.099   4.815  0.0391  0.1830 -0.3359
   23MOL   C54017304   6.728   6.167   4.794 -0.1703  0.6555  0.2475
   23MOL   C54117305   6.675   6.224   4.927  0.2567 -0.0335  0.5961
   23MOL   O54217306   6.699   6.130   5.030 -0.2763 -1.0207  0.5311
   23MOL   C54317307   6.651   6.155   5.151 -0.0611  0.4186 -0.1913
   23MOL   O54417308   6.596   6.262   5.176 -0.4680  0.1170 -0.4807
   23MOL   C54517309   6.648   6.043   5.239 -0.6091  0.0391 -0.2799
   23MOL   C54617310   6.643   5.912   5.189 -0.2229 -0.0324 -0.6239
   23MOL   C54717311   6.637   5.804   5.284  1.0938  0.6768  1.0056
   23MOL   C54817312   6.648   5.826   5.423 -0.1423 -0.6427 -0.3503
   23MOL   C54917313   6.658   5.716   5.518 -0.4460  0.4096  0.0256
   23MOL   O55017314   6.659   5.735   5.635  0.3789  0.1917 -0.5694
   23MOL   O55117315   6.676   5.597   5.453 -0.4386 -0.4055  0.3399
   23MOL   C55217316   6.649   5.959   5.469  0.5714 -0.3130  0.6516
   23MOL   C55317317   6.637   6.067   5.380 -0.1949  0.5016  0.6007
   23MOL   H55417318   6.604   5.998   4.799 -0.9991 -1.5254 -1.4654
   23MOL   H55517319   6.534   6.125   4.710 -0.4207 -1.8333 -1.4681
   23MOL   H55617320   6.699   6.085   4.524  1.2006  0.0962 -0.9055
   23MOL   H55717321   6.616   5.935   4.551  1.7334 -1.2118  0.0627
   23MOL   H55817322   6.819   5.866   4.680  1.2037 -0.1116 -0.5455
   23MOL   H55917323   6.859   5.938   4.395 -1.7551 -1.0042 -0.5606
   23MOL   H56017324   6.822   5.787   4.473 -1.5106  1.7550 -2.4748
   23MOL   H56117325   6.921   6.137   4.605 -2.0786  0.5957 -0.6068
   23MOL   H56217326   7.026   6.030   4.683  0.4252 -0.1169 -1.5553
   23MOL   H56317327   6.849   6.011   4.878  0.6283  0.3292  0.0015
   23MOL   H56417328   6.941   6.150   4.871 -1.0574  0.0913  1.3233
   23MOL   H56517329   6.732   6.248   4.722 -1.0455 -0.8073 -1.4843
   23MOL   H56617330   6.567   6.228   4.914  0.1433 -1.2652  1.0917
   23MOL   H56717331   6.721   6.321   4.945 -0.3393  0.0798  1.5386
   23MOL   H56817332   6.633   5.886   5.085 -0.1779 -0.4729 -0.5197
   23MOL   H56917333   6.634   5.701   5.249  0.7529  0.5944  1.2784
   23MOL   H57017334   6.654   5.983   5.575 -1.3189  0.8636  0.4837
   23MOL   H57117335   6.640   6.169   5.415  0.7171  1.6725 -2.6730
   23MOL   C57217336   7.021   5.315   5.430  0.1275 -0.0920 -0.0597
   23MOL   C57317337   6.927   5.433   5.469 -0.1588 -0.0717  0.0278
   23MOL   C57417338   6.786   5.374   5.465  0.0703 -0.5450  0.5714
   23MOL   C57517339   6.676   5.472   5.522  0.3080 -0.5663  0.2741
   23MOL   C57617340   6.756   5.327   5.316 -0.1080  0.6265 -0.1801
   23MOL   C57717341   6.861   5.208   5.281  0.9395  0.3073 -0.0499
   23MOL   C57817342   7.006   5.251   5.293 -0.5023 -0.6084 -0.6089
   23MOL   C57917343   7.091   5.124   5.268  1.1206  0.1203 -0.0092
   23MOL   O58017344   7.226   5.156   5.297  0.2043 -0.1429  0.5179
   23MOL   C58117345   7.313   5.058   5.309 -0.0251  0.1424  0.1853
   23MOL   O58217346   7.278   4.941   5.327  0.0119  0.2438  0.4587
   23MOL   C58317347   7.453   5.107   5.313 -0.0618 -0.0166 -0.2655
   23MOL   C58417348   7.551   5.013   5.350 -0.2706 -0.2475  1.0045
   23MOL   C58517349   7.691   5.044   5.353  0.0797  0.1695  0.6376
   23MOL   C58617350   7.734   5.176   5.327 -0.0236  0.5804  0.8125
   23MOL   C58717351   7.881   5.212   5.321 -0.5771  0.3593 -0.1902
   23MOL   O58817352   7.921   5.309   5.253  0.2582 -0.4153  0.4109
   23MOL   O58917353   7.962   5.137   5.400 -0.2351  0.2969  0.1746
   23MOL   C59017354   7.640   5.275   5.298  0.2629  0.3585 -0.0519
   23MOL   C59117355   7.500   5.237   5.296 -0.0282  0.1953  0.2553
   23MOL   H59217356   7.007   5.241   5.509  1.3996 -0.5318 -0.2425
   23MOL   H59317357   7.125   5.345   5.443 -0.2844  1.0612  0.7522
   23MOL   H59417358   6.928   5.516   5.398 -0.9792 -0.4616 -0.4329
   23MOL   H59517359   6.951   5.463   5.572 -2.3226 -0.1057  0.5708
   23MOL   H59617360   6.777   5.286   5.529  0.1205 -2.3470 -1.8409
   23MOL   H59717361   6.679   5.486   5.630  4.0323 -0.6198  0.2275
   23MOL   H59817362   6.584   5.415   5.506  0.2836 -0.3297 -0.4402
   23MOL   H59917363   6.770   5.397   5.234 -0.8561 -1.0011 -1.7489
   23MOL   H60017364   6.660   5.280   5.296 -0.2453  0.4819  0.7848
   23MOL   H60117365   6.844   5.132   5.357  3.1878  2.7488  2.9997
   23MOL   H60217366   6.849   5.171   5.179 -0.7320  1.2486 -0.2238
   23MOL   H60317367   7.036   5.317   5.212 -1.5024  2.6964  1.5869
   23MOL   H60417368   7.094   5.098   5.162  2.8700 -2.4189  0.6340
   23MOL   H60517369   7.048   5.040   5.322  0.3776 -0.0383 -0.8390
   23MOL   H60617370   7.515   4.917   5.382  0.5043 -0.5330  1.0316
   23MOL   H60717371   7.759   4.967   5.386  0.9758  0.2011 -1.0999
   23MOL   H60817372   7.674   5.374   5.273 -0.6022  0.9975  1.2619
   23MOL   H60917373   7.436   5.320   5.269 -0.3771 -0.1862 -0.0916
   23MOL   C61017374   0.090   5.439   5.707  0.0911  0.2556  0.0130
   23MOL   C61117375   0.038   5.375   5.570 -0.5600 -0.0957  0.3278
   23MOL   C61217376   0.100   5.232   5.554  0.1868  0.9000 -0.0741
   23MOL   C61317377   0.066   5.168   5.418  0.4785  0.4233 -0.6257
   23MOL   C61417378   0.256   5.229   5.576  0.0152 -0.7267  0.0713
   23MOL   C61517379   0.294   5.305   5.710  0.8046 -0.4528  0.4247
   23MOL   C61617380   0.242   5.450   5.719  0.5544 -0.4306 -0.0874
   23MOL   C61717381   0.283   5.535   5.842  0.1335 -0.2314  0.1945
   23MOL   O61817382   0.229   5.489   5.962  0.4591 -0.4479 -0.3806
   23MOL   C61917383   0.142   5.566   6.034  0.4843  0.4216 -0.9195
   23MOL   O62017384   0.109   5.680   5.994 -0.0419 -0.2167  0.2815
   23MOL   C62117385   0.104   5.511   6.168  0.1200 -0.4791 -0.1771
   23MOL   C62217386   0.144   5.381   6.196  0.4181  0.1376 -0.3927
   23MOL   C62317387   0.125   5.328   6.327  0.4568  0.1877 -0.2972
   23MOL   C62417388   0.054   5.396   6.427  0.4086  0.2824 -0.0351
   23MOL   C62517389   0.031   5.343   6.566 -0.2096  0.0945 -0.4933
   23MOL   O62617390   7.987   5.387   6.648  0.3931  0.2946 -0.4927
   23MOL   O62717391   0.106   5.234   6.592 -0.1843 -0.2698  0.0016
   23MOL   C62817392   0.014   5.531   6.398  0.3177 -0.5949 -0.1573
   23MOL   C62917393   0.036   5.587   6.262  0.0719  0.1521  0.0361
   23MOL   H63017394   0.049   5.369   5.781  1.0066  0.1367  0.4113
   23MOL   H63117395   0.038   5.533   5.725 -0.8867 -0.7182  2.4548
   23MOL   H63217396   0.079   5.434   5.488 -0.5668 -0.1942  0.2526
   23MOL   H63317397   7.961   5.364   5.573 -0.5365 -0.1837  1.1517
   23MOL   H63417398   0.053   5.167   5.628  0.1750  0.8875 -0.0919
   23MOL   H63517399   0.126   5.078   5.405  2.0621  1.3007  0.4518
   23MOL   H63617400   0.102   5.221   5.331  0.2277 -2.5681 -2.6084
   23MOL   H63717401   0.302   5.277   5.490 -0.2019 -2.2527 -0.9082
   23MOL   H63817402   0.297   5.129   5.574  0.4607 -0.5159 -1.6549
   23MOL   H63917403   0.266   5.243   5.795  1.4002 -0.7150  0.4338
   23MOL   H64017404   0.403   5.303   5.717  0.7717 -2.4305  0.6314
   23MOL   H64117405   0.287   5.502   5.634 -0.0379 -0.9469 -0.7222
   23MOL   H64217406   0.286   5.644   5.843  0.9947 -0.2504  0.9215
   23MOL   H64317407   0.390   5.515   5.843 -0.1215 -1.6940  2.0936
   23MOL   H64417408   0.182   5.316   6.118 -2.4927 -1.2294 -0.7422
   23MOL   H64517409   0.161   5.227   6.345  3.0002  0.6603 -2.3802
   23MOL   H64617410   8.005   5.594   6.476 -0.2669  0.5048 -1.3268
   23MOL   H64717411   8.024   5.678   6.224 -1.0998  0.2579  1.6053
   23MOL   C64817412   0.511   5.204   6.887  0.3293  0.7407  0.1280
   23MOL   C64917413   0.360   5.194   6.870  0.2839 -0.1725  0.1263
   23MOL   C65017414   0.315   5.196   6.721 -0.3194 -0.3316  0.1123
   23MOL   C65117415   0.158   5.207   6.723  0.1473 -0.0987 -0.1541
   23MOL   C65217416   0.374   5.314   6.645 -0.4309  0.2253  0.0118
   23MOL   C65317417   0.528   5.322   6.656 -0.4004 -0.3095 -0.4049
   23MOL   C65417418   0.578   5.318   6.803  0.7489 -0.4223 -0.0394
   23MOL   C65517419   0.731   5.320   6.802  0.3639 -0.4287 -0.3108
   23MOL   O65617420   0.761   5.331   6.939  0.3435  0.3673  0.2858
   23MOL   C65717421   0.891   5.329   6.977  0.2108  0.1933 -0.4453
   23MOL   O65817422   0.990   5.325   6.898  0.4861 -0.3376 -0.1373
   23MOL   C65917423   0.901   5.356   7.128 -0.2337 -0.7043  0.1830
   23MOL   C66017424   1.033   5.363   7.186  0.3740 -0.3177  0.0107
   23MOL   C66117425   1.054   5.392   7.323  0.1182 -0.0472 -0.0837
   23MOL   C66217426   0.941   5.398   7.409 -0.5088  0.1422 -0.1764
   23MOL   C66317427   0.964   5.422   7.557 -0.3018  0.5757  0.3487
   23MOL   O66417428   1.076   5.440   7.605  0.3554 -0.3327  0.0820
   23MOL   O66517429   0.853   5.420   7.636  0.6907 -0.0801  0.1385
   23MOL   C66617430   0.816   5.392   7.353  0.5322  0.3305  0.3807
   23MOL   C66717431   0.797   5.368   7.217  0.3937  0.0905 -0.2825
   23MOL   H66817432   0.546   5.106   6.855 -0.1665  1.0235 -1.3303
   23MOL   H66917433   0.544   5.212   6.990  0.6742  1.3110 -0.0218
   23MOL   H67017434   0.310   5.274   6.925  0.9731  0.6925 -0.4901
   23MOL   H67117435   0.317   5.106   6.917 -0.4506 -0.3565 -0.8877
   23MOL   H67217436   0.345   5.108   6.665 -1.1096 -0.4582 -0.1262
   23MOL   H67317437   0.124   5.282   6.795 -0.0359  0.3722 -0.7343
   23MOL   H67417438   0.122   5.108   6.753 -0.5005 -0.4435 -2.0049
   23MOL   H67517439   0.320   5.404   6.677  0.9211  1.0250  0.0803
   23MOL   H67617440   0.347   5.307   6.540 -1.4866  2.7008  0.0734
   23MOL   H67717441   0.577   5.243   6.599 -0.0303  0.2649 -0.8822
   23MOL   H67817442   0.553   5.419   6.614  3.6922 -0.6295  1.0501
   23MOL   H67917443   0.557   5.413   6.850 -0.4286 -0.3708 -0.6390
   23MOL   H68017444   0.760   5.409   6.746 -0.6658  0.4515  0.5545
   23MOL   H68117445   0.775   5.231   6.757  2.9319  0.2507  0.7906
   23MOL   H68217446   1.120   5.347   7.124  0.1494  3.2709 -1.3353
   23MOL   H68317447   1.154   5.399   7.364 -0.3283  0.3988  0.9217
   23MOL   H68417448   0.729   5.407   7.415  1.0338  1.3287  0.8820
   23MOL   H68517449   0.696   5.352   7.185  0.5057 -1.2487  0.0207
   23MOL   C68617450   0.523   5.267   7.874 -0.1807  0.5095 -0.1786
   23MOL   C68717451   0.625   5.367   7.803 -0.0092  0.0564 -0.0875
   23MOL   C68817452   0.764   5.355   7.850 -0.1924  1.1519 -0.0069
   23MOL   C68917453   0.861   5.454   7.775  0.0121  0.1613 -0.7779
   23MOL   C69017454   0.745   5.377   8.004  0.2217 -0.3307  0.1472
   23MOL   C69117455   0.665   5.259   0.038 -0.3006 -0.0998  0.3101
   23MOL   C69217456   0.520   5.266   8.025 -0.2425 -0.9346  0.0399
   23MOL   C69317457   0.433   5.160   0.059 -0.3515  0.0329 -0.0674
   23MOL   O69417458   0.294   5.181   0.030 -0.9589 -0.5051  0.3278
   23MOL   C69517459   0.216   5.077   0.032  1.0277 -0.9919 -0.7552
   23MOL   O69617460   0.249   4.965   0.065 -0.4834 -0.0360  0.1206
   23MOL   C69717461   0.078   5.118   8.001 -0.4953  0.7201 -0.2410
   23MOL   C69817462   0.027   5.248   7.981  0.9583  0.2445  0.7205
   23MOL   C69917463   7.929   5.269   7.924 -0.0727 -0.2732 -0.5289
   23MOL   C70017464   7.841   5.161   7.891  0.2460 -0.9528  0.3665
   23MOL   C70117465   7.699   5.186   7.848  0.2429 -0.1305  0.2990
   23MOL   O70217466   7.625   5.097   7.804 -0.0206 -0.0713  0.1252
   23MOL   O70317467   7.672   5.319   7.856 -0.3778  0.1078 -0.0962
   23MOL   C70417468   7.894   5.028   7.917  0.0689 -0.0777 -0.2002
   23MOL   C70517469   8.027   5.005   7.973  0.6805 -0.5641 -0.0174
   23MOL   H70617470   0.547   5.167   7.839 -0.2702  0.0979  0.9275
   23MOL   H70717471   0.426   5.296   7.834 -0.2165  1.5523  0.6482
   23MOL   H70817472   0.582   5.466   7.819 -1.0474 -0.4641  0.4364
   23MOL   H70917473   0.620   5.359   7.695  0.8622  1.5868 -0.2546
   23MOL   H71017474   0.803   5.253   7.841  0.7070  1.4352  0.5755
   23MOL   H71117475   0.961   5.438   7.815  0.1186 -0.3690 -1.2365
   23MOL   H71217476   0.831   5.557   7.791 -1.8395 -0.0176 -2.8764
   23MOL   H71317477   0.701   5.476   8.015 -0.8928 -1.0858  2.9497
   23MOL   H71417478   0.844   5.383   0.017  0.3079  0.1576 -0.1128
   23MOL   H71517479   0.698   5.158   0.015  0.3276  0.1581  0.0635
   23MOL   H71617480   0.673   5.269   0.146  3.6522 -2.1480  0.3085
   23MOL   H71717481   0.493   5.366   0.025 -1.1764  0.1801 -3.9376
   23MOL   H71817482   0.432   5.165   0.168  0.0546  0.2818 -0.0751
   23MOL   H71917483   0.465   5.062   0.025  0.2921  0.0982  0.3378
   23MOL   H72017484   0.079   5.339   8.009  0.1766  1.6705 -2.2452
   23MOL   H72117485   7.879   5.363   7.906 -1.6985 -0.8401  0.7874
   23MOL   H72217486   7.834   4.939   7.912  0.4701 -0.2214 -2.8950
   23MOL   H72317487   0.025   4.903   7.993  0.3297 -0.9968 -1.6074
   23MOL   C72417488   7.424   5.620   7.562 -0.3840 -1.0598  1.1115
   23MOL   C72517489   7.420   5.549   7.703 -0.4365 -0.3414  0.2451
   23MOL   C72617490   7.532   5.442   7.700 -0.3252 -0.2807 -0.8850
   23MOL   C72717491   7.539   5.371   7.838 -0.2977  0.8888 -0.3267
   23MOL   C72817492   7.540   5.343   7.582 -0.3509 -0.1884 -0.8204
   23MOL   C72917493   7.544   5.428   7.446  0.5481 -0.0897  0.2668
   23MOL   C73017494   7.421   5.516   7.443  0.3546 -0.9103  0.2178
   23MOL   C73117495   7.401   5.589   7.312  0.0828 -0.2754 -0.4010
   23MOL   O73217496   7.418   5.508   7.199 -0.2764 -0.6959 -0.5460
   23MOL   C73317497   7.314   5.445   7.135 -0.4133 -0.1752 -0.6812
   23MOL   O73417498   7.196   5.449   7.176  0.1382 -0.4954 -0.7643
   23MOL   C73517499   7.355   5.378   7.007  0.2747 -0.2492 -0.2800
   23MOL   C73617500   7.486   5.390   6.957 -0.6171 -0.3244 -0.5084
   23MOL   C73717501   7.521   5.326   6.839  0.4225 -0.2033  0.5664
   23MOL   C73817502   7.427   5.242   6.768 -0.0315  0.2431 -0.0456
   23MOL   C73917503   7.473   5.163   6.650  0.3471  0.3776  0.0772
   23MOL   O74017504   7.420   5.058   6.612  0.5785  0.2218 -0.3352
   23MOL   O74117505   7.578   5.213   6.591 -0.5198  0.3639  0.3024
   23MOL   C74217506   7.300   5.219   6.825  0.1650  0.2099 -0.2083
   23MOL   C74317507   7.264   5.289   6.944 -0.6129 -0.0644  1.1858
   23MOL   H74417508   7.512   5.685   7.555  0.6968 -2.4587  1.5442
   23MOL   H74517509   7.344   5.694   7.566  0.3679 -0.2804  2.2582
   23MOL   H74617510   7.326   5.498   7.720  0.1175 -0.6744  2.4776
   23MOL   H74717511   7.434   5.624   7.780 -1.0177  0.2151 -0.1839
   23MOL   H74817512   7.625   5.499   7.706  1.2628 -3.1088  2.4432
   23MOL   H74917513   7.465   5.291   7.841  1.4191 -0.8063 -1.4101
   23MOL   H75017514   7.495   5.429   7.919 -2.1259 -1.7588  0.6445
   23MOL   H75117515   7.451   5.280   7.570 -1.5078  1.5698 -1.7074
   23MOL   H75217516   7.625   5.275   7.589 -1.3870 -1.5004 -0.6025
   23MOL   H75317517   7.633   5.490   7.439  0.8190 -0.6089 -1.0937
   23MOL   H75417518   7.550   5.353   7.367 -1.1802 -1.1654  1.1376
   23MOL   H75517519   7.340   5.449   7.472  0.0989 -0.5371  0.3698
   23MOL   H75617520   7.485   5.659   7.308  0.2286 -0.5153 -1.9721
   23MOL   H75717521   7.312   5.650   7.299 -0.8435 -1.1843  1.4259
   23MOL   H75817522   7.556   5.454   7.009 -0.9780  1.0336 -1.6554
   23MOL   H75917523   7.620   5.342   6.799  0.5620 -0.9498  0.6007
   23MOL   H76017524   7.225   5.161   6.773 -0.9202  2.6377 -1.3914
   23MOL   H76117525   7.167   5.290   6.991 -0.8438 -1.7987  0.7785
   23MOL   H76217526   7.626   5.144   6.547 -0.8710  0.0177  0.4520
   24MOL     C117527   4.356   1.875   4.108 -0.1827 -0.5658 -0.0052
   24MOL     C217528   4.322   1.731   4.072  0.3420 -0.3428 -0.0382
   24MOL     C317529   4.359   1.632   4.181  0.2771  1.1169  0.2057
   24MOL     C417530   4.337   1.490   4.129  0.5139  0.6869 -0.1579
   24MOL     C517531   4.499   1.650   4.239 -0.2366 -0.7848 -0.1744
   24MOL     C617532   4.522   1.797   4.281 -0.7017  0.0272  0.0018
   24MOL     C717533   4.499   1.887   4.159  0.1370  0.5586  0.1787
   24MOL     C817534   4.557   2.028   4.167  0.7412  0.2426  0.9498
   24MOL     O917535   4.482   2.101   4.264 -0.2156 -0.3338  0.3704
   24MOL    C1017536   4.433   2.223   4.237 -0.5502  0.6185 -0.3227
   24MOL    O1117537   4.473   2.291   4.139  0.5555  0.6943 -0.2044
   24MOL    C1217538   4.333   2.267   4.336 -0.3390  0.0516  0.1101
   24MOL    C1317539   4.285   2.399   4.323 -0.7979  0.2055  0.4674
   24MOL    C1417540   4.202   2.449   4.424 -0.1730  0.8110 -0.3881
   24MOL    C1517541   4.157   2.371   4.532  0.2009  0.3946 -0.1028
   24MOL    C1617542   4.077   2.418   4.648 -0.0533 -0.2135  0.2082
   24MOL    O1717543   4.067   2.344   4.752  0.4286 -0.2295  0.2102
   24MOL    O1817544   4.040   2.545   4.642  0.0407  0.3866  0.6008
   24MOL    C1917545   4.204   2.240   4.543  0.2465  0.0119  0.2709
   24MOL    C2017546   4.294   2.189   4.444  1.0228 -0.0753 -0.5919
   24MOL    H2117547   4.292   1.913   4.187  2.3453  0.3667  1.6775
   24MOL    H2217548   4.342   1.940   4.022  0.4250  0.5630  0.7291
   24MOL    H2317549   4.375   1.720   3.978  0.5958  1.3170 -0.0953
   24MOL    H2417550   4.217   1.730   4.044 -0.0569  0.7973  1.3495
   24MOL    H2517551   4.301   1.652   4.270  2.7727  2.5611  1.5773
   24MOL    H2617552   4.247   1.481   4.068 -0.2594  0.2578  1.0130
   24MOL    H2717553   4.329   1.422   4.215  0.1104  1.4320  0.3968
   24MOL    H2817554   4.557   1.614   4.154  0.8837 -0.3449  0.3930
   24MOL    H2917555   4.521   1.585   4.323  0.6629  0.1785  0.3420
   24MOL    H3017556   4.473   1.827   4.374 -0.1020  2.1953 -0.3709
   24MOL    H3117557   4.629   1.809   4.295 -0.5599  0.4192 -1.3795
   24MOL    H3217558   4.575   1.852   4.090 -0.7712  0.1180 -0.6164
   24MOL    H3317559   4.554   2.079   4.071 -0.3222  1.8282  1.8016
   24MOL    H3417560   4.664   2.039   4.183  1.4140 -3.0095 -0.8046
   24MOL    H3517561   4.317   2.449   4.232 -3.1101  1.3273  0.2293
   24MOL    H3617562   4.162   2.550   4.419  2.0875  1.7384 -0.3055
   24MOL    H3717563   4.178   2.175   4.626 -1.2472 -1.5947 -1.4056
   24MOL    H3817564   4.341   2.093   4.457  0.1214 -0.3867  0.3594
   24MOL    H3917565   4.420   1.449   4.072  0.0471 -0.0554 -0.3267
   24MOL    C4017566   3.912   2.974   4.889  0.2187  0.0867  0.0821
   24MOL    C4117567   3.927   2.824   4.887  0.2323 -0.6971  1.3044
   24MOL    C4217568   4.000   2.764   4.759 -0.3011 -0.0590 -0.8883
   24MOL    C4317569   3.981   2.612   4.757  0.3706  0.0912  0.1075
   24MOL    C4417570   3.943   2.824   4.637 -0.6831 -0.7140  0.0501
   24MOL    C4517571   3.943   2.978   4.641 -0.0173  0.4711  0.0462
   24MOL    C4617572   3.864   3.039   4.760 -0.2026 -0.1529  0.4006
   24MOL    C4717573   3.872   3.185   4.774  0.4524 -0.5555 -0.4487
   24MOL    O4817574   3.819   3.236   4.653  0.8042 -0.3601  0.5070
   24MOL    C4917575   3.834   3.365   4.616  0.2816  0.0355 -0.8789
   24MOL    O5017576   3.875   3.447   4.695  0.1040 -0.2654  0.1115
   24MOL    C5117577   3.806   3.384   4.473  0.0009 -0.0595 -0.1044
   24MOL    C5217578   3.829   3.502   4.399 -0.1251 -0.2504  0.4451
   24MOL    C5317579   3.823   3.509   4.259 -0.3745  0.0338  0.0820
   24MOL    C5417580   3.782   3.401   4.182 -0.2955  0.4342  0.3407
   24MOL    C5517581   3.765   3.401   4.036  0.1190 -0.5981  0.4971
   24MOL    O5617582   3.684   3.331   3.970 -0.5670 -0.3640 -0.5290
   24MOL    O5717583   3.838   3.491   3.978  0.5215  0.3030  0.3435
   24MOL    C5817584   3.747   3.284   4.253  0.7530  0.5211 -0.1628
   24MOL    C5917585   3.761   3.275   4.392 -0.6189 -0.4865 -0.0470
   24MOL    H6017586   4.009   3.015   4.920  0.3169 -0.0040 -0.1009
   24MOL    H6117587   3.850   3.010   4.971 -0.1155 -2.0360  0.8046
   24MOL    H6217588   3.828   2.780   4.901 -0.4838  0.4636  0.1147
   24MOL    H6317589   3.979   2.796   4.978 -0.9024  2.1681  2.8997
   24MOL    H6417590   4.103   2.798   4.762 -0.5326  0.5980 -0.0538
   24MOL    H6517591   3.874   2.590   4.767  0.2316  1.0800  0.9599
   24MOL    H6617592   4.033   2.574   4.844  0.5307 -0.9338 -0.4273
   24MOL    H6717593   3.840   2.792   4.626 -1.5876  1.9182  0.6584
   24MOL    H6817594   3.993   2.779   4.550  0.7475  0.2759  0.3394
   24MOL    H6917595   4.044   3.018   4.648 -0.0557  0.2449  2.3378
   24MOL    H7017596   3.903   3.012   4.546 -1.7187  2.3586  1.3834
   24MOL    H7117597   3.757   3.029   4.746 -0.4563 -1.1038  2.9244
   24MOL    H7217598   3.976   3.217   4.777  0.3625 -0.1230 -1.7410
   24MOL    H7317599   3.825   3.228   4.862 -0.3528  1.0666 -1.6541
   24MOL    H7417600   3.868   3.580   4.463  2.6448 -0.4637 -0.8991
   24MOL    H7517601   3.853   3.601   4.211 -0.5676  0.2213  0.3246
   24MOL    H7617602   3.715   3.193   4.205 -0.4066  1.6884 -1.6664
   24MOL    H7717603   3.733   3.185   4.443  0.2862 -0.3219  0.7700
   24MOL    C7817604   4.166   3.688   3.762 -0.3091 -0.6258 -0.1697
   24MOL    C7917605   4.065   3.587   3.817  0.2984 -0.6271 -0.2911
   24MOL    C8017606   3.919   3.631   3.809  0.3027 -0.4031  0.3167
   24MOL    C8117607   3.830   3.514   3.844  0.4167 -0.3262  0.0713
   24MOL    C8217608   3.897   3.758   3.885  0.0650  0.0878 -1.0215
   24MOL    C8317609   3.987   3.867   3.828  0.2352 -0.0294  0.1540
   24MOL    C8417610   4.136   3.826   3.819 -0.2021  0.1102 -0.1407
   24MOL    C8517611   4.210   3.932   3.748 -0.1665  0.2296  0.0595
   24MOL    O8617612   4.147   3.969   3.622  0.4023 -0.0594 -0.7477
   24MOL    C8717613   4.191   4.077   3.558 -0.1633 -0.0006 -0.3481
   24MOL    O8817614   4.284   4.150   3.597 -0.5315 -0.1758  0.6271
   24MOL    C8917615   4.122   4.109   3.431  0.4064 -0.5397 -0.2193
   24MOL    C9017616   4.172   4.214   3.351  0.1526  0.2481  0.1839
   24MOL    C9117617   4.098   4.255   3.236  0.3073  0.5578 -0.2569
   24MOL    C9217618   3.983   4.184   3.193 -0.3116 -0.8231  0.4856
   24MOL    C9317619   3.905   4.241   3.069  0.0776 -0.5383 -0.1975
   24MOL    O9417620   3.908   4.360   3.041 -0.3293 -1.0598 -0.3867
   24MOL    O9517621   3.837   4.148   3.005 -0.6894 -0.0275  0.8090
   24MOL    C9617622   3.942   4.079   3.272  0.0945 -0.3113 -0.4871
   24MOL    C9717623   4.005   4.040   3.393  0.0765  0.0265  0.2072
   24MOL    H9817624   4.153   3.694   3.654 -3.4340  1.8310  0.2810
   24MOL    H9917625   4.266   3.653   3.790 -0.2741  0.8153  1.6215
   24MOL   H10017626   4.090   3.551   3.917 -0.6013 -2.2105 -0.6172
   24MOL   H10117627   4.085   3.490   3.770  0.0325 -1.1448  0.6481
   24MOL   H10217628   3.893   3.659   3.707  4.2825  0.7875 -0.4603
   24MOL   H10317629   3.851   3.420   3.792  0.8650 -0.0393 -0.2785
   24MOL   H10417630   3.732   3.548   3.812  1.7809  1.0987 -2.8112
   24MOL   H10517631   3.923   3.732   3.988 -1.0014 -0.3709 -0.8647
   24MOL   H10617632   3.795   3.789   3.906  0.4364  1.0966 -0.6865
   24MOL   H10717633   3.948   3.893   3.730  3.2404  0.9028 -0.8087
   24MOL   H10817634   3.979   3.962   3.881 -0.8960  0.5869 -1.0896
   24MOL   H10917635   4.186   3.827   3.915  0.6814 -0.2910 -0.5979
   24MOL   H11017636   4.312   3.897   3.734 -0.7724 -1.7138  0.3465
   24MOL   H11117637   4.219   4.019   3.813 -0.1836  0.0693  0.2765
   24MOL   H11217638   4.264   4.263   3.375  1.3394 -1.3230 -1.0174
   24MOL   H11317639   4.131   4.325   3.160  0.7697  0.6762  0.0493
   24MOL   H11417640   3.843   4.041   3.250  0.2338 -0.8472 -0.2003
   24MOL   H11517641   3.958   3.963   3.453 -0.7415  0.9281  0.7310
   24MOL   C11617642   3.393   4.186   3.033 -0.2055  0.4291  0.0971
   24MOL   C11717643   3.541   4.213   3.019  0.2511 -0.0461 -0.4510
   24MOL   C11817644   3.620   4.135   2.916  0.7974 -0.1139  0.2313
   24MOL   C11917645   3.760   4.179   2.895  0.2995 -0.2160  0.0144
   24MOL   C12017646   3.601   3.986   2.943 -1.0771  0.0342  0.3089
   24MOL   C12117647   3.455   3.947   2.981 -0.8853 -0.4163 -0.2313
   24MOL   C12217648   3.383   4.042   3.085  0.1426  0.5794  0.0283
   24MOL   C12317649   3.233   3.999   3.098  0.2168  0.4310 -0.0534
   24MOL   O12417650   3.225   3.869   3.159 -1.0482 -0.1414  0.3161
   24MOL   C12517651   3.176   3.855   3.285  0.2808 -0.2211 -0.4025
   24MOL   O12617652   3.124   3.944   3.362  0.3260  0.0497 -0.1181
   24MOL   C12717653   3.173   3.712   3.324 -0.0388  0.0600  0.0255
   24MOL   C12817654   3.285   3.627   3.294 -0.0645  0.2009  0.5367
   24MOL   C12917655   3.305   3.500   3.354  0.0646 -0.7917 -0.8790
   24MOL   C13017656   3.210   3.445   3.445 -0.4917  0.1358 -0.1346
   24MOL   C13117657   3.238   3.315   3.515  0.4513 -0.6128 -0.0249
   24MOL   O13217658   3.339   3.243   3.516  0.0633 -0.6413  0.4901
   24MOL   O13317659   3.125   3.288   3.583  0.6672 -0.3239 -0.4686
   24MOL   C13417660   3.090   3.528   3.471 -0.2276  0.2992  0.0346
   24MOL   C13517661   3.079   3.661   3.413  0.6759  0.3749  0.3848
   24MOL   H13617662   3.347   4.198   2.935 -0.9244  0.9716  0.4969
   24MOL   H13717663   3.357   4.250   3.113  0.1852 -2.0376  2.3228
   24MOL   H13817664   3.582   4.199   3.118 -0.5535  1.4874  0.1123
   24MOL   H13917665   3.545   4.321   3.008  0.4458  0.2219  2.0576
   24MOL   H14017666   3.565   4.164   2.826  2.1303 -0.4148 -0.6922
   24MOL   H14117667   3.760   4.284   2.866 -0.6549 -0.1153  0.3710
   24MOL   H14217668   3.797   4.132   2.804 -0.7180 -2.4697  0.7134
   24MOL   H14317669   3.675   3.940   3.008 -0.4252 -0.2593 -0.6234
   24MOL   H14417670   3.628   3.951   2.843  2.3727 -0.9897  1.5171
   24MOL   H14517671   3.391   3.952   2.893  0.9879 -0.5170 -1.6285
   24MOL   H14617672   3.451   3.842   3.009 -0.1080 -0.3481  0.1438
   24MOL   H14717673   3.430   4.041   3.183  1.8764 -2.0080 -0.7799
   24MOL   H14817674   3.190   3.997   2.997 -1.7177 -2.2359  0.7490
   24MOL   H14917675   3.171   4.075   3.144 -1.7525 -1.4220  0.4095
   24MOL   H15017676   3.356   3.661   3.220  0.0428 -0.4603  0.3304
   24MOL   H15117677   3.396   3.446   3.332  0.2930 -0.1225 -1.6165
   24MOL   H15217678   3.011   3.502   3.539  0.3192  0.6970  0.8354
   24MOL   H15317679   2.993   3.724   3.433  0.7644  1.0930 -1.4138
   24MOL   C15417680   2.984   2.821   3.701 -0.0621  0.3312 -0.2084
   24MOL   C15517681   2.990   2.977   3.707  0.0675 -0.4090 -0.1146
   24MOL   C15617682   3.125   3.039   3.651 -0.0410 -0.0699 -0.3925
   24MOL   C15717683   3.126   3.193   3.689 -0.4651 -0.0243  1.1024
   24MOL   C15817684   3.251   2.959   3.696 -0.0346 -0.3433 -0.8270
   24MOL   C15917685   3.231   2.810   3.671  0.6029 -0.4117 -0.3818
   24MOL   C16017686   3.112   2.756   3.758 -0.0729 -0.3928  0.0664
   24MOL   C16117687   3.111   2.604   3.768 -0.1450 -0.4357  0.9527
   24MOL   O16217688   3.054   2.559   3.646  0.2003  0.3417  1.2645
   24MOL   C16317689   3.009   2.432   3.624 -0.6831 -0.6011 -0.0202
   24MOL   O16417690   3.035   2.350   3.708  0.1328  0.1344 -0.6378
   24MOL   C16517691   2.939   2.417   3.492 -0.0788  0.9339 -0.0542
   24MOL   C16617692   2.897   2.529   3.429  0.1374 -0.8807  0.1870
   24MOL   C16717693   2.835   2.517   3.302  0.5276  0.6488 -0.1070
   24MOL   C16817694   2.812   2.387   3.244 -0.4702  0.3387 -0.0810
   24MOL   C16917695   2.757   2.376   3.105  0.0452 -0.0912 -0.0016
   24MOL   O17017696   2.686   2.285   3.059  0.6362 -0.8669  0.1573
   24MOL   O17117697   2.792   2.485   3.039  0.2849  0.8399 -0.9545
   24MOL   C17217698   2.840   2.272   3.315  0.0514  0.4889 -0.4143
   24MOL   C17317699   2.910   2.293   3.438 -0.6980 -0.7757 -0.7253
   24MOL   H17417700   2.962   2.791   3.599  0.7455 -0.1656 -0.2418
   24MOL   H17517701   2.901   2.788   3.763  1.3526 -0.4037  1.3357
   24MOL   H17617702   2.974   3.015   3.807  0.7852  1.2604 -0.6135
   24MOL   H17717703   2.905   3.012   3.648  0.8270 -0.1410 -1.0600
   24MOL   H17817704   3.120   3.052   3.543  0.0294 -0.1939 -0.4115
   24MOL   H17917705   3.210   3.217   3.755  0.3912  0.7433 -0.2372
   24MOL   H18017706   3.042   3.214   3.755 -0.6041  1.5677  0.4290
   24MOL   H18117707   3.283   2.967   3.800 -0.3283  0.1172 -0.7687
   24MOL   H18217708   3.338   2.996   3.642  1.1226 -2.7377 -0.6461
   24MOL   H18317709   3.214   2.807   3.563 -2.0255  2.9415 -0.1355
   24MOL   H18417710   3.321   2.751   3.693 -0.5490 -1.3635  1.8682
   24MOL   H18517711   3.119   2.804   3.855  0.5713  2.4645 -1.3359
   24MOL   H18617712   3.053   2.558   3.848  0.9431 -2.5950  0.5525
   24MOL   H18717713   3.209   2.557   3.777 -0.4917 -1.3107  0.2591
   24MOL   H18817714   2.912   2.625   3.478 -0.4435  0.6875 -2.5937
   24MOL   H18917715   2.800   2.600   3.242 -3.0213  1.0815  2.4212
   24MOL   H19017716   2.831   2.172   3.276 -1.5259  0.1923  0.6974
   24MOL   H19117717   2.939   2.202   3.490 -1.6892  0.2923  1.7470
   24MOL   C19217718   2.972   2.799   2.764 -0.4172 -0.5605 -0.0349
   24MOL   C19317719   2.937   2.669   2.838  0.2141 -0.4010  0.7940
   24MOL   C19417720   2.792   2.615   2.831  0.2675 -0.2779 -0.2163
   24MOL   C19517721   2.764   2.487   2.902 -0.8585 -0.1804  0.2572
   24MOL   C19617722   2.687   2.719   2.846 -0.2803  0.8613 -0.3125
   24MOL   C19717723   2.723   2.834   2.760 -0.1204  0.4116 -0.6220
   24MOL   C19817724   2.864   2.898   2.790 -0.6367  0.0575  0.2547
   24MOL   C19917725   2.869   3.029   2.713 -0.5549  0.5251 -0.5556
   24MOL   O20017726   2.985   3.106   2.759  0.7334  0.0297 -0.0421
   24MOL   C20117727   3.071   3.164   2.676  0.3119  1.2456  1.5088
   24MOL   O20217728   3.057   3.172   2.552  0.1885 -0.4314  0.2252
   24MOL   C20317729   3.187   3.218   2.750 -0.0627  0.1872  0.3172
   24MOL   C20417730   3.207   3.199   2.891  0.6275 -0.4599 -0.6255
   24MOL   C20517731   3.316   3.259   2.957 -0.0394  0.1642  0.8583
   24MOL   C20617732   3.410   3.334   2.889 -0.0804  0.3146 -0.4945
   24MOL   C20717733   3.528   3.386   2.964 -0.1231 -0.0446  0.3148
   24MOL   O20817734   3.538   3.383   3.086 -0.1579 -0.4454 -0.0597
   24MOL   O20917735   3.624   3.439   2.881 -0.1336  0.0049 -1.0301
   24MOL   C21017736   3.390   3.356   2.755 -0.3303 -0.0780 -0.1538
   24MOL   C21117737   3.280   3.303   2.684  0.1110 -0.5888  0.4514
   24MOL   H21217738   2.979   2.788   2.655  1.9474 -0.5300  0.1006
   24MOL   H21317739   3.070   2.832   2.797 -0.1461 -2.2904  0.9229
   24MOL   H21417740   2.945   2.689   2.944 -0.5338  2.3761  0.3776
   24MOL   H21517741   3.012   2.597   2.804  0.8684  0.0897  1.2058
   24MOL   H21617742   2.788   2.591   2.725 -0.9089  1.2094 -0.5407
   24MOL   H21717743   2.832   2.421   2.847 -0.4778 -0.6525  1.2741
   24MOL   H21817744   2.661   2.454   2.887 -0.9626  0.6516 -0.9086
   24MOL   H21917745   2.681   2.753   2.949 -0.9483 -0.8261  0.2172
   24MOL   H22017746   2.590   2.682   2.812 -0.0308 -0.4690  0.3720
   24MOL   H22117747   2.715   2.811   2.654 -1.2760  0.5847 -0.5797
   24MOL   H22217748   2.637   2.898   2.782 -0.1891 -0.6108  2.3318
   24MOL   H22317749   2.860   2.928   2.895  0.8311 -3.4214  1.3761
   24MOL   H22417750   2.779   3.091   2.719  0.9969  2.6755  2.7378
   24MOL   H22517751   2.882   2.997   2.610 -1.4481 -2.2782  0.1600
   24MOL   H22617752   3.133   3.148   2.950  1.6201  0.3103  1.3071
   24MOL   H22717753   3.323   3.250   3.065 -1.8480 -0.1855  0.9593
   24MOL   H22817754   3.457   3.420   2.700  0.4238  0.2681  1.1406
   24MOL   H22917755   3.264   3.331   2.580  2.9568  2.0523  0.6481
   24MOL   C23017756   4.043   3.675   2.761  0.0249 -0.7457 -0.3713
   24MOL   C23117757   3.964   3.607   2.874 -0.1027 -0.3249  0.0545
   24MOL   C23217758   3.834   3.546   2.814  0.2970 -0.5647  0.7240
   24MOL   C23317759   3.751   3.488   2.932  0.1535 -0.2292  0.3860
   24MOL   C23417760   3.755   3.658   2.746  0.4785 -0.8732  0.1491
   24MOL   C23517761   3.828   3.739   2.633 -0.7831 -0.8161  0.7345
   24MOL   C23617762   3.964   3.791   2.696 -0.2708  0.2284  0.5725
   24MOL   C23717763   4.036   3.889   2.598 -0.3740 -1.0857  0.7790
   24MOL   O23817764   4.062   3.826   2.476 -0.0740 -0.6875  0.2667
   24MOL   C23917765   4.141   3.886   2.382 -0.0383  0.9375 -0.1661
   24MOL   O24017766   4.193   3.991   2.383 -0.0698 -0.3158 -0.0211
   24MOL   C24117767   4.152   3.803   2.263  0.2504  0.8770  0.2887
   24MOL   C24217768   4.193   3.857   2.136  0.1745 -0.3825  0.0586
   24MOL   C24317769   4.190   3.782   2.021 -0.0684 -0.0085  0.0556
   24MOL   C24417770   4.160   3.641   2.031 -0.0590 -0.0289  0.2382
   24MOL   C24517771   4.169   3.543   1.917 -0.3466 -0.6025  0.0650
   24MOL   O24617772   4.198   3.573   1.804  0.2463 -0.3369 -0.0412
   24MOL   O24717773   4.145   3.420   1.956  0.3396 -0.2236  0.3454
   24MOL   C24817774   4.130   3.586   2.158  0.4551 -0.0083 -1.5502
   24MOL   C24917775   4.124   3.664   2.274  0.4974  0.5908  0.1514
   24MOL   H25017776   4.071   3.602   2.685 -2.2234 -0.1707 -1.7880
   24MOL   H25117777   4.130   3.732   2.795 -1.6258  1.5964  0.0444
   24MOL   H25217778   3.950   3.676   2.957  0.6426 -0.4496  0.2896
   24MOL   H25317779   4.031   3.529   2.911 -1.2407 -1.3864 -0.0821
   24MOL   H25417780   3.863   3.464   2.749  1.4830 -0.1615  0.7370
   24MOL   H25517781   3.731   3.562   3.010  1.0531  0.3649  0.0516
   24MOL   H25617782   3.811   3.412   2.982  0.8242 -0.2945 -0.5161
   24MOL   H25717783   3.734   3.729   2.827  0.0780  0.4022 -1.0524
   24MOL   H25817784   3.660   3.618   2.710  0.5008 -1.0874  0.3275
   24MOL   H25917785   3.848   3.683   2.542 -0.8465 -2.2087  1.5602
   24MOL   H26017786   3.767   3.826   2.608  1.9913  0.3038 -2.5801
   24MOL   H26117787   3.945   3.862   2.776 -0.7266 -0.3047  0.9329
   24MOL   H26217788   4.117   3.944   2.646 -1.3969 -1.6625  3.1958
   24MOL   H26317789   3.960   3.962   2.569 -0.8583 -2.1875 -0.8265
   24MOL   H26417790   4.221   3.960   2.127  0.6919 -0.5738 -0.5360
   24MOL   H26517791   4.214   3.821   1.924 -1.6398  0.9002  0.0083
   24MOL   H26617792   4.110   3.480   2.163  1.8717 -0.2013  0.6078
   24MOL   H26717793   4.098   3.607   2.362  0.4027 -0.6342 -0.6528
   24MOL   C26817794   4.051   2.947   1.880  0.8000 -0.0165  0.5511
   24MOL   C26917795   4.113   3.075   1.824  0.0808 -1.2329 -0.3910
   24MOL   C27017796   4.087   3.191   1.920 -0.1816 -0.1989 -0.2516
   24MOL   C27117797   4.164   3.313   1.870 -0.4478  0.0555 -0.0797
   24MOL   C27217798   3.929   3.206   1.934 -0.6503 -0.1243 -0.2196
   24MOL   C27317799   3.872   3.081   1.997 -0.3016 -0.1388  0.4567
   24MOL   C27417800   3.900   2.961   1.906 -0.3152  1.1099 -0.5421
   24MOL   C27517801   3.852   2.830   1.964 -0.8434  0.1794 -0.2470
   24MOL   O27617802   3.711   2.836   1.983 -0.4627 -0.1551  0.5368
   24MOL   C27717803   3.639   2.720   1.964 -0.4790 -0.0615  0.4870
   24MOL   O27817804   3.692   2.606   1.949  0.1457  0.5858 -0.0209
   24MOL   C27917805   3.490   2.747   1.960  0.8608 -0.1072  0.0634
   24MOL   C28017806   3.402   2.635   1.937 -0.3144 -0.1414  0.4902
   24MOL   C28117807   3.261   2.652   1.952 -0.1912  0.0715  0.3313
   24MOL   C28217808   3.206   2.779   1.972 -0.0384  0.1761 -0.1482
   24MOL   C28317809   3.061   2.793   1.964  0.8737  0.2710  0.3296
   24MOL   O28417810   2.979   2.733   1.895 -0.2949 -0.3374 -0.3844
   24MOL   O28517811   3.023   2.897   2.042 -0.1135 -0.4932  0.5843
   24MOL   C28617812   3.294   2.890   1.999 -0.1581  0.2369  0.1792
   24MOL   C28717813   3.434   2.875   1.988 -0.3156 -0.1900 -0.3808
   24MOL   H28817814   4.115   2.931   1.967 -2.4097  0.7692  3.1712
   24MOL   H28917815   4.067   2.858   1.819  2.2259 -0.4502  1.5275
   24MOL   H29017816   4.076   3.100   1.725 -0.3301 -1.6726 -0.3532
   24MOL   H29117817   4.220   3.061   1.811  0.7773  3.7965 -1.0749
   24MOL   H29217818   4.138   3.168   2.014 -2.1826 -2.6740  0.3113
   24MOL   H29317819   4.127   3.338   1.771 -0.2281  1.7073  0.2405
   24MOL   H29417820   4.271   3.295   1.860 -0.5849 -0.2955 -0.9935
   24MOL   H29517821   3.878   3.229   1.841 -0.5497 -2.6218 -0.9323
   24MOL   H29617822   3.911   3.292   1.999  1.0159 -0.8671  1.2738
   24MOL   H29717823   3.918   3.054   2.092 -2.0619  0.6577  1.5679
   24MOL   H29817824   3.765   3.093   2.015 -0.6819 -1.7134 -0.6999
   24MOL   H29917825   3.844   2.978   1.814  0.7581 -0.0649 -1.4481
   24MOL   H30017826   3.897   2.811   2.061  0.9023  2.8216 -0.5183
   24MOL   H30117827   3.893   2.749   1.903  2.6877  0.0484  2.1892
   24MOL   H30217828   3.448   2.540   1.914  0.6380  0.0495  1.5637
   24MOL   H30317829   3.194   2.567   1.949  0.1234 -0.2599  1.9233
   24MOL   H30417830   3.239   2.979   2.024 -2.3274  0.2790 -4.3410
   24MOL   H30517831   3.489   2.964   2.012 -0.5402 -0.3411  0.7418
   24MOL   C30617832   2.777   3.257   2.262 -0.2591  0.7771 -0.4723
   24MOL   C30717833   2.762   3.136   2.167 -0.0106  0.2493  0.0457
   24MOL   C30817834   2.895   3.067   2.158 -0.8134 -0.3116 -0.2913
   24MOL   C30917835   2.895   2.942   2.070  0.3761  0.1531  0.3272
   24MOL   C31017836   2.998   3.167   2.103  0.1101 -0.0218  0.5974
   24MOL   C31117837   3.021   3.280   2.204  0.0705 -0.6714  0.0007
   24MOL   C31217838   2.883   3.357   2.231 -0.2718 -0.2488 -0.7369
   24MOL   C31317839   2.895   3.454   2.345 -0.5102 -0.6814 -0.2450
   24MOL   O31417840   2.979   3.563   2.306 -0.3948  0.0704  0.2009
   24MOL   C31517841   2.930   3.687   2.267 -0.4382 -0.6472  0.0303
   24MOL   O31617842   2.811   3.713   2.271 -0.2666 -0.2763 -0.5407
   24MOL   C31717843   3.031   3.784   2.236  0.4900  0.4012 -0.4108
   24MOL   C31817844   2.995   3.920   2.210  0.5350 -0.0454  1.1144
   24MOL   C31917845   3.086   4.008   2.160  0.4176  0.1114  0.2794
   24MOL   C32017846   3.219   3.969   2.151 -0.4749 -1.0240  0.3743
   24MOL   C32117847   3.326   4.057   2.100  0.4811 -0.2579 -1.2687
   24MOL   O32217848   3.447   4.036   2.117  0.2907 -0.2416 -0.7936
   24MOL   O32317849   3.280   4.171   2.042  0.3775 -0.3931 -0.4368
   24MOL   C32417850   3.261   3.841   2.188 -0.2426  1.2570 -0.2748
   24MOL   C32517851   3.167   3.743   2.223  0.0401  0.0649 -0.9992
   24MOL   H32617852   2.793   3.226   2.365 -1.6707  0.1606 -0.4258
   24MOL   H32717853   2.675   3.295   2.275 -1.5335 -2.8615  1.0623
   24MOL   H32817854   2.740   3.165   2.064  0.0180 -0.0326 -0.0395
   24MOL   H32917855   2.678   3.079   2.205 -0.1692  0.1391 -0.4685
   24MOL   H33017856   2.919   3.037   2.260  0.0883 -0.4398 -0.5337
   24MOL   H33117857   2.847   2.970   1.976  1.2396  2.0177  0.4182
   24MOL   H33217858   2.831   2.868   2.118  1.7442  0.1860  2.2401
   24MOL   H33317859   2.966   3.208   2.006 -1.8358  1.2836  1.7534
   24MOL   H33417860   3.095   3.120   2.088 -0.4073 -0.1244 -3.0640
   24MOL   H33517861   3.073   3.240   2.292  3.5070  1.6594 -0.8513
   24MOL   H33617862   3.092   3.346   2.155 -0.4798 -0.3489 -0.3605
   24MOL   H33717863   2.871   3.402   2.133  0.5945 -1.0047 -1.2014
   24MOL   H33817864   2.932   3.408   2.437 -0.1683 -0.8269 -0.4550
   24MOL   H33917865   2.797   3.492   2.371 -0.0852  1.0161 -1.0684
   24MOL   H34017866   2.895   3.959   2.215 -0.5746 -2.5223 -0.8671
   24MOL   H34117867   3.049   4.105   2.131 -3.5107 -0.9332  1.4750
   24MOL   H34217868   3.363   3.805   2.181 -0.9236 -0.6928 -0.6237
   24MOL   H34317869   3.203   3.645   2.251  1.5982  0.6775 -0.8229
   24MOL   C34417870   3.470   4.629   2.055  0.1762 -0.1343  0.1421
   24MOL   C34517871   3.435   4.500   1.976  1.5994 -0.0126 -0.2361
   24MOL   C34617872   3.392   4.382   2.064 -0.0114 -0.6961 -0.3566
   24MOL   C34717873   3.370   4.262   1.972 -0.8015  0.4597 -0.9897
   24MOL   C34817874   3.496   4.357   2.176  0.5648  0.2019 -0.1393
   24MOL   C34917875   3.534   4.481   2.258  0.2053 -0.3370 -0.5456
   24MOL   C35017876   3.570   4.603   2.170  0.4367  0.1298  0.4123
   24MOL   C35117877   3.604   4.727   2.258 -0.1480 -0.0854  0.3327
   24MOL   O35217878   3.659   4.842   2.187 -0.0691 -0.3110 -0.2993
   24MOL   C35317879   3.582   4.934   2.140  0.0966 -1.0980 -0.3374
   24MOL   O35417880   3.459   4.926   2.125 -0.4469 -0.5360  0.1690
   24MOL   C35517881   3.649   5.066   2.125 -0.1362  0.1038  0.1700
   24MOL   C35617882   3.577   5.172   2.062  0.0681 -0.1975 -0.1567
   24MOL   C35717883   3.637   5.295   2.033  0.6004  0.6364  0.6786
   24MOL   C35817884   3.779   5.308   2.049  0.0970 -0.0434 -0.2359
   24MOL   C35917885   3.857   5.429   2.007 -0.5048  0.1712  0.0126
   24MOL   O36017886   3.984   5.440   2.019  0.1178 -0.2572 -0.3924
   24MOL   O36117887   3.782   5.526   1.962 -0.0360  0.5087  0.4574
   24MOL   C36217888   3.855   5.206   2.117 -0.6185  0.3022  0.0137
   24MOL   C36317889   3.786   5.086   2.157 -0.7345  0.3950  0.3417
   24MOL   H36417890   3.376   4.663   2.097  0.7574  1.1663  0.4341
   24MOL   H36517891   3.505   4.707   1.988 -0.5881  0.4803  0.4505
   24MOL   H36617892   3.521   4.474   1.915  0.3315  0.7403 -2.4234
   24MOL   H36717893   3.363   4.525   1.898  0.4695 -2.3420  0.0192
   24MOL   H36817894   3.301   4.402   2.121  0.2505 -0.7273  0.0781
   24MOL   H36917895   3.465   4.214   1.950  0.2834 -0.4115  4.6690
   24MOL   H37017896   3.326   4.303   1.882 -1.7019  0.8165 -0.3931
   24MOL   H37117897   3.581   4.318   2.120 -0.5054  0.9597 -2.3542
   24MOL   H37217898   3.467   4.280   2.248 -0.4651 -1.0196 -1.8022
   24MOL   H37317899   3.459   4.511   2.330  1.1497  0.0782  0.2808
   24MOL   H37417900   3.621   4.456   2.318  1.0773 -3.2254 -2.8574
   24MOL   H37517901   3.660   4.568   2.119  1.7263  3.9294 -0.0560
   24MOL   H37617902   3.668   4.709   2.345  2.1370  2.3742 -0.7864
   24MOL   H37717903   3.506   4.753   2.298  0.0041  4.4211 -1.9323
   24MOL   H37817904   3.471   5.167   2.044 -0.2302 -0.0258  1.4300
   24MOL   H37917905   3.579   5.377   1.994  1.0881 -0.6166 -2.7959
   24MOL   H38017906   3.960   5.215   2.141 -0.1867 -1.4331 -1.1325
   24MOL   H38117907   3.832   5.001   2.207 -1.0004  0.0229 -0.0418
   24MOL   C38217908   3.528   5.880   1.833  0.1857 -0.1466 -0.2977
   24MOL   C38317909   3.611   5.780   1.920  0.6983 -0.6792 -0.1910
   24MOL   C38417910   3.752   5.757   1.850  0.2747 -0.0143  0.1118
   24MOL   C38517911   3.842   5.651   1.925  0.2469  0.2521 -0.0589
   24MOL   C38617912   3.746   5.727   1.698  0.2806  0.2148 -0.0384
   24MOL   C38717913   3.656   5.822   1.629 -0.4465 -0.1964  0.1878
   24MOL   C38817914   3.515   5.834   1.692 -0.6842 -0.2645 -0.2338
   24MOL   C38917915   3.421   5.929   1.601  0.0252 -0.3158 -0.8326
   24MOL   O39017916   3.507   6.036   1.551  0.2841 -0.2537 -0.5274
   24MOL   C39117917   3.519   6.153   1.603 -0.0563  0.0309 -0.6689
   24MOL   O39217918   3.450   6.188   1.704  0.0889  0.2266  0.0739
   24MOL   C39317919   3.615   6.240   1.531  0.1764  0.0931 -0.2370
   24MOL   C39417920   3.651   6.214   1.396  0.3191 -0.4435  0.3681
   24MOL   C39517921   3.737   6.294   1.324 -0.0373 -0.0868  0.0883
   24MOL   C39617922   3.794   6.411   1.379  0.4008 -0.8739  0.0554
   24MOL   C39717923   3.889   6.496   1.297  0.6158 -0.3555  0.0222
   24MOL   O39817924   3.919   6.616   1.330  0.1414  0.1729 -0.6254
   24MOL   O39917925   3.935   6.433   1.191  0.1245  0.5220  0.0822
   24MOL   C40017926   3.763   6.438   1.510  0.0323 -0.0435 -0.1498
   24MOL   C40117927   3.672   6.355   1.586  0.0855 -0.4015  0.4145
   24MOL   H40217928   3.573   5.980   1.840 -1.3388  0.5397 -0.0532
   24MOL   H40317929   3.428   5.885   1.876  0.7383 -2.1686  1.2758
   24MOL   H40417930   3.551   5.690   1.933 -0.5750 -0.0738 -1.7565
   24MOL   H40517931   3.623   5.830   2.016  0.6598  1.9647 -1.5144
   24MOL   H40617932   3.800   5.854   1.851  0.3520 -0.0531  0.1124
   24MOL   H40717933   3.870   5.687   2.024  4.9837  2.3145 -2.0197
   24MOL   H40817934   3.934   5.633   1.871  0.2777  0.8221 -0.1945
   24MOL   H40917935   3.708   5.625   1.688  2.0686 -0.4101 -0.6084
   24MOL   H41017936   3.850   5.733   1.664  0.9537  0.6407  1.9945
   24MOL   H41117937   3.699   5.921   1.644 -2.0367  0.4128  0.7910
   24MOL   H41217938   3.653   5.809   1.520 -0.5312  0.9107  0.0545
   24MOL   H41317939   3.468   5.736   1.704  0.7604 -1.3002 -2.7394
   24MOL   H41417940   3.333   5.974   1.647 -0.7003 -0.2521 -2.2444
   24MOL   H41517941   3.387   5.864   1.520  0.7746 -2.0664  0.2236
   24MOL   H41617942   3.611   6.124   1.350  0.0589 -0.2269  0.1665
   24MOL   H41717943   3.749   6.285   1.217 -1.3540  0.8959 -0.1540
   24MOL   H41817944   3.801   6.528   1.554 -1.0326 -0.5900  1.9166
   24MOL   H41917945   3.634   6.396   1.679 -0.8199  0.5529 -0.3649
   24MOL   C42017946   3.840   6.341   0.776  0.3569 -0.4595  0.0206
   24MOL   C42117947   3.857   6.420   0.910  0.5644 -0.1685  0.8421
   24MOL   C42217948   3.998   6.420   0.969 -0.7168 -0.3827  0.6849
   24MOL   C42317949   3.999   6.509   1.094  0.2558  0.4518 -0.1605
   24MOL   C42417950   4.046   6.276   0.982  0.6374 -0.2384 -1.1679
   24MOL   C42517951   4.026   6.189   0.851  0.3835 -0.3349  0.3975
   24MOL   C42617952   3.880   6.192   0.799 -0.2227  0.3540 -0.2897
   24MOL   C42717953   3.853   6.104   0.679  1.3035  0.6833 -0.3931
   24MOL   O42817954   3.909   6.174   0.566  0.1654 -0.2753  0.0073
   24MOL   C42917955   3.863   6.153   0.443  0.3555  0.1850  0.3073
   24MOL   O43017956   3.765   6.077   0.421  0.4236 -0.5472  0.5255
   24MOL   C43117957   3.939   6.228   0.331 -0.4994  0.0075  0.4590
   24MOL   C43217958   3.888   6.227   0.197  0.0887 -0.0275  0.2000
   24MOL   C43317959   3.958   6.300   0.098  0.2969 -0.5342  0.2814
   24MOL   C43417960   4.067   6.388   0.137 -0.1446  0.2823  0.0928
   24MOL   C43517961   4.132   6.463   0.026  0.6263 -0.5804  0.6312
   24MOL   O43617962   4.097   6.453   7.938  0.3383 -0.0806  0.2499
   24MOL   O43717963   4.230   6.540   0.067 -0.2454 -0.0784  0.1531
   24MOL   C43817964   4.111   6.386   0.272 -0.0414  0.1869  0.0132
   24MOL   C43917965   4.055   6.298   0.361 -0.1317 -0.5422 -0.1391
   24MOL   H44017966   3.913   6.386   0.709 -0.5247  0.8596 -0.0716
   24MOL   H44117967   3.736   6.359   0.746  0.8556  0.3993 -1.2376
   24MOL   H44217968   3.785   6.379   0.980 -0.4730 -0.9866 -0.6850
   24MOL   H44317969   3.830   6.522   0.883 -1.6521 -0.3348  2.3426
   24MOL   H44417970   4.065   6.467   0.897 -1.3802  0.9476  0.9300
   24MOL   H44517971   3.970   6.614   1.082 -0.5139  0.3396  0.6548
   24MOL   H44617972   4.101   6.510   1.131  0.2901  2.5341 -0.2157
   24MOL   H44717973   3.998   6.227   1.067 -1.2362 -0.1142 -2.1172
   24MOL   H44817974   4.152   6.274   1.008  0.7923  0.2497 -1.7479
   24MOL   H44917975   4.107   6.208   0.780  2.3602  1.7508  3.0456
   24MOL   H45017976   4.046   6.086   0.881 -1.3438  0.2972  3.9751
   24MOL   H45117977   3.822   6.148   0.880  0.5805  0.9454  0.6119
   24MOL   H45217978   3.746   6.094   0.661  1.2776  0.2321 -0.0137
   24MOL   H45317979   3.892   6.003   0.692 -1.0393 -0.4885 -1.9725
   24MOL   H45417980   3.800   6.169   0.177  0.2269  0.3204 -1.4669
   24MOL   H45517981   3.921   6.286   8.030 -0.5259 -0.1717  0.5305
   24MOL   H45617982   4.191   6.454   0.296 -0.1678  0.1475  0.5486
   24MOL   H45717983   4.091   6.300   0.462 -0.7615  0.3900  0.0741
   24MOL   C45817984   4.655   6.699   0.096  0.1083  0.2626 -1.6151
   24MOL   C45917985   4.532   6.617   0.056  0.4106  0.8166 -0.2237
   24MOL   C46017986   4.408   6.702   0.025 -0.1610  0.2163  0.0742
   24MOL   C46117987   4.287   6.628   8.006 -0.3488  0.0642  0.0803
   24MOL   C46217988   4.375   6.795   0.144  0.0610  0.3469 -0.3061
   24MOL   C46317989   4.500   6.879   0.184  0.0956 -0.3400  0.1171
   24MOL   C46417990   4.623   6.785   0.220  0.8443 -0.4073 -0.1948
   24MOL   C46517991   4.752   6.859   0.266 -0.2108 -0.5712 -0.2828
   24MOL   O46617992   4.709   6.916   0.392 -0.3751 -0.9669 -0.4474
   24MOL   C46717993   4.798   6.980   0.470  0.2427  0.6980  0.4918
   24MOL   O46817994   4.911   7.012   0.444 -0.6665  0.0426 -0.0445
   24MOL   C46917995   4.729   7.005   0.598 -0.5607 -0.3214 -0.0811
   24MOL   C47017996   4.806   6.986   0.717  0.0949  0.5300  0.7027
   24MOL   C47117997   4.748   6.997   0.845  0.5697  0.1943 -0.2157
   24MOL   C47217998   4.612   7.029   0.854  0.4053 -0.5321 -0.0806
   24MOL   C47317999   4.555   7.038   0.990  0.0659 -0.2457 -0.1815
   24MOL   O47418000   4.614   7.048   1.096 -0.0898  0.1644  0.1555
   24MOL   O47518001   4.423   7.051   0.984  1.0581  0.1654  0.1270
   24MOL   C47618002   4.535   7.043   0.734 -0.1689  0.2934 -0.2169
   24MOL   C47718003   4.588   7.036   0.608  0.5735 -0.4762  0.1901
   24MOL   H47818004   4.683   6.770   0.018  1.6282 -0.7405 -2.0022
   24MOL   H47918005   4.746   6.640   0.111  1.2845  2.3028 -0.4364
   24MOL   H48018006   4.504   6.547   0.135  0.7100  3.5035  2.3493
   24MOL   H48118007   4.552   6.558   7.999  0.6952  0.9745 -0.2614
   24MOL   H48218008   4.437   6.762   7.971  1.1244 -0.3843  0.0751
   24MOL   H48318009   4.327   6.579   7.917 -0.6534  1.1010 -0.6316
   24MOL   H48418010   4.206   6.693   7.972 -1.2879 -1.3542 -0.4578
   24MOL   H48518011   4.345   6.735   0.230 -1.0193  2.3977  0.7981
   24MOL   H48618012   4.290   6.859   0.122  0.2545  0.8111  0.2625
   24MOL   H48718013   4.539   6.939   0.102  0.6547 -1.0977 -0.1786
   24MOL   H48818014   4.485   6.952   0.264  0.5442 -0.7329  0.5624
   24MOL   H48918015   4.577   6.725   0.298 -0.4495  1.8642  0.8511
   24MOL   H49018016   4.774   6.935   0.191 -1.6963  1.1493  0.9728
   24MOL   H49118017   4.825   6.779   0.281 -1.4541 -1.3538  1.8625
   24MOL   H49218018   4.910   6.962   0.699 -0.0315  0.8777 -0.5501
   24MOL   H49318019   4.806   6.982   0.935 -0.3095 -2.2600 -0.0103
   24MOL   H49418020   4.435   7.083   0.737 -0.0589  0.5988 -0.6309
   24MOL   H49518021   4.536   7.062   0.517  3.3489 -1.0522 -1.6228
   24MOL   C49618022   4.130   7.387   0.903 -0.3361  0.2972  0.1502
   24MOL   C49718023   4.210   7.249   0.915  0.0856 -0.4430  1.1365
   24MOL   C49818024   4.290   7.257   1.042 -0.2531 -0.1364 -0.5888
   24MOL   C49918025   4.351   7.119   1.090  0.5991 -0.5795  0.9051
   24MOL   C50018026   4.394   7.372   1.016 -0.0311 -0.1219  0.7743
   24MOL   C50118027   4.329   7.509   0.993  1.0834 -0.1914  0.8374
   24MOL   C50218028   4.227   7.505   0.877  0.8610  0.1470 -0.2428
   24MOL   C50318029   4.161   7.647   0.873 -0.3718  0.0646 -0.0278
   24MOL   O50418030   4.069   7.649   0.770 -0.0409 -0.6824 -0.3300
   24MOL   C50518031   3.982   7.754   0.764  0.1624  0.2230 -1.0076
   24MOL   O50618032   3.970   7.849   0.843 -0.2566  0.3394 -0.3633
   24MOL   C50718033   3.913   7.740   0.637 -0.2829  0.2463  0.7492
   24MOL   C50818034   3.978   7.685   0.523 -0.0401 -0.3004 -0.2310
   24MOL   C50918035   3.903   7.675   0.403  0.6024 -0.6650 -0.5208
   24MOL   C51018036   3.770   7.723   0.389 -0.2051  0.7023 -0.7755
   24MOL   C51118037   3.710   7.724   0.250 -0.1232 -0.8665 -0.3003
   24MOL   O51218038   3.760   7.668   0.152 -0.7270 -0.0708  0.2518
   24MOL   O51318039   3.590   7.795   0.250  0.7893  0.5455  0.3307
   24MOL   C51418040   3.706   7.764   0.506 -0.2195 -0.1899  0.7156
   24MOL   C51518041   3.773   7.764   0.631 -0.3753 -0.2407  0.1251
   24MOL   H51618042   4.064   7.408   0.987  0.6713  2.5918  0.3902
   24MOL   H51718043   4.067   7.373   0.815 -2.9069 -0.3731  2.0331
   24MOL   H51818044   4.279   7.229   0.833  0.7324 -0.4125  1.6637
   24MOL   H51918045   4.129   7.177   0.918 -0.9489  0.3645 -3.6685
   24MOL   H52018046   4.219   7.286   1.119  0.0582  0.7085 -0.6101
   24MOL   H52118047   4.268   7.050   1.105  0.0907 -0.4306 -1.1272
   24MOL   H52218048   4.411   7.130   1.180  1.0531 -0.2433  0.5620
   24MOL   H52318049   4.457   7.345   0.931 -1.5382  1.2184 -0.8079
   24MOL   H52418050   4.461   7.376   1.101  1.8766  0.6473 -0.7134
   24MOL   H52518051   4.273   7.535   1.084  0.4620  2.5047 -0.2524
   24MOL   H52618052   4.400   7.591   0.978  0.5942 -0.1380 -1.2332
   24MOL   H52718053   4.263   7.482   0.777 -0.4161  3.7276 -1.6115
   24MOL   H52818054   4.230   7.730   0.860  2.2300 -1.6827  2.1501
   24MOL   H52918055   4.103   7.669   0.963  1.9176 -2.1701  2.0542
   24MOL   H53018056   4.079   7.646   0.534  1.1125  2.6320  0.0788
   24MOL   H53118057   3.964   7.650   0.317 -1.3902 -0.9728 -1.8673
   24MOL   H53218058   3.605   7.800   0.495 -0.6231 -1.0257  1.6368
   24MOL   H53318059   3.725   7.783   0.726 -2.0412 -2.8533 -0.1297
   24MOL   C53418060   3.588   0.065   7.952 -0.4566 -0.0134  0.0880
   24MOL   C53518061   3.557   8.015   0.052  0.3789  0.2392 -0.3470
   24MOL   C53618062   3.537   7.866   0.026  0.2535 -0.5617  0.4709
   24MOL   C53718063   3.492   7.793   0.148  0.6629 -0.9066 -0.2538
   24MOL   C53818064   3.428   7.845   7.949  0.0553 -0.3984 -0.4679
   24MOL   C53918065   3.454   7.925   7.823  0.2981  0.1111 -1.0011
   24MOL   C54018066   3.485   0.043   7.844  0.3781  0.9529  0.4376
   24MOL   C54118067   3.525   0.124   7.710  0.1900 -0.5207 -0.1180
   24MOL   O54218068   3.409   0.124   7.628 -0.1751  0.0827 -0.2998
   24MOL   C54318069   3.419   0.078   7.503  0.6545 -0.6023 -0.7420
   24MOL   O54418070   3.515   0.015   7.458 -0.7160  0.2313 -0.2903
   24MOL   C54518071   3.299   0.122   7.423 -0.7441  0.1886 -0.2135
   24MOL   C54618072   3.173   0.147   7.476  0.5119 -0.1206 -0.3434
   24MOL   C54718073   3.064   0.185   7.397 -0.2959 -0.0813 -0.7055
   24MOL   C54818074   3.083   0.206   7.256 -0.4726  0.4274  0.9382
   24MOL   C54918075   2.971   0.260   7.168 -0.0768 -0.4954 -0.2676
   24MOL   O55018076   2.980   0.278   7.043  0.0317 -0.1184 -0.2117
   24MOL   O55118077   2.868   0.298   7.238 -0.3957 -0.0466  0.0699
   24MOL   C55218078   3.210   0.185   7.208 -0.1196 -0.0460  1.2115
   24MOL   C55318079   3.319   0.142   7.285 -0.6393  0.7178  0.0672
   24MOL   H55418080   3.687   0.032   7.922  0.2385  1.4666  0.7228
   24MOL   H55518081   3.590   0.171   7.975  0.4427 -0.0241  0.0432
   24MOL   H55618082   3.465   0.026   0.093 -0.1733  0.5350 -1.8510
   24MOL   H55718083   3.633   0.003   0.127  0.7741 -0.4969 -0.5458
   24MOL   H55818084   3.626   7.811   8.029 -0.1797 -1.1586  0.2769
   24MOL   H55918085   3.485   7.687   0.122 -0.2724 -1.0680  0.5849
   24MOL   H56018086   3.392   7.826   0.177  0.9912 -1.2134  1.2821
   24MOL   H56118087   3.332   7.876   7.990 -0.0990 -1.3550 -0.0747
   24MOL   H56218088   3.414   7.740   7.923  1.4688 -1.0082  1.0543
   24MOL   H56318089   3.538   7.886   7.766  1.1282  0.8675 -0.2957
   24MOL   H56418090   3.368   7.902   7.760 -1.0213 -0.8256  1.0556
   24MOL   H56518091   3.390   0.080   7.883  0.5195 -1.5091  3.3420
   24MOL   H56618092   3.616   0.085   7.666  0.2008 -2.5929  1.6361
   24MOL   H56718093   3.540   0.227   7.742  0.2502 -1.0433  1.5723
   24MOL   H56818094   3.164   0.125   7.581 -0.8638 -1.2845 -0.6988
   24MOL   H56918095   2.967   0.188   7.444 -0.6669 -0.6494 -1.4176
   24MOL   H57018096   3.228   0.209   7.104 -0.0033  1.4148  1.5578
   24MOL   H57118097   3.405   0.113   7.227 -0.1323  3.0531 -0.4262
   24MOL   C57218098   2.578   0.504   7.501  0.1507 -0.0013  0.2817
   24MOL   C57318099   2.700   0.497   7.412  0.5766 -0.0818 -0.4616
   24MOL   C57418100   2.664   0.437   7.272  0.0610 -0.0157 -0.3757
   24MOL   C57518101   2.795   0.408   7.187 -0.2145 -0.1151 -0.1242
   24MOL   C57618102   2.581   0.308   7.281  0.7562 -0.4387  0.7978
   24MOL   C57718103   2.460   0.319   7.375  0.5123  0.5447 -0.9788
   24MOL   C57818104   2.490   0.373   7.511  0.7929  0.0476  0.7247
   24MOL   C57918105   2.359   0.387   7.591 -0.3038  0.0745  0.6054
   24MOL   O58018106   2.307   0.263   7.613  0.6316 -0.1215 -0.7272
   24MOL   C58118107   2.252   0.218   7.733 -0.3854 -0.4927 -0.2266
   24MOL   O58218108   2.250   0.286   7.838  0.2854 -0.3852  0.4317
   24MOL   C58318109   2.207   0.079   7.723 -0.1537  0.0802  0.0745
   24MOL   C58418110   2.164   0.010   7.837 -0.2309  0.4922  0.6485
   24MOL   C58518111   2.125   7.910   7.839  0.1539  0.0358 -0.0557
   24MOL   C58618112   2.121   7.839   7.716 -0.1869 -0.1904  0.2859
   24MOL   C58718113   2.052   7.705   7.708 -0.7929  0.1601  0.1137
   24MOL   O58818114   2.005   7.660   7.600  0.2149  0.3768 -0.7232
   24MOL   O58918115   2.036   7.649   7.824  0.4689 -0.4239 -0.6182
   24MOL   C59018116   2.152   7.911   7.604 -0.5443  0.1458 -0.5123
   24MOL   C59118117   2.208   0.006   7.604 -0.3295 -0.1514 -0.1360
   24MOL   H59218118   2.518   0.590   7.471 -0.7768 -0.3924  0.9919
   24MOL   H59318119   2.611   0.528   7.602  0.4891  1.3100 -0.1319
   24MOL   H59418120   2.778   0.430   7.448  0.7910  0.1409 -0.5092
   24MOL   H59518121   2.749   0.593   7.400 -0.9123  0.5065 -2.1140
   24MOL   H59618122   2.594   0.505   7.224 -1.9972 -1.3892  0.5713
   24MOL   H59718123   2.861   0.494   7.176 -0.5859  0.2355  0.3633
   24MOL   H59818124   2.758   0.381   7.088 -0.7299  1.3915 -0.3637
   24MOL   H59918125   2.649   0.229   7.313  0.9260 -1.5000 -2.0164
   24MOL   H60018126   2.558   0.279   7.178 -0.4579  0.5377  0.7803
   24MOL   H60118127   2.377   0.379   7.336 -0.0319 -0.5761 -1.5849
   24MOL   H60218128   2.409   0.222   7.371 -2.7475  2.2050 -1.7789
   24MOL   H60318129   2.548   0.293   7.557 -0.5883  0.5893  3.5576
   24MOL   H60418130   2.296   0.446   7.526 -0.3609 -0.7691 -0.1140
   24MOL   H60518131   2.372   0.444   7.683  1.5969  1.4360 -0.4676
   24MOL   H60618132   2.167   0.056   7.935  1.0513 -2.1713  1.8955
   24MOL   H60718133   2.085   7.867   7.930 -1.4931 -1.1952 -1.3437
   24MOL   H60818134   2.128   7.872   7.506 -0.9216 -2.4753  0.5928
   24MOL   H60918135   2.249   0.049   7.514 -1.0083 -1.3642 -1.0525
   24MOL   C61018136   1.750   7.388   0.078  0.0080 -0.0510 -0.5358
   24MOL   C61118137   1.825   7.387   7.982  0.2315  0.3007 -0.1671
   24MOL   C61218138   1.879   7.529   7.960  0.3317 -0.1434  0.4128
   24MOL   C61318139   1.969   7.525   7.834 -0.6108  0.0208  0.3799
   24MOL   C61418140   1.764   7.630   7.952  0.8274 -0.2624 -0.0551
   24MOL   C61518141   1.706   7.639   0.059  0.2289  0.7778 -0.1524
   24MOL   C61618142   1.649   7.503   0.104  0.1646 -0.1854  0.7404
   24MOL   C61718143   1.586   7.507   0.248  0.3842 -0.5433 -0.5887
   24MOL   O61818144   1.462   7.583   0.244 -0.5360 -0.3309  0.7503
   24MOL   C61918145   1.413   7.637   0.357 -0.2030  0.2559 -0.6028
   24MOL   O62018146   1.475   7.636   0.460  0.1314  0.3536 -0.6037
   24MOL   C62118147   1.274   7.689   0.359  0.8141 -0.5972 -0.3535
   24MOL   C62218148   1.218   7.742   0.245  0.0010 -0.0250  0.5231
   24MOL   C62318149   1.093   7.803   0.241  0.2043 -0.0346  0.5991
   24MOL   C62418150   1.019   7.801   0.361  0.9072 -0.6866 -0.5840
   24MOL   C62518151   0.884   7.861   0.373 -0.6016  0.4547  0.4517
   24MOL   O62618152   0.823   7.886   0.479  0.0735 -0.0132 -0.3263
   24MOL   O62718153   0.825   7.859   0.250 -0.2896  0.1847 -0.6105
   24MOL   C62818154   1.066   7.743   0.485  0.0700  0.1809 -0.2939
   24MOL   C62918155   1.197   7.690   0.478  0.3180  1.0766 -0.0593
   24MOL   H63018156   1.827   7.387   0.155 -0.3833 -1.3531 -0.1503
   24MOL   H63118157   1.693   7.295   0.072  0.3583 -0.2828 -0.3081
   24MOL   H63218158   1.768   7.375   7.890  0.5142 -1.2138 -0.1512
   24MOL   H63318159   1.901   7.310   7.988  1.5420  1.5674 -0.1005
   24MOL   H63418160   1.942   7.562   0.010  1.6325 -2.3015  0.3311
   24MOL   H63518161   1.905   7.521   7.746  0.9845  0.0089 -0.7898
   24MOL   H63618162   2.032   7.436   7.833  0.2457  0.6323 -0.4346
   24MOL   H63718163   1.693   7.595   7.876  2.1075 -1.6649 -0.6184
   24MOL   H63818164   1.797   7.728   7.918 -3.4065  1.4971  0.5342
   24MOL   H63918165   1.777   7.667   0.137 -0.3066 -1.1384  1.0861
   24MOL   H64018166   1.628   7.715   0.053 -0.7928 -0.2325  0.0019
   24MOL   H64118167   1.570   7.469   0.037  0.4750 -0.0344  0.2958
   24MOL   H64218168   1.667   7.533   0.317 -1.1061  2.3517  0.1562
   24MOL   H64318169   1.556   7.409   0.285 -0.0402 -0.6751 -1.2696
   24MOL   H64418170   1.268   7.737   0.149 -3.4179 -4.2187 -1.2184
   24MOL   H64518171   1.046   7.842   0.152 -0.4118  2.1684  1.8587
   24MOL   H64618172   1.013   7.735   0.579 -0.8211 -0.0718 -0.8068
   24MOL   H64718173   1.236   7.643   0.566 -0.4310 -0.2480 -0.4303
   24MOL   C64818174   0.682   7.920   7.873 -0.5165  0.0913 -0.7090
   24MOL   C64918175   0.737   7.924   8.018 -0.0804 -1.0022  0.2561
   24MOL   C65018176   0.643   7.856   0.087 -0.6502 -0.1190  0.0829
   24MOL   C65118177   0.688   7.882   0.235  0.6438  0.5204 -0.0622
   24MOL   C65218178   0.503   7.903   0.065 -0.7211 -0.0259  0.5186
   24MOL   C65318179   0.448   7.898   7.952  0.7404  0.3160  0.1618
   24MOL   C65418180   0.542   7.983   7.864  0.2746  0.2715  0.2151
   24MOL   C65518181   0.488   8.000   7.724 -0.7934  0.3910 -0.9009
   24MOL   O65618182   0.362   0.026   7.723  0.3859 -0.1273 -0.0912
   24MOL   C65718183   0.339   0.156   7.698  0.2506  0.6238 -1.0460
   24MOL   O65818184   0.429   0.234   7.660 -0.1715 -0.0842  0.3239
   24MOL   C65918185   0.194   0.191   7.716  0.0400 -0.0966  0.1799
   24MOL   C66018186   0.098   0.088   7.746  0.0849  0.6267  1.0001
   24MOL   C66118187   8.000   0.119   7.778  0.1402  0.2505  0.1244
   24MOL   C66218188   7.966   0.255   7.791 -0.2774 -0.2146  0.4649
   24MOL   C66318189   7.837   0.297   7.858 -0.4727  0.8543  0.0798
   24MOL   O66418190   7.813   0.411   7.887  0.4161  0.2941 -0.4472
   24MOL   O66518191   7.752   0.187   7.878  0.1663  0.6677 -0.6020
   24MOL   C66618192   0.027   0.357   7.762  0.1290 -0.9145  0.3206
   24MOL   C66718193   0.160   0.329   7.722  0.2474  0.3391 -0.1667
   24MOL   H66818194   0.681   7.817   7.837 -1.4381  0.0057 -0.4470
   24MOL   H66918195   0.746   7.973   7.803  1.3388  0.1842  1.0186
   24MOL   H67018196   0.761   8.028   0.012 -1.9530 -0.6207  0.5264
   24MOL   H67118197   0.834   7.874   8.026  0.9540  1.0409  0.9687
   24MOL   H67218198   0.639   7.749   0.065 -0.9895  0.2405 -1.6923
   24MOL   H67318199   0.621   7.829   0.303  1.2459 -1.1793 -0.7721
   24MOL   H67418200   0.679   7.988   0.256 -0.2071  0.1594  1.4346
   24MOL   H67518201   0.499   8.007   0.097  2.5706 -0.0412  1.1470
   24MOL   H67618202   0.431   7.846   0.125  0.0946 -1.6313  0.0084
   24MOL   H67718203   0.438   7.797   7.913 -1.1141  0.3305  0.5224
   24MOL   H67818204   0.347   7.940   7.951  0.2430 -0.8376 -2.6346
   24MOL   H67918205   0.538   0.048   7.912 -0.1090  0.9022 -1.0748
   24MOL   H68018206   0.469   7.906   7.672 -0.0205  0.5344 -1.4567
   24MOL   H68118207   0.556   0.021   7.657 -2.6878 -0.1283 -3.2960
   24MOL   H68218208   0.127   8.017   7.735 -0.2061  0.6043  0.4085
   24MOL   H68318209   7.935   0.034   7.789 -0.2683  0.4379 -0.7879
   24MOL   H68418210   8.023   0.459   7.769 -1.3071 -1.4128  0.1635
   24MOL   H68518211   0.234   0.406   7.704 -0.2005  1.1585  1.3432
   24MOL   C68618212   7.365   8.030   0.114  0.0571 -0.4149 -0.0276
   24MOL   C68718213   7.434   0.116   0.038 -0.5241  0.0227  0.1585
   24MOL   C68818214   7.568   0.086   7.998 -0.1708 -0.0101 -0.0908
   24MOL   C68918215   7.628   0.207   7.937  0.0890  0.1892  0.0833
   24MOL   C69018216   7.660   0.015   0.069 -0.7365  1.0456  0.0960
   24MOL   C69118217   7.597   7.921   0.133 -0.2355 -0.0892  0.2349
   24MOL   C69218218   7.466   7.957   0.207  0.5090 -0.0490 -0.1721
   24MOL   C69318219   7.405   7.844   0.293 -0.1936 -0.4970  0.1879
   24MOL   O69418220   7.469   7.839   0.417  0.7683  0.2265  0.1307
   24MOL   C69518221   7.575   7.765   0.440 -0.4228  1.1859 -0.6167
   24MOL   O69618222   7.632   7.696   0.358  0.3905 -0.2515 -0.3912
   24MOL   C69718223   7.645   7.794   0.572 -0.2453  0.1225  0.0343
   24MOL   C69818224   7.590   7.878   0.673 -0.5502 -0.4462 -0.2907
   24MOL   C69918225   7.667   7.913   0.783  0.5075 -0.3607 -0.0769
   24MOL   C70018226   7.790   7.855   0.808  0.4975 -0.1847 -0.5389
   24MOL   C70118227   7.870   7.889   0.930 -0.0967 -0.1234  0.6442
   24MOL   O70218228   7.973   7.830   0.960 -0.1949  0.2311 -0.4981
   24MOL   O70318229   7.818   7.990   1.001  0.6466  0.3379  0.0549
   24MOL   C70418230   7.846   7.770   0.711  0.1492 -0.0461 -0.3079
   24MOL   C70518231   7.775   7.740   0.592 -0.7119  0.5889  0.2932
   24MOL   H70618232   7.322   7.957   0.044  1.4255 -1.5297  0.2681
   24MOL   H70718233   7.283   0.054   0.159  1.5539  0.2946  1.8981
   24MOL   H70818234   7.448   0.197   0.109  1.0843 -0.2853  0.2100
   24MOL   H70918235   7.364   0.141   7.990 -0.2528 -0.0997 -0.1167
   24MOL   H71018236   7.545   0.010   7.923  2.3677  1.0782 -2.0520
   24MOL   H71118237   7.635   0.286   8.012 -1.1020 -0.9467  1.4224
   24MOL   H71218238   7.555   0.250   7.869 -0.6576  1.4306  1.6304
   24MOL   H71318239   7.693   0.071   0.157 -1.8621 -1.8362  2.4560
   24MOL   H71418240   7.758   8.020   0.030  0.4022  1.7620  2.3134
   24MOL   H71518241   7.566   7.856   0.051 -0.9614 -0.0939  0.5064
   24MOL   H71618242   7.670   7.869   0.195  1.6849  2.2088 -0.0384
   24MOL   H71718243   7.496   0.001   0.281 -1.7428 -0.5903  1.3529
   24MOL   H71818244   7.399   7.756   0.229 -0.1029 -0.2392 -0.1757
   24MOL   H71918245   7.302   7.869   0.316 -0.9734 -0.8117 -2.7703
   24MOL   H72018246   7.490   7.914   0.652  0.1609  2.5807  1.2431
   24MOL   H72118247   7.618   7.975   0.857  0.3783  2.3246 -2.3081
   24MOL   H72218248   7.948   7.736   0.717  0.1343 -0.6362 -2.7253
   24MOL   H72318249   7.834   7.679   0.525 -3.0164 -0.5143 -0.7907
   24MOL   C72418250   7.534   0.019   1.341  0.3719  0.8091 -0.0431
   24MOL   C72518251   7.638   7.987   1.249  0.4212 -0.3433  0.5959
   24MOL   C72618252   7.756   0.051   1.222 -0.0914 -0.0146  0.0869
   24MOL   C72718253   7.867   8.021   1.134  0.3592 -0.4900  0.2926
   24MOL   C72818254   7.716   0.192   1.176  0.3901 -0.4407 -0.1589
   24MOL   C72918255   7.611   0.245   1.272  0.1157 -0.0571 -0.4051
   24MOL   C73018256   7.486   0.157   1.295 -0.2734 -0.0463  0.5006
   24MOL   C73118257   7.383   0.222   1.385  0.7181 -0.0744  0.0010
   24MOL   O73218258   7.437   0.270   1.506  0.0746  0.1120 -0.2194
   24MOL   C73318259   7.446   0.393   1.531 -0.5465  0.3623 -0.1728
   24MOL   O73418260   7.400   0.483   1.465  0.3216 -0.7734  0.3331
   24MOL   C73518261   7.530   0.423   1.651  0.1703  0.0100  0.8805
   24MOL   C73618262   7.524   0.352   1.768  0.2976  0.3528 -0.3082
   24MOL   C73718263   7.612   0.381   1.873 -0.0192  0.6341 -0.2941
   24MOL   C73818264   7.689   0.504   1.869 -0.4175  0.2098  0.7425
   24MOL   C73918265   7.762   0.548   1.991 -0.3410 -0.9525 -0.1455
   24MOL   O74018266   7.789   0.469   2.081 -0.3461 -0.0673 -0.2234
   24MOL   O74118267   7.800   0.679   1.993  0.1258 -0.1775 -0.0836
   24MOL   C74218268   7.696   0.576   1.746  0.0788  0.3946 -0.0676
   24MOL   C74318269   7.619   0.533   1.638  0.4234 -0.0042 -0.1403
   24MOL   H74418270   7.566   0.008   1.445 -0.9775 -1.6336  0.1529
   24MOL   H74518271   7.443   7.992   1.333  0.2811  0.9924 -0.3855
   24MOL   H74618272   7.596   7.951   1.155 -1.1790  0.6394  0.9189
   24MOL   H74718273   7.675   7.895   1.295  1.1167  0.0844  0.9041
   24MOL   H74818274   7.810   0.063   1.316 -0.1769 -0.2486  0.1673
   24MOL   H74918275   7.910   7.934   1.183 -0.8608 -1.8214 -0.9531
   24MOL   H75018276   7.951   0.054   1.109 -0.8276  0.1913 -2.0138
   24MOL   H75118277   7.666   0.187   1.079 -1.0528 -0.2639  0.5564
   24MOL   H75218278   7.799   0.262   1.178  0.8060 -0.9522  1.2652
   24MOL   H75318279   7.671   0.241   1.362  1.4211  0.9010 -1.2112
   24MOL   H75418280   7.576   0.348   1.265  2.0946  0.6009 -1.1073
   24MOL   H75518281   7.441   0.155   1.195  1.1350  0.2593 -0.1534
   24MOL   H75618282   7.297   0.159   1.409  0.5345  0.5019  0.8966
   24MOL   H75718283   7.333   0.307   1.339 -1.0344 -0.3728  1.2828
   24MOL   H75818284   7.451   0.275   1.787 -2.2827  2.0573 -2.8587
   24MOL   H75918285   7.614   0.323   1.964  0.2673  0.9633 -0.0900
   24MOL   H76018286   7.752   0.668   1.737 -1.3695  1.2914 -0.0729
   24MOL   H76118287   7.640   0.575   1.540  0.6139  0.4979  0.1136
   24MOL   H76218288   7.764   0.721   2.069 -2.4140  0.6694 -1.6661
   25MOL     C118289   0.425   6.996   1.352  0.4937 -0.1400  0.1039
   25MOL     C218290   0.405   7.140   1.418  0.1527 -0.4329  0.6116
   25MOL     C318291   0.508   7.242   1.357 -0.0808  0.3637  1.0944
   25MOL     C418292   0.511   7.377   1.429 -0.1819  0.6671  0.4144
   25MOL     C518293   0.644   7.176   1.386  0.2108  0.0448  0.1806
   25MOL     C618294   0.668   7.038   1.314  0.1853 -0.8778 -0.1061
   25MOL     C718295   0.565   6.937   1.368 -0.1126  0.0130 -0.5153
   25MOL     C818296   0.572   6.801   1.284 -0.1896  0.1773 -0.2526
   25MOL     O918297   0.525   6.827   1.153 -0.3859 -0.0144  0.0451
   25MOL    C1018298   0.512   6.727   1.063  0.2243  0.1477 -0.1721
   25MOL    O1118299   0.542   6.613   1.085 -0.0710 -0.9240 -0.2881
   25MOL    C1218300   0.456   6.769   0.932 -0.1241 -0.3832  0.2138
   25MOL    C1318301   0.420   6.674   0.827 -0.6782  0.2529 -0.6979
   25MOL    C1418302   0.353   6.715   0.716 -0.4138 -0.8083  0.6108
   25MOL    C1518303   0.315   6.849   0.695 -0.2101 -0.2201 -0.9355
   25MOL    C1618304   0.224   6.880   0.584 -0.2764  0.2261 -0.1839
   25MOL    O1718305   0.192   6.810   0.490 -0.4174 -0.2243 -0.7432
   25MOL    O1818306   0.160   6.997   0.620  1.0234 -0.5614 -0.5244
   25MOL    C1918307   0.362   6.945   0.784  0.7624  0.9727  0.2011
   25MOL    C2018308   0.428   6.907   0.907  0.1412  0.5218  0.0805
   25MOL    H2118309   0.400   6.992   1.246  2.5661  0.9477 -0.4660
   25MOL    H2218310   0.357   6.919   1.389 -1.3889  2.0343  1.2416
   25MOL    H2318311   0.418   7.133   1.526  0.6493 -4.2875  0.3694
   25MOL    H2418312   0.304   7.179   1.404  0.7160  1.1327  0.8149
   25MOL    H2518313   0.489   7.251   1.250  2.8173  1.1940  0.6250
   25MOL    H2618314   0.413   7.416   1.459  0.7578  1.3578  2.6993
   25MOL    H2718315   0.536   7.456   1.358  1.0143 -1.4593 -1.5854
   25MOL    H2818316   0.662   7.165   1.493 -0.4534 -5.2525 -0.0838
   25MOL    H2918317   0.715   7.252   1.353 -2.1977  1.8584 -0.9974
   25MOL    H3018318   0.682   7.036   1.206  1.0174 -1.5335  0.0111
   25MOL    H3118319   0.762   6.990   1.341  0.7575 -0.0242 -0.5616
   25MOL    H3218320   0.589   6.916   1.473  0.2571  0.4797 -0.5048
   25MOL    H3318321   0.506   6.722   1.322  0.8778 -1.0071 -0.7990
   25MOL    H3418322   0.668   6.753   1.305  0.2894  1.4093  0.4150
   25MOL    H3518323   0.450   6.571   0.840  1.8266  0.9686 -0.7236
   25MOL    H3618324   0.331   6.644   0.637 -1.2580 -1.8468  1.7501
   25MOL    H3718325   0.323   7.045   0.787 -0.6192  0.5693 -2.1277
   25MOL    H3818326   0.433   6.981   0.985 -1.2794  1.0137 -0.2779
   25MOL    H3918327   0.576   7.381   1.516 -0.0631  0.7245  0.3237
   25MOL    C4018328   7.726   6.892   0.667  0.1597  0.2689  0.3509
   25MOL    C4118329   7.818   6.984   0.599 -0.3576  0.3265 -0.1747
   25MOL    C4218330   7.958   6.948   0.642 -0.2097  0.2996  0.3107
   25MOL    C4318331   0.032   7.027   0.554  0.0450  0.6167 -0.6168
   25MOL    C4418332   7.976   6.974   0.794 -0.3443  0.2194  0.1402
   25MOL    C4518333   7.871   6.897   0.881  0.1796 -0.5345  0.1495
   25MOL    C4618334   7.730   6.914   0.824 -0.2927 -0.5268 -0.2326
   25MOL    C4718335   7.648   6.806   0.896 -0.4313  0.0957  0.4615
   25MOL    O4818336   7.506   6.808   0.876 -0.3049  0.1030 -0.3382
   25MOL    C4918337   7.424   6.899   0.933  0.6589  0.0684 -0.8341
   25MOL    O5018338   7.455   6.996   1.002 -0.7674 -0.5221 -0.3470
   25MOL    C5118339   7.277   6.871   0.894 -0.2798 -0.2464  0.1794
   25MOL    C5218340   7.185   6.969   0.937  0.5922  0.2431  0.2347
   25MOL    C5318341   7.049   6.966   0.891 -0.3296 -0.3436  1.0724
   25MOL    C5418342   7.011   6.868   0.800 -0.0707  0.7329 -0.0807
   25MOL    C5518343   6.875   6.869   0.742  0.1433 -0.4527 -0.2925
   25MOL    O5618344   6.837   6.775   0.673 -0.0337  0.3716  0.3050
   25MOL    O5718345   6.800   6.977   0.774  0.3337  0.4099 -0.3375
   25MOL    C5818346   7.102   6.764   0.759  0.7859 -0.1972  0.3665
   25MOL    C5918347   7.235   6.770   0.812  0.2605  0.1817  0.6006
   25MOL    H6018348   7.747   6.787   0.644 -1.7652 -0.2228  0.7572
   25MOL    H6118349   7.627   6.907   0.623 -0.3590  2.0472  2.0826
   25MOL    H6218350   7.789   7.088   0.614  2.7684  1.0519  1.0509
   25MOL    H6318351   7.806   6.965   0.492  2.0741 -0.2001 -0.3703
   25MOL    H6418352   7.987   6.843   0.635  0.8631  0.6050 -0.0195
   25MOL    H6518353   0.009   7.133   0.565  0.7090  0.4795  2.5153
   25MOL    H6618354   0.024   6.986   0.453 -0.1016 -1.6704  0.2839
   25MOL    H6718355   7.966   7.081   0.812 -1.0298 -0.1823  2.2783
   25MOL    H6818356   0.046   6.955   0.829 -1.0860 -0.7303  1.8583
   25MOL    H6918357   7.894   6.794   0.907  0.4558 -0.3679  0.5750
   25MOL    H7018358   7.857   6.947   0.977  2.0314  0.0340  0.1489
   25MOL    H7118359   7.681   7.009   0.844  1.7813 -0.2774  3.9803
   25MOL    H7218360   7.658   6.819   1.003  2.0628 -0.9158  0.3855
   25MOL    H7318361   7.690   6.707   0.880  0.4771  0.7752 -1.5308
   25MOL    H7418362   7.210   7.053   1.000 -1.0581  0.2261  0.9375
   25MOL    H7518363   6.988   7.050   0.920  0.0603  0.6779 -0.9710
   25MOL    H7618364   7.074   6.691   0.684 -0.8696  0.5745  0.2066
   25MOL    H7718365   7.311   6.702   0.776 -1.5515 -0.7221 -1.6340
   25MOL    C7818366   6.363   7.011   1.003 -0.0668 -0.4887 -0.3293
   25MOL    C7918367   6.452   7.025   0.871  0.1512 -0.3463  0.6825
   25MOL    C8018368   6.590   6.972   0.870 -0.4886 -0.0774  0.5849
   25MOL    C8118369   6.666   6.993   0.742 -0.2929 -0.2402  0.3968
   25MOL    C8218370   6.664   7.016   1.003 -1.0212  0.1228  0.3710
   25MOL    C8318371   6.584   6.985   1.133 -0.1884 -0.0265  0.6757
   25MOL    C8418372   6.436   7.045   1.133 -0.1300 -0.7348  0.5894
   25MOL    C8518373   6.363   6.998   1.260 -0.2262 -0.7092  0.5468
   25MOL    O8618374   6.352   6.856   1.260  0.1531 -0.4034 -0.2097
   25MOL    C8718375   6.264   6.791   1.339  1.0415  0.3516 -0.0975
   25MOL    O8818376   6.202   6.848   1.428  0.2953  0.0143  0.1644
   25MOL    C8918377   6.253   6.645   1.297 -0.1596  0.2651 -0.3105
   25MOL    C9018378   6.313   6.598   1.183 -0.1271  0.5222  0.1756
   25MOL    C9118379   6.303   6.462   1.144  0.2447  0.1931 -0.3446
   25MOL    C9218380   6.239   6.364   1.227  0.7414 -0.6772 -0.1568
   25MOL    C9318381   6.253   6.215   1.193 -0.1191 -0.4445 -0.1546
   25MOL    O9418382   6.311   6.167   1.099 -0.5394  0.4930  0.3641
   25MOL    O9518383   6.190   6.143   1.282 -0.1424 -0.2455  0.1391
   25MOL    C9618384   6.176   6.413   1.343 -0.8863  0.3453 -0.0024
   25MOL    C9718385   6.182   6.547   1.371  0.4361 -1.0428  0.5275
   25MOL    H9818386   6.335   6.906   1.003  0.5747 -0.6683 -1.5429
   25MOL    H9918387   6.271   7.070   0.998  0.8533  1.1994  1.7030
   25MOL   H10018388   6.458   7.131   0.848  1.7803 -0.2609  1.3912
   25MOL   H10118389   6.397   6.990   0.784  1.1898 -0.4849  0.0729
   25MOL   H10218390   6.589   6.863   0.871 -0.7794 -0.1124 -1.4117
   25MOL   H10318391   6.665   7.099   0.715 -1.6234 -0.9214 -2.4621
   25MOL   H10418392   6.631   6.934   0.658 -0.1466  0.4085 -0.1228
   25MOL   H10518393   6.692   7.120   0.985 -1.2710  0.0102 -0.6842
   25MOL   H10618394   6.756   6.959   1.009 -1.2551 -0.3582 -0.5582
   25MOL   H10718395   6.570   6.879   1.152 -1.0478 -0.2546 -1.1110
   25MOL   H10818396   6.632   7.030   1.220  0.3151  1.7633 -0.4830
   25MOL   H10918397   6.456   7.152   1.142 -1.3565 -0.5561  1.3546
   25MOL   H11018398   6.261   7.032   1.243 -0.4979 -0.8130  1.9017
   25MOL   H11118399   6.399   7.041   1.353 -1.0322  0.2089  0.4407
   25MOL   H11218400   6.373   6.661   1.119  0.5483 -1.0539 -0.7597
   25MOL   H11318401   6.353   6.428   1.055 -1.0323  0.6957 -1.2618
   25MOL   H11418402   6.126   6.347   1.413 -1.7641  1.8960  0.8888
   25MOL   H11518403   6.130   6.591   1.455 -0.2822  0.6114 -0.7376
   25MOL   C11618404   6.021   5.907   1.615 -0.0923 -0.2142 -0.0030
   25MOL   C11718405   6.120   5.978   1.523 -0.5334 -0.0459  0.3299
   25MOL   C11818406   6.078   5.959   1.382  0.1157  0.0733  0.9091
   25MOL   C11918407   6.188   6.005   1.284 -0.0769 -0.0564 -0.1203
   25MOL   C12018408   6.058   5.810   1.350  0.3942  0.1301 -0.7191
   25MOL   C12118409   5.954   5.737   1.435  0.2993  0.2296 -0.1519
   25MOL   C12218410   5.999   5.756   1.586  0.5285  0.2142  0.3735
   25MOL   C12318411   5.897   5.700   1.682  0.0853  0.3427 -0.0769
   25MOL   O12418412   5.954   5.709   1.813 -0.1641 -0.3263 -0.1712
   25MOL   C12518413   5.899   5.635   1.909 -0.7402 -0.2973  0.7409
   25MOL   O12618414   5.803   5.554   1.892 -0.3891  0.4334  0.4511
   25MOL   C12718415   5.968   5.660   2.039 -0.0446 -0.1860  0.1286
   25MOL   C12818416   6.060   5.765   2.052 -0.7254  0.4489  0.1333
   25MOL   C12918417   6.122   5.785   2.175 -0.1438  0.6800 -0.3960
   25MOL   C13018418   6.077   5.703   2.286 -1.0435 -0.0603 -0.1477
   25MOL   C13118419   6.115   5.753   2.428  0.0088 -0.6879  0.0202
   25MOL   O13218420   6.055   5.711   2.525  0.0555 -0.3270 -0.4918
   25MOL   O13318421   6.207   5.852   2.426  0.8466  0.1544  0.5303
   25MOL   C13418422   5.989   5.593   2.270  0.0180  0.2021  0.1169
   25MOL   C13518423   5.934   5.573   2.145  0.2315 -0.0846  0.1783
   25MOL   H13618424   5.925   5.952   1.589 -0.1728 -0.6822 -0.5182
   25MOL   H13718425   6.055   5.926   1.717  1.4461  2.9560 -1.0447
   25MOL   H13818426   6.220   5.936   1.528  0.2356  1.7929  0.8267
   25MOL   H13918427   6.137   6.084   1.543 -1.0112 -0.4829  3.2948
   25MOL   H14018428   5.982   6.009   1.374  0.8812  2.0589  3.4463
   25MOL   H14118429   6.162   5.990   1.179 -1.1055 -2.0207  0.4072
   25MOL   H14218430   6.288   5.969   1.307  0.7446  1.7598 -0.7305
   25MOL   H14318431   6.149   5.751   1.356  1.1406  1.3349 -0.1751
   25MOL   H14418432   6.028   5.807   1.245  1.5520  1.5610 -1.0990
   25MOL   H14518433   5.858   5.788   1.421 -0.8028 -0.8633  3.1077
   25MOL   H14618434   5.944   5.634   1.400 -0.0540 -0.1935  1.1662
   25MOL   H14718435   6.089   5.696   1.592  0.3695 -0.2518 -1.7396
   25MOL   H14818436   5.851   5.604   1.657  1.8675 -0.1321 -1.6495
   25MOL   H14918437   5.807   5.761   1.685  0.4081  0.7410  2.4709
   25MOL   H15018438   6.101   5.828   1.974 -1.0419  0.3208 -0.1419
   25MOL   H15118439   6.193   5.866   2.184  1.5870 -0.6843 -1.3710
   25MOL   H15218440   5.949   5.538   2.354  1.5144  1.6186  1.7940
   25MOL   H15318441   5.860   5.496   2.130 -1.0850  1.3233 -0.7649
   25MOL   C15418442   6.603   5.774   2.581 -0.0987 -0.0198  0.2479
   25MOL   C15518443   6.478   5.842   2.517 -0.0709  0.2530  0.0249
   25MOL   C15618444   6.363   5.860   2.620 -0.1351  0.2929  0.4620
   25MOL   C15718445   6.243   5.921   2.539  0.2112 -0.3164 -0.1075
   25MOL   C15818446   6.328   5.739   2.700  0.6235  0.3928  0.6855
   25MOL   C15918447   6.452   5.677   2.754 -0.0355 -0.4840 -0.7308
   25MOL   C16018448   6.562   5.644   2.651  0.9010  0.0194  0.0486
   25MOL   C16118449   6.687   5.582   2.724  0.2193 -0.4895  0.5883
   25MOL   O16218450   6.653   5.452   2.759 -0.1331 -0.3186 -0.2959
   25MOL   C16318451   6.677   5.351   2.675 -0.4071 -0.1909 -0.9062
   25MOL   O16418452   6.718   5.371   2.563 -0.2803 -0.4351 -0.1163
   25MOL   C16518453   6.651   5.214   2.730  0.2971  0.9064 -0.8508
   25MOL   C16618454   6.575   5.185   2.840  0.2199 -0.4251 -0.4901
   25MOL   C16718455   6.554   5.053   2.882  0.4458 -0.7675 -0.3412
   25MOL   C16818456   6.608   4.946   2.817  0.5283  0.4396  1.3789
   25MOL   C16918457   6.577   4.802   2.851 -0.5609  0.2023  0.1308
   25MOL   O17018458   6.621   4.705   2.791  0.0561  0.6546 -0.8700
   25MOL   O17118459   6.487   4.789   2.947  0.0957 -0.5990 -0.1621
   25MOL   C17218460   6.687   4.968   2.705  0.0051 -0.0800  0.0072
   25MOL   C17318461   6.705   5.099   2.662 -0.2361 -0.6166  0.2898
   25MOL   H17418462   6.645   5.843   2.654 -1.4986 -0.4882  1.5132
   25MOL   H17518463   6.679   5.760   2.504  0.7643  1.8449  0.7310
   25MOL   H17618464   6.432   5.784   2.437  1.5850  0.2502 -0.9351
   25MOL   H17718465   6.508   5.930   2.459  0.6883 -0.2115 -0.2921
   25MOL   H17818466   6.402   5.943   2.679 -1.6729  2.3329 -1.2905
   25MOL   H17918467   6.264   6.027   2.519 -0.9105  0.1158  0.9409
   25MOL   H18018468   6.153   5.907   2.598 -1.9984 -1.9373 -3.6563
   25MOL   H18118469   6.266   5.665   2.649 -1.8832  4.2798 -2.1086
   25MOL   H18218470   6.266   5.779   2.780 -0.1309  0.2163  0.1971
   25MOL   H18318471   6.497   5.746   2.825  1.3293  0.2027 -2.2241
   25MOL   H18418472   6.429   5.594   2.822 -1.6356  0.8137  0.3463
   25MOL   H18518473   6.520   5.574   2.578 -0.7947  1.8298 -0.7711
   25MOL   H18618474   6.724   5.640   2.809 -1.8630  0.8959  0.6097
   25MOL   H18718475   6.762   5.597   2.647  3.0761  0.1463  3.4075
   25MOL   H18818476   6.535   5.264   2.902  0.5553 -1.2138  0.7426
   25MOL   H18918477   6.486   5.033   2.963 -0.4664  1.7860 -0.4393
   25MOL   H19018478   6.734   4.880   2.662  1.5545 -1.2951  3.9655
   25MOL   H19118479   6.770   5.111   2.577 -0.0365  0.0221  0.5330
   25MOL   C19218480   6.224   4.744   3.306 -0.0056  0.2760  0.2129
   25MOL   C19318481   6.345   4.740   3.212  0.0136  0.7878  1.0602
   25MOL   C19418482   6.312   4.672   3.082  0.1540 -0.6107  0.5878
   25MOL   C19518483   6.437   4.662   2.988  0.2906 -0.0948 -0.0224
   25MOL   C19618484   6.264   4.533   3.106 -0.1799 -0.1565 -0.1388
   25MOL   C19718485   6.139   4.532   3.199 -0.3934  0.1397 -0.0759
   25MOL   C19818486   6.168   4.604   3.329  0.8788  0.3083  0.3994
   25MOL   C19918487   6.040   4.621   3.407  0.0482 -0.5355  0.1596
   25MOL   O20018488   5.989   4.493   3.438 -0.7644  0.2104  0.3921
   25MOL   C20118489   6.028   4.433   3.558  0.3632  0.0486  0.5967
   25MOL   O20218490   6.095   4.489   3.639 -0.2632 -0.1723  0.7566
   25MOL   C20318491   5.967   4.300   3.576 -0.2018  0.1427 -0.0683
   25MOL   C20418492   5.994   4.223   3.694 -0.2751  0.5617  0.2166
   25MOL   C20518493   5.947   4.089   3.713  0.2307  0.4003 -0.7155
   25MOL   C20618494   5.872   4.026   3.607 -0.0895  0.2283 -0.4816
   25MOL   C20718495   5.822   3.880   3.612  0.0929  0.4378 -0.2738
   25MOL   O20818496   5.772   3.824   3.513 -0.0920  0.2145  0.3882
   25MOL   O20918497   5.845   3.825   3.737 -0.2523 -0.1906 -0.1257
   25MOL   C21018498   5.843   4.107   3.493  0.0510 -0.7512  0.1552
   25MOL   C21118499   5.887   4.244   3.477  0.4729 -0.0182  0.8017
   25MOL   H21218500   6.153   4.818   3.269  1.6518  1.4176 -0.7985
   25MOL   H21318501   6.259   4.784   3.401 -0.1144 -0.6516  0.6449
   25MOL   H21418502   6.428   4.695   3.267  0.5984 -1.3572 -1.4954
   25MOL   H21518503   6.392   4.837   3.196 -1.5851  1.5360  0.7872
   25MOL   H21618504   6.242   4.738   3.029  1.4772  1.8484  1.8178
   25MOL   H21718505   6.418   4.591   2.908  1.1291  0.3196 -0.5889
   25MOL   H21818506   6.510   4.627   3.062  1.8798  0.9942 -1.0588
   25MOL   H21918507   6.342   4.483   3.163 -1.7956 -2.1707  0.3876
   25MOL   H22018508   6.251   4.475   3.015 -0.2720  0.0272 -0.2398
   25MOL   H22118509   6.065   4.588   3.142  1.4177  1.3379 -1.3118
   25MOL   H22218510   6.106   4.429   3.215  0.6242 -0.2996 -0.7220
   25MOL   H22318511   6.247   4.547   3.376 -1.1816 -3.7639 -0.8598
   25MOL   H22418512   5.959   4.680   3.364  0.3085 -1.3047 -1.4094
   25MOL   H22518513   6.071   4.676   3.496  1.7873 -0.2353 -0.6144
   25MOL   H22618514   6.066   4.258   3.766 -1.6388  0.6556  1.5519
   25MOL   H22718515   5.976   4.034   3.801  0.6151  0.6834 -0.6670
   25MOL   H22818516   5.789   4.059   3.412 -1.2246 -2.7836  2.1315
   25MOL   H22918517   5.857   4.295   3.387  0.1153 -2.2741 -0.3958
   25MOL   C23018518   5.479   3.800   3.966 -0.0056 -0.0593  0.0065
   25MOL   C23118519   5.621   3.811   3.900 -0.7802 -0.6865  0.3043
   25MOL   C23218520   5.657   3.687   3.819 -0.4312  0.5111 -0.5722
   25MOL   C23318521   5.809   3.689   3.767 -0.0674  0.2208 -0.2320
   25MOL   C23418522   5.622   3.546   3.875  0.1265 -0.3886 -0.0346
   25MOL   C23518523   5.486   3.543   3.954 -0.1567 -0.4140  0.9130
   25MOL   C23618524   5.474   3.673   4.041  0.1834 -0.1747 -0.2856
   25MOL   C23718525   5.356   3.672   4.132 -0.6059  0.7241 -0.0030
   25MOL   O23818526   5.235   3.640   4.069 -0.9916  0.4176  0.7566
   25MOL   C23918527   5.131   3.619   4.142 -0.1116 -0.7961  0.4670
   25MOL   O24018528   5.125   3.617   4.263  0.9205  0.1069  0.0036
   25MOL   C24118529   5.016   3.594   4.050 -0.2000 -0.8905  0.1713
   25MOL   C24218530   5.030   3.569   3.909  0.3120 -0.0683 -0.0609
   25MOL   C24318531   4.922   3.538   3.831  0.7563  0.4675  0.4540
   25MOL   C24418532   4.790   3.539   3.889 -0.3876 -0.4757 -0.6709
   25MOL   C24518533   4.664   3.535   3.808 -0.2097  0.3710  0.5923
   25MOL   O24618534   4.548   3.557   3.849 -0.1156 -0.0172 -0.2585
   25MOL   O24718535   4.683   3.517   3.677 -0.3161  0.5709  0.3645
   25MOL   C24818536   4.776   3.577   4.024 -0.4077  0.8522  0.0286
   25MOL   C24918537   4.885   3.594   4.103  0.6618 -0.1619 -0.0708
   25MOL   H25018538   5.397   3.819   3.896  0.8278 -2.0058 -1.5614
   25MOL   H25118539   5.485   3.883   4.036  1.5463 -0.2996  0.1707
   25MOL   H25218540   5.693   3.828   3.981  1.4945 -0.5561 -1.7022
   25MOL   H25318541   5.631   3.898   3.835 -1.8051 -0.5993  0.2557
   25MOL   H25418542   5.601   3.691   3.726 -1.0807 -0.1303 -0.2180
   25MOL   H25518543   5.829   3.611   3.693  1.3217 -1.9230  2.3192
   25MOL   H25618544   5.875   3.645   3.843 -0.7983 -1.4317 -0.5327
   25MOL   H25718545   5.699   3.519   3.948  0.2958  1.0775  0.3348
   25MOL   H25818546   5.631   3.476   3.792 -3.2370 -0.8331 -0.1061
   25MOL   H25918547   5.409   3.531   3.878  0.2946 -3.6349  0.8793
   25MOL   H26018548   5.478   3.451   4.012  0.8902 -2.5505 -2.1888
   25MOL   H26118549   5.556   3.666   4.113 -1.6354  0.2286  1.8867
   25MOL   H26218550   5.347   3.769   4.183 -0.8581  0.6713  0.0564
   25MOL   H26318551   5.374   3.604   4.215 -0.9549  1.4830  0.7103
   25MOL   H26418552   5.123   3.569   3.853  0.4270 -0.6779  0.1298
   25MOL   H26518553   4.927   3.522   3.725  1.9161  3.7890 -0.0332
   25MOL   H26618554   4.677   3.574   4.067 -0.5435 -0.1918 -0.3403
   25MOL   H26718555   4.876   3.615   4.209 -2.5914 -1.1030 -0.1128
   25MOL   C26818556   4.584   3.938   3.533 -0.3670 -0.1873 -0.1186
   25MOL   C26918557   4.580   3.798   3.605  0.5916 -0.2362 -0.7300
   25MOL   C27018558   4.613   3.679   3.509 -0.3321 -0.2306 -0.1365
   25MOL   C27118559   4.576   3.545   3.577 -0.5554  0.2426 -0.4315
   25MOL   C27218560   4.538   3.691   3.383  0.6992 -0.1910  0.3931
   25MOL   C27318561   4.562   3.822   3.308  0.4648 -0.6494 -0.0861
   25MOL   C27418562   4.508   3.935   3.400  0.2436 -0.0623 -0.4026
   25MOL   C27518563   4.524   4.068   3.317 -0.4425 -0.4976 -0.1834
   25MOL   O27618564   4.451   4.058   3.202 -0.4729  0.3544  0.0429
   25MOL   C27718565   4.495   4.110   3.090  0.0805  0.5188 -0.2760
   25MOL   O27818566   4.615   4.139   3.076 -0.2829  0.5755  0.0368
   25MOL   C27918567   4.400   4.136   2.982 -0.2749  1.2225  0.0927
   25MOL   C28018568   4.439   4.214   2.874 -0.4686  0.2869 -0.1143
   25MOL   C28118569   4.350   4.242   2.772  0.3362  0.1985  0.0162
   25MOL   C28218570   4.219   4.192   2.776 -1.1272 -0.2635  0.3901
   25MOL   C28318571   4.130   4.226   2.661  0.3802  0.1357 -0.5380
   25MOL   O28418572   4.010   4.191   2.658  0.7290 -0.3317 -0.4008
   25MOL   O28518573   4.194   4.282   2.563 -0.3822  0.7047 -0.3983
   25MOL   C28618574   4.181   4.112   2.887 -0.1439 -0.4033 -0.5980
   25MOL   C28718575   4.270   4.084   2.992  0.3782  0.1332 -0.8012
   25MOL   H28818576   4.686   3.964   3.505 -0.9715  0.4504 -1.7992
   25MOL   H28918577   4.545   4.013   3.602 -0.1982  0.3349 -0.5839
   25MOL   H29018578   4.480   3.791   3.648  0.8322  0.7407  0.0152
   25MOL   H29118579   4.650   3.789   3.688  0.9308 -1.0411 -1.0982
   25MOL   H29218580   4.719   3.688   3.485 -0.5493  0.2011 -0.9953
   25MOL   H29318581   4.576   3.461   3.508 -0.1806 -1.1683  1.2439
   25MOL   H29418582   4.482   3.555   3.631 -0.5236 -2.0267  0.0927
   25MOL   H29518583   4.430   3.682   3.389  0.6415  1.4029  2.0102
   25MOL   H29618584   4.562   3.606   3.318 -1.1897 -0.5036  0.0888
   25MOL   H29718585   4.668   3.845   3.297  0.1412  0.4860 -1.0071
   25MOL   H29818586   4.523   3.817   3.207  0.2981 -2.6790  0.0675
   25MOL   H29918587   4.400   3.925   3.416  0.5948  0.8678  3.0476
   25MOL   H30018588   4.630   4.089   3.301 -0.4135  0.7798  1.4998
   25MOL   H30118589   4.467   4.140   3.377 -0.5979  0.8848 -1.9326
   25MOL   H30218590   4.541   4.248   2.858  0.4456 -2.0510  0.5510
   25MOL   H30318591   4.388   4.295   2.685  0.0056 -0.7545 -0.7229
   25MOL   H30418592   4.079   4.078   2.897 -0.3663  0.6054  0.6735
   25MOL   H30518593   4.235   4.032   3.080 -0.6965 -0.1914 -1.4089
   25MOL   C30618594   4.435   4.367   2.227 -0.1959 -0.1596  0.4463
   25MOL   C30718595   4.323   4.296   2.304  0.4775  0.4485 -0.5105
   25MOL   C30818596   4.212   4.397   2.354 -0.4493  0.0784 -0.5629
   25MOL   C30918597   4.115   4.321   2.446  0.4668 -0.5345 -0.1771
   25MOL   C31018598   4.269   4.521   2.414 -0.3612 -0.0096 -0.1555
   25MOL   C31118599   4.377   4.594   2.336 -0.2624  0.7825  0.1656
   25MOL   C31218600   4.492   4.491   2.311  0.5747  0.2519 -0.1648
   25MOL   C31318601   4.611   4.563   2.239  0.1680 -0.3069 -0.0612
   25MOL   O31418602   4.671   4.663   2.319 -0.6040 -0.7302  0.1497
   25MOL   C31518603   4.637   4.789   2.300 -0.0647 -0.0305 -1.1515
   25MOL   O31618604   4.552   4.831   2.217 -0.3083 -0.0474  0.4484
   25MOL   C31718605   4.718   4.873   2.391 -1.1119 -0.3024  0.3958
   25MOL   C31818606   4.815   4.818   2.477 -1.1391  0.1677  0.2679
   25MOL   C31918607   4.893   4.910   2.558 -0.3827 -0.3506  0.0716
   25MOL   C32018608   4.853   5.048   2.567  0.6474  0.2353  0.3830
   25MOL   C32118609   4.928   5.149   2.648  0.3842 -0.8380  0.3208
   25MOL   O32218610   4.875   5.250   2.691  0.7410 -0.1583  0.1581
   25MOL   O32318611   5.055   5.112   2.674  0.2427 -0.2965  0.0298
   25MOL   C32418612   4.742   5.093   2.492  0.4042 -0.1448  0.3042
   25MOL   C32518613   4.683   5.010   2.394 -0.1729 -0.0618 -0.2657
   25MOL   H32618614   4.386   4.391   2.132  3.4946  0.5384 -1.3485
   25MOL   H32718615   4.517   4.297   2.214  1.3689  1.8016 -0.5859
   25MOL   H32818616   4.362   4.231   2.382  0.8742  0.5266 -0.6421
   25MOL   H32918617   4.276   4.225   2.236 -0.1125  0.6351 -0.2950
   25MOL   H33018618   4.169   4.434   2.261 -1.2507 -0.8259 -0.5675
   25MOL   H33118619   4.078   4.232   2.393  1.1325 -0.9576  0.0720
   25MOL   H33218620   4.026   4.375   2.479  0.2628 -0.6995 -0.4520
   25MOL   H33318621   4.321   4.503   2.509  3.2251 -0.3132 -2.0984
   25MOL   H33418622   4.185   4.583   2.444 -0.5202 -0.7703  1.0229
   25MOL   H33518623   4.330   4.626   2.243 -2.6222 -1.1073  0.6453
   25MOL   H33618624   4.424   4.682   2.380 -1.1531  1.0584  0.5625
   25MOL   H33718625   4.529   4.447   2.403 -3.8353 -1.7999  0.7552
   25MOL   H33818626   4.576   4.602   2.144 -1.2075 -0.9926  0.1413
   25MOL   H33918627   4.686   4.485   2.224  1.9326  1.4226 -0.3606
   25MOL   H34018628   4.834   4.712   2.482 -2.1118 -0.1291 -2.0058
   25MOL   H34118629   4.965   4.884   2.634  1.9184  3.0966 -0.8449
   25MOL   H34218630   4.706   5.195   2.496 -0.0087 -0.2554 -0.3777
   25MOL   H34318631   4.620   5.056   2.319  0.6632  0.4820 -0.6441
   25MOL   C34418632   5.186   5.017   3.109  0.4089  0.1186  0.2603
   25MOL   C34518633   5.164   5.025   2.957  0.0599 -0.0414 -0.0964
   25MOL   C34618634   5.128   5.162   2.907 -0.2921  0.3669 -1.0290
   25MOL   C34718635   5.140   5.186   2.752 -0.7946  0.5088  0.2703
   25MOL   C34818636   5.007   5.219   2.977  0.5374  0.3215 -0.2778
   25MOL   C34918637   5.034   5.228   3.130 -0.0470  0.4748 -0.0793
   25MOL   C35018638   5.079   5.098   3.196 -0.6151 -0.2317  0.1297
   25MOL   C35118639   5.117   5.114   3.344 -0.1628  0.4829 -0.3172
   25MOL   O35218640   4.997   5.130   3.406  0.4712  0.1495 -0.3124
   25MOL   C35318641   4.999   5.183   3.530 -1.0999 -0.8201 -1.2913
   25MOL   O35418642   5.096   5.248   3.572 -0.0009  0.0474  0.3086
   25MOL   C35518643   4.868   5.199   3.602 -0.0607  0.4434  0.3338
   25MOL   C35618644   4.864   5.251   3.734 -0.0191 -0.1164 -0.2101
   25MOL   C35718645   4.742   5.269   3.808  0.0228 -0.6311 -0.0503
   25MOL   C35818646   4.623   5.217   3.747  0.1844 -0.4996 -0.9107
   25MOL   C35918647   4.502   5.211   3.841 -0.2968 -0.7150  0.0403
   25MOL   O36018648   4.392   5.185   3.795  0.0055 -0.1775 -0.0487
   25MOL   O36118649   4.521   5.248   3.963 -0.4912  0.0550 -0.0229
   25MOL   C36218650   4.626   5.170   3.617 -0.4617 -0.6595 -0.2373
   25MOL   C36318651   4.747   5.159   3.542  0.4741  0.6684  0.3763
   25MOL   H36418652   5.285   5.062   3.117  0.0277  1.3767 -1.6705
   25MOL   H36518653   5.197   4.914   3.144 -2.2901 -0.7727 -1.3507
   25MOL   H36618654   5.087   4.950   2.940  0.2386  0.0876 -1.5313
   25MOL   H36718655   5.254   4.985   2.910  0.4268  0.4012  0.2197
   25MOL   H36818656   5.210   5.222   2.948 -1.1199  0.5031  0.4659
   25MOL   H36918657   5.245   5.161   2.734 -0.7707 -0.7587  2.1166
   25MOL   H37018658   5.134   5.291   2.725  3.9244  0.5248 -1.1615
   25MOL   H37118659   4.929   5.149   2.945  1.3994 -1.3071  1.0902
   25MOL   H37218660   4.971   5.315   2.940 -0.8238 -0.7516 -1.8013
   25MOL   H37318661   5.123   5.290   3.137  0.5046 -0.4643  1.3979
   25MOL   H37418662   4.968   5.287   3.194  0.4759 -0.7462  1.6046
   25MOL   H37518663   4.992   5.034   3.212 -0.5008 -0.7986 -1.4419
   25MOL   H37618664   5.178   5.203   3.360  2.4621 -1.3348  0.2196
   25MOL   H37718665   5.177   5.029   3.378 -0.9454 -0.8234 -2.1583
   25MOL   H37818666   4.957   5.285   3.778 -0.5908  1.0076  0.1322
   25MOL   H37918667   4.738   5.318   3.905  1.4355 -0.2761 -0.1626
   25MOL   H38018668   4.539   5.131   3.566 -2.7275  0.1887  2.8036
   25MOL   H38118669   4.751   5.123   3.440 -0.2955 -1.3226  1.0195
   25MOL   C38218670   4.221   4.949   4.260 -0.0281 -0.3699  0.1979
   25MOL   C38318671   4.255   5.093   4.219 -0.5485 -1.0958  0.4966
   25MOL   C38418672   4.383   5.102   4.127  0.4394  0.5705 -0.5758
   25MOL   C38518673   4.424   5.248   4.067  0.2397 -0.6943 -0.3660
   25MOL   C38618674   4.496   5.019   4.184 -0.3688 -0.2801  0.3202
   25MOL   C38718675   4.458   4.868   4.203 -0.1685  0.0337  0.2495
   25MOL   C38818676   4.337   4.848   4.290  0.4196 -0.0925  0.2673
   25MOL   C38918677   4.280   4.705   4.291 -0.1301 -0.2865 -0.7551
   25MOL   O39018678   4.217   4.678   4.419 -0.5516 -0.0853 -0.0486
   25MOL   C39118679   4.109   4.604   4.420 -0.4756 -0.3105 -0.7963
   25MOL   O39218680   4.048   4.578   4.318  0.3162 -0.0566 -0.3613
   25MOL   C39318681   4.069   4.566   4.560 -0.4852 -0.4759 -0.2115
   25MOL   C39418682   4.147   4.596   4.675  0.3204 -0.3058  0.6388
   25MOL   C39518683   4.108   4.538   4.798  0.3250  0.4868 -0.2383
   25MOL   C39618684   3.996   4.458   4.814  0.0956 -0.0207 -0.4766
   25MOL   C39718685   3.952   4.401   4.943  0.3228 -0.4262 -0.1893
   25MOL   O39818686   3.858   4.319   4.965 -0.0095  0.2419  0.1169
   25MOL   O39918687   4.014   4.462   5.039  0.0262 -0.2036  0.0810
   25MOL   C40018688   3.924   4.431   4.702  0.2012  0.2079  0.2051
   25MOL   C40118689   3.957   4.482   4.575  0.1930  0.2730 -0.5751
   25MOL   H40218690   4.174   4.907   4.171  0.6174 -1.0527  0.1840
   25MOL   H40318691   4.152   4.949   4.345  1.1130 -0.4036  1.1363
   25MOL   H40418692   4.259   5.136   4.320 -2.3301  0.8948 -0.2483
   25MOL   H40518693   4.170   5.148   4.178 -1.1488 -1.0782  1.7237
   25MOL   H40618694   4.350   5.044   4.041  2.5516 -2.9877  0.8980
   25MOL   H40718695   4.458   5.297   4.158 -0.7279  0.5022 -0.6384
   25MOL   H40818696   4.332   5.302   4.043 -0.6409 -1.8647  0.2943
   25MOL   H40918697   4.519   5.060   4.283 -0.9654  0.5158  0.1309
   25MOL   H41018698   4.585   5.034   4.123 -0.5095  1.4115  0.4949
   25MOL   H41118699   4.434   4.827   4.105 -1.3434 -0.4056  0.7081
   25MOL   H41218700   4.542   4.813   4.245  0.2714 -0.8348 -1.6958
   25MOL   H41318701   4.372   4.877   4.389  0.6663  1.3793 -0.2314
   25MOL   H41418702   4.362   4.635   4.277  1.2766  1.7136 -3.0070
   25MOL   H41518703   4.208   4.700   4.209 -1.1647 -0.8290  0.1728
   25MOL   H41618704   4.233   4.661   4.666  1.1031 -1.4497 -0.0910
   25MOL   H41718705   4.173   4.561   4.880  1.6761  2.0105 -1.7053
   25MOL   H41818706   3.838   4.365   4.702  1.3089 -1.2831  1.5846
   25MOL   H41918707   3.910   4.450   4.483  1.6004 -0.2596 -1.1082
   25MOL   C42018708   3.977   4.768   5.438 -0.6238 -0.0066 -0.3626
   25MOL   C42118709   3.956   4.628   5.381  0.4377  0.3037 -0.3915
   25MOL   C42218710   4.001   4.610   5.227  0.1045 -0.1433  0.1303
   25MOL   C42318711   3.961   4.472   5.171  0.2333 -0.0781  0.2454
   25MOL   C42418712   3.939   4.726   5.148 -0.0350 -0.2782  0.4249
   25MOL   C42518713   3.987   4.855   5.200  0.1976 -0.4492  0.0352
   25MOL   C42618714   3.939   4.880   5.342  0.2195 -0.3153  0.7921
   25MOL   C42718715   3.976   5.023   5.390 -0.7149  0.2180 -0.5600
   25MOL   O42818716   4.113   5.041   5.372 -0.2930  0.4549  0.8583
   25MOL   C42918717   4.176   5.136   5.446 -0.1906 -0.1225 -0.0026
   25MOL   O43018718   4.120   5.203   5.533 -0.0200 -0.4450 -0.3140
   25MOL   C43118719   4.322   5.147   5.418  0.8523 -0.7757  0.0048
   25MOL   C43218720   4.383   5.084   5.306  0.1658 -0.6774 -0.6606
   25MOL   C43318721   4.518   5.100   5.283  0.2593 -1.1144 -0.2169
   25MOL   C43418722   4.602   5.188   5.359  1.0830  0.6786  0.4430
   25MOL   C43518723   4.745   5.212   5.325  0.0789  0.3553 -0.4747
   25MOL   O43618724   4.807   5.304   5.367 -0.1181 -0.0763 -0.0593
   25MOL   O43718725   4.788   5.111   5.239  0.1054  0.1956  0.8348
   25MOL   C43818726   4.537   5.254   5.462 -0.3356  0.3504 -0.6444
   25MOL   C43918727   4.402   5.237   5.489  0.0996 -0.2341  0.0746
   25MOL   H44018728   4.081   4.785   5.463  0.0616 -1.1709 -2.2541
   25MOL   H44118729   3.932   4.770   5.537 -0.8040 -3.1108 -0.3227
   25MOL   H44218730   3.856   4.587   5.392  0.7689 -0.6566 -0.8693
   25MOL   H44318731   4.017   4.566   5.447 -1.1265  2.4152  3.1860
   25MOL   H44418732   4.109   4.625   5.221  0.1490  0.4394  1.8598
   25MOL   H44518733   3.853   4.465   5.178  0.0828  2.1585  0.6996
   25MOL   H44618734   3.995   4.388   5.232 -0.4905  1.1093  2.3635
   25MOL   H44718735   3.831   4.706   5.152  0.0494 -0.6213  1.0608
   25MOL   H44818736   3.969   4.712   5.044  2.1356 -0.2035  1.0213
   25MOL   H44918737   4.095   4.858   5.187  0.3573  3.1936  1.5824
   25MOL   H45018738   3.963   4.945   5.142 -0.8721 -0.2342  0.7934
   25MOL   H45118739   3.832   4.880   5.359 -0.5470 -0.4688 -3.5955
   25MOL   H45218740   3.946   5.034   5.494 -2.9147  2.0047 -1.3552
   25MOL   H45318741   3.916   5.095   5.336 -0.2491  0.9758 -0.0752
   25MOL   H45418742   4.335   5.010   5.243 -0.0421 -0.7506 -0.4151
   25MOL   H45518743   4.565   5.033   5.213  2.2015  1.0568 -1.0521
   25MOL   H45618744   4.584   5.335   5.516 -0.3946 -0.3555  0.4936
   25MOL   H45718745   4.361   5.294   5.571 -1.5015  0.7918 -1.4113
   25MOL   C45818746   4.858   4.871   4.881  0.5296  0.0110  0.3413
   25MOL   C45918747   4.845   4.986   4.982 -0.7664  0.0673  0.4988
   25MOL   C46018748   4.944   4.980   5.098  0.4803 -0.2581 -0.3375
   25MOL   C46118749   4.924   5.098   5.196 -0.4553  0.2235 -0.8846
   25MOL   C46218750   4.929   4.850   5.174 -0.0100  0.1463  0.7656
   25MOL   C46318751   4.946   4.736   5.078  0.7082 -0.0863  0.4445
   25MOL   C46418752   4.848   4.736   4.960 -0.6135 -0.1396 -0.4219
   25MOL   C46518753   4.859   4.615   4.860  0.6210  0.9345  0.2410
   25MOL   O46618754   4.997   4.606   4.823  0.0970 -0.5742  0.4595
   25MOL   C46718755   5.032   4.543   4.702  0.6611 -0.7162 -0.1540
   25MOL   O46818756   4.958   4.494   4.624 -0.5096 -0.9551 -0.1707
   25MOL   C46918757   5.180   4.562   4.672  0.1416 -0.3915  0.1264
   25MOL   C47018758   5.263   4.659   4.736 -0.0448  0.1870  0.2500
   25MOL   C47118759   5.406   4.659   4.713  0.1456 -0.0181 -0.7201
   25MOL   C47218760   5.466   4.548   4.650 -0.0708  0.4688  0.9497
   25MOL   C47318761   5.614   4.548   4.638 -0.1058  0.1893 -0.3184
   25MOL   O47418762   5.689   4.624   4.694 -0.2314  0.2018 -0.0017
   25MOL   O47518763   5.654   4.432   4.574  0.5292 -0.0756  0.2901
   25MOL   C47618764   5.382   4.450   4.584  0.4075  0.7443  0.1412
   25MOL   C47718765   5.242   4.452   4.607 -0.5729  0.2127  0.0714
   25MOL   H47818766   4.957   4.891   4.838  0.7902  0.4792  1.1522
   25MOL   H47918767   4.767   4.890   4.824 -1.4697 -1.6215  2.9040
   25MOL   H48018768   4.745   4.994   5.026 -0.9781 -1.6341  0.3713
   25MOL   H48118769   4.856   5.082   4.931  0.2095 -0.0607  0.4684
   25MOL   H48218770   5.040   4.987   5.047  1.3324  0.8740  1.3844
   25MOL   H48318771   4.954   5.189   5.144  1.3535 -1.0924 -2.1974
   25MOL   H48418772   4.994   5.080   5.278 -0.3977  0.7128 -0.8250
   25MOL   H48518773   4.826   4.844   5.209 -0.0367  0.6219  0.7706
   25MOL   H48618774   4.998   4.843   5.258  2.2816 -1.8007 -1.1754
   25MOL   H48718775   5.049   4.734   5.043  1.5259  0.5072  2.7190
   25MOL   H48818776   4.921   4.639   5.121 -0.6259 -0.3898 -0.9971
   25MOL   H48918777   4.753   4.745   5.012 -0.1037  0.1248  0.4940
   25MOL   H49018778   4.794   4.626   4.773  0.8962 -1.5037 -0.2901
   25MOL   H49118779   4.835   4.525   4.917 -1.0115  1.3668  0.2614
   25MOL   H49218780   5.210   4.727   4.801 -3.0992 -0.2170 -1.7198
   25MOL   H49318781   5.462   4.735   4.765 -1.5694  1.0216 -0.3416
   25MOL   H49418782   5.431   4.368   4.533 -2.2226 -0.5182 -0.4411
   25MOL   H49518783   5.184   4.370   4.568 -0.6322  0.7135 -0.9154
   25MOL   C49618784   5.680   4.116   4.870 -0.3232 -0.3229 -0.4585
   25MOL   C49718785   5.678   4.240   4.793  0.1519 -0.2950  0.2896
   25MOL   C49818786   5.786   4.248   4.681  0.0989 -0.2162 -0.2142
   25MOL   C49918787   5.786   4.386   4.608  0.9005  0.3283  0.6784
   25MOL   C50018788   5.928   4.209   4.729  1.2252  0.5622  0.7020
   25MOL   C50118789   5.924   4.078   4.821 -0.2043 -0.0335  0.6191
   25MOL   C50218790   5.821   4.077   4.925  0.1829 -0.2449 -0.3304
   25MOL   C50318791   5.823   3.942   4.999  0.1838 -0.0939 -0.0441
   25MOL   O50418792   5.740   3.952   5.111 -0.0318 -0.2659 -0.4810
   25MOL   C50518793   5.638   3.862   5.126 -0.4286  0.0845  0.5472
   25MOL   O50618794   5.626   3.757   5.060 -0.4235 -0.2103 -0.3413
   25MOL   C50718795   5.538   3.910   5.227 -0.1882 -0.7509  0.4501
   25MOL   C50818796   5.557   4.033   5.297  0.0250  0.0746  0.3666
   25MOL   C50918797   5.447   4.075   5.378  0.4870 -0.2766  0.2826
   25MOL   C51018798   5.339   3.990   5.409  0.3518 -0.9183  0.2432
   25MOL   C51118799   5.227   4.031   5.496  0.0707 -0.1745 -0.1387
   25MOL   O51218800   5.158   3.952   5.574 -0.3428 -0.3072  0.0179
   25MOL   O51318801   5.201   4.161   5.480  0.1310  0.6096 -0.6456
   25MOL   C51418802   5.332   3.859   5.356 -1.1216 -0.2007 -0.0453
   25MOL   C51518803   5.432   3.822   5.257  0.2246  0.3607  0.7749
   25MOL   H51618804   5.641   4.044   4.799  0.3762 -2.1967  1.0238
   25MOL   H51718805   5.606   4.125   4.949 -1.1032 -0.8449 -1.1228
   25MOL   H51818806   5.692   4.326   4.857  0.1282  1.1104 -1.5366
   25MOL   H51918807   5.580   4.244   4.746 -0.0336  2.2403  0.8558
   25MOL   H52018808   5.759   4.177   4.603  0.2043  1.1834 -1.5428
   25MOL   H52118809   5.845   4.381   4.517 -0.7158  1.5052 -0.4533
   25MOL   H52218810   5.842   4.455   4.672  1.6264 -0.1416  0.5641
   25MOL   H52318811   5.959   4.282   4.804  1.2497  0.7841  0.4745
   25MOL   H52418812   6.001   4.211   4.649 -0.1088  1.1931 -0.5231
   25MOL   H52518813   5.930   3.991   4.756 -0.0913  1.3695 -1.2820
   25MOL   H52618814   6.012   4.069   4.884 -0.1828 -0.5751  0.5137
   25MOL   H52718815   5.843   4.162   4.989 -1.4781  0.8150 -1.1497
   25MOL   H52818816   5.923   3.917   5.034  0.4987  1.5196  0.2713
   25MOL   H52918817   5.797   3.856   4.938 -1.6768  0.6521 -0.3469
   25MOL   H53018818   5.641   4.096   5.273 -0.9149  0.0695 -3.1110
   25MOL   H53118819   5.445   4.166   5.437  2.8447  0.9475 -1.4704
   25MOL   H53218820   5.263   3.783   5.389 -1.2184 -0.9871 -1.9782
   25MOL   H53318821   5.426   3.730   5.201  0.9560 -0.5986  2.2230
   25MOL   C53418822   4.756   4.386   5.498  0.2508  0.7951 -0.0771
   25MOL   C53518823   4.889   4.352   5.561 -0.5308 -1.0347 -0.0214
   25MOL   C53618824   4.982   4.271   5.471 -0.1804  0.4340  0.1558
   25MOL   C53718825   5.101   4.234   5.558 -0.1423  0.0181  0.0905
   25MOL   C53818826   4.904   4.155   5.402 -0.3419  0.1371 -0.6229
   25MOL   C53918827   4.776   4.194   5.341 -0.1346  0.1718  0.0866
   25MOL   C54018828   4.689   4.253   5.451 -0.0994  0.3461 -0.7533
   25MOL   C54118829   4.539   4.267   5.416  0.0939  0.2571  0.1322
   25MOL   O54218830   4.524   4.346   5.298  0.2561  0.1151  0.5646
   25MOL   C54318831   4.437   4.456   5.287 -0.2484 -0.0166 -0.3354
   25MOL   O54418832   4.361   4.487   5.376  0.2357 -0.2644  0.2862
   25MOL   C54518833   4.447   4.540   5.158 -0.1343 -0.4079  0.6587
   25MOL   C54618834   4.390   4.672   5.152  0.6449  0.7527  0.4466
   25MOL   C54718835   4.398   4.753   5.036  0.3115  0.5565 -0.3397
   25MOL   C54818836   4.468   4.704   4.926  0.2782  0.0152  0.1389
   25MOL   C54918837   4.473   4.780   4.793  0.3816  0.2044 -1.2431
   25MOL   O55018838   4.546   4.742   4.701 -0.1618 -0.2091  0.1229
   25MOL   O55118839   4.397   4.896   4.790  0.1269 -0.1496 -0.0944
   25MOL   C55218840   4.531   4.580   4.932  0.3780 -0.0450 -0.1423
   25MOL   C55318841   4.522   4.494   5.045 -0.5433  0.3017  0.1721
   25MOL   H55418842   4.762   4.473   5.432 -1.1826  1.3816  0.5333
   25MOL   H55518843   4.699   4.423   5.584 -1.4715  1.4544 -1.4783
   25MOL   H55618844   4.868   4.288   5.647 -0.2688  2.0969  2.4566
   25MOL   H55718845   4.935   4.444   5.595 -1.8684 -0.2515 -0.2954
   25MOL   H55818846   5.022   4.341   5.398 -0.9195 -1.1683 -1.8138
   25MOL   H55918847   5.057   4.186   5.645  0.9923 -0.9356  0.1402
   25MOL   H56018848   5.148   4.324   5.597  0.8413 -0.5944  0.3376
   25MOL   H56118849   4.890   4.072   5.472  1.4849  1.5861  1.5375
   25MOL   H56218850   4.972   4.113   5.327 -4.0523 -2.4805 -2.6787
   25MOL   H56318851   4.792   4.271   5.265  0.7960 -0.9226 -0.8503
   25MOL   H56418852   4.726   4.113   5.288  1.4518 -0.9488  0.2855
   25MOL   H56518853   4.696   4.188   5.539  0.3639  0.7164 -0.5108
   25MOL   H56618854   4.495   4.332   5.493  1.3107 -0.3367  1.3570
   25MOL   H56718855   4.488   4.171   5.417 -1.4035  1.0232 -0.8349
   25MOL   H56818856   4.351   4.720   5.241 -0.4655  0.6190  0.0425
   25MOL   H56918857   4.346   4.847   5.043 -0.8769 -0.1082 -0.1924
   25MOL   H57018858   4.585   4.550   4.844  0.7052  0.4057 -0.0984
   25MOL   H57118859   4.563   4.395   5.034 -0.0096  0.4025  1.1940
   25MOL   C57218860   4.490   5.363   4.707  0.5682  0.4117  0.2549
   25MOL   C57318861   4.477   5.223   4.642  0.9281 -0.4986  0.2851
   25MOL   C57418862   4.445   5.117   4.744 -0.5263  0.5298  0.3648
   25MOL   C57518863   4.424   4.981   4.678 -0.8115 -0.0743  0.4221
   25MOL   C57618864   4.562   5.116   4.854  0.2068 -0.8218 -0.5074
   25MOL   C57718865   4.572   5.248   4.926  0.0057 -0.2168 -0.0345
   25MOL   C57818866   4.593   5.366   4.827  0.0911 -0.9207  0.6469
   25MOL   C57918867   4.594   5.504   4.913  0.3273 -0.2785  0.2055
   25MOL   O58018868   4.472   5.530   4.981  0.0034 -0.8012 -0.0216
   25MOL   C58118869   4.465   5.532   5.110  0.6217 -0.1340 -0.1347
   25MOL   O58218870   4.562   5.560   5.184  0.1932 -0.5139  0.0541
   25MOL   C58318871   4.323   5.509   5.159  0.0338 -0.2287 -0.4082
   25MOL   C58418872   4.286   5.494   5.297 -0.5204  0.0092  0.1365
   25MOL   C58518873   4.151   5.480   5.329  0.4729 -0.4932 -0.2841
   25MOL   C58618874   4.053   5.461   5.234 -0.6672  0.3547  0.1219
   25MOL   C58718875   3.910   5.430   5.276  0.0151  0.8610 -0.0041
   25MOL   O58818876   3.870   5.440   5.395  0.4004 -0.1258  0.2161
   25MOL   O58918877   3.832   5.394   5.178  0.2315 -0.1546  0.9022
   25MOL   C59018878   4.089   5.494   5.094  0.6260  0.2451 -0.4002
   25MOL   C59118879   4.219   5.513   5.058  0.0943  0.2558 -0.3316
   25MOL   H59218880   4.396   5.395   4.751  0.7628  0.7202  0.4498
   25MOL   H59318881   4.527   5.438   4.637  1.2640  0.9975  1.2183
   25MOL   H59418882   4.568   5.193   4.590  0.3404 -0.5253 -0.7333
   25MOL   H59518883   4.395   5.233   4.571 -0.0983  1.5620  1.7072
   25MOL   H59618884   4.352   5.142   4.796  0.2982 -0.6376  2.4672
   25MOL   H59718885   4.519   4.955   4.630 -0.1299  1.6171  0.7890
   25MOL   H59818886   4.351   4.992   4.598 -0.6771  1.5206  0.5002
   25MOL   H59918887   4.659   5.091   4.811  0.7452 -4.6418  2.6630
   25MOL   H60018888   4.545   5.034   4.924 -0.2694  0.5803  1.0495
   25MOL   H60118889   4.491   5.276   4.993 -1.6327 -1.6598 -1.3753
   25MOL   H60218890   4.658   5.246   4.993 -0.4415  1.1573  0.6024
   25MOL   H60318891   4.696   5.350   4.796  0.3640  0.7625  0.6289
   25MOL   H60418892   4.607   5.585   4.841  0.7580  0.2223  0.8374
   25MOL   H60518893   4.681   5.487   4.976 -1.8742  0.6183  3.5857
   25MOL   H60618894   4.361   5.489   5.375 -0.5353 -0.7685  0.0991
   25MOL   H60718895   4.135   5.469   5.436  2.3728 -0.8910 -0.0195
   25MOL   H60818896   4.013   5.487   5.018 -0.4493  1.0250  0.6010
   25MOL   H60918897   4.247   5.524   4.954 -2.0264 -0.4859 -1.0253
   25MOL   C61018898   3.651   4.995   5.083 -0.6542  0.1823  0.2202
   25MOL   C61118899   3.697   5.136   5.087  0.0636 -0.4876  0.7451
   25MOL   C61218900   3.657   5.216   5.215  0.5065 -0.4331 -0.1187
   25MOL   C61318901   3.687   5.368   5.200 -0.2726 -0.3317 -0.0786
   25MOL   C61418902   3.507   5.193   5.244  0.2446  0.9961  0.4037
   25MOL   C61518903   3.472   5.042   5.235  0.8264  0.9335 -0.4241
   25MOL   C61618904   3.501   4.978   5.101 -0.3527  0.8516  0.0681
   25MOL   C61718905   3.448   4.834   5.102  1.1309  0.3969  0.1746
   25MOL   O61818906   3.513   4.780   5.216  0.0476  0.3475 -0.3467
   25MOL   C61918907   3.482   4.653   5.249 -1.1392  0.4328  0.1908
   25MOL   O62018908   3.414   4.585   5.180 -0.0424 -0.3180  0.6355
   25MOL   C62118909   3.541   4.606   5.383  0.2843  0.2849  0.2425
   25MOL   C62218910   3.584   4.690   5.485 -0.3181 -0.4437 -0.5829
   25MOL   C62318911   3.651   4.639   5.600 -0.0187 -0.7626 -0.1377
   25MOL   C62418912   3.662   4.499   5.622  0.0254  0.2678  0.9304
   25MOL   C62518913   3.708   4.441   5.746 -0.3505 -0.9238 -0.0144
   25MOL   O62618914   3.748   4.508   5.843 -0.2821 -0.2354 -0.4135
   25MOL   O62718915   3.698   4.314   5.749  0.5094 -0.1011  0.0713
   25MOL   C62818916   3.617   4.413   5.523  0.3198 -0.0225 -0.5139
   25MOL   C62918917   3.558   4.465   5.404 -0.9782 -1.1429 -0.0909
   25MOL   H63018918   3.702   4.932   5.156  0.5395  0.2621 -0.5330
   25MOL   H63118919   3.677   4.960   4.983 -1.9261  2.5393 -0.9833
   25MOL   H63218920   3.658   5.189   5.001 -0.3872 -1.6204  0.2398
   25MOL   H63318921   3.805   5.138   5.072  0.0394 -0.4515  0.5721
   25MOL   H63418922   3.707   5.178   5.304  1.6635 -2.2269 -1.4951
   25MOL   H63518923   3.658   5.415   5.294 -1.0807 -3.1089  1.1087
   25MOL   H63618924   3.619   5.407   5.124 -0.2152 -1.9233 -0.9631
   25MOL   H63718925   3.445   5.247   5.173 -0.8638  1.6601  1.8473
   25MOL   H63818926   3.471   5.240   5.335 -0.8588 -0.5332  0.7784
   25MOL   H63918927   3.524   4.993   5.318  1.4656 -0.8472 -1.8681
   25MOL   H64018928   3.365   5.023   5.242  0.9545 -0.2989 -1.7172
   25MOL   H64118929   3.444   5.022   5.019  1.0019  1.8041 -0.3694
   25MOL   H64218930   3.486   4.786   5.011 -0.0328 -1.1116  0.4690
   25MOL   H64318931   3.341   4.844   5.084  1.1511 -0.0152 -0.1809
   25MOL   H64418932   3.577   4.797   5.472  0.0637 -0.3716 -0.1600
   25MOL   H64518933   3.680   4.696   5.686 -0.0816 -0.3748 -0.3741
   25MOL   H64618934   3.625   4.306   5.517 -1.6010 -0.2714  0.8824
   25MOL   H64718935   3.527   4.392   5.331  0.8603  0.2070 -2.2902
   25MOL   C64818936   3.925   3.930   5.732 -0.4206  0.0301  0.0028
   25MOL   C64918937   3.811   4.033   5.745 -1.0224 -0.1161  0.0768
   25MOL   C65018938   3.831   4.130   5.859  0.1984 -0.0020 -0.0080
   25MOL   C65118939   3.727   4.241   5.866  0.3569 -0.5527 -0.0848
   25MOL   C65218940   3.846   4.040   5.985 -0.4628 -0.1425  0.0688
   25MOL   C65318941   3.957   3.929   5.976 -0.2408  0.0077  1.1285
   25MOL   C65418942   3.943   3.846   5.849  0.3755 -0.5728 -0.3247
   25MOL   C65518943   4.071   3.765   5.825 -0.2356 -0.4291 -0.7677
   25MOL   O65618944   4.048   3.664   5.733 -0.1701 -0.2907 -0.0271
   25MOL   C65718945   4.101   3.648   5.615  0.2958 -0.0029  0.1355
   25MOL   O65818946   4.180   3.730   5.574 -0.4463 -0.1701  0.3252
   25MOL   C65918947   4.046   3.535   5.534 -0.5142 -0.0231 -0.5138
   25MOL   C66018948   3.933   3.466   5.575 -0.1787  0.8135  0.3393
   25MOL   C66118949   3.885   3.360   5.495  0.0840  0.0037 -0.0239
   25MOL   C66218950   3.942   3.339   5.370  0.7899  0.3232 -0.0891
   25MOL   C66318951   3.877   3.244   5.268 -0.4727 -0.0914  0.2899
   25MOL   O66418952   3.899   3.253   5.149  0.0576 -0.7831 -0.0714
   25MOL   O66518953   3.788   3.156   5.330 -0.7073  0.7277  0.0734
   25MOL   C66618954   4.059   3.404   5.340  0.8022 -0.9968  0.1110
   25MOL   C66718955   4.116   3.501   5.424 -0.2861  0.6654 -0.6967
   25MOL   H66818956   4.014   3.993   5.724 -1.7973  1.9742 -0.3601
   25MOL   H66918957   3.909   3.881   5.636  3.0989  1.1428 -1.2338
   25MOL   H67018958   3.715   3.982   5.759 -0.2813 -0.7411  3.2077
   25MOL   H67118959   3.801   4.095   5.656  0.3079  0.9637  0.6768
   25MOL   H67218960   3.922   4.185   5.840  0.9186  0.2896  3.9088
   25MOL   H67318961   3.782   4.306   5.934  0.7599  1.5970 -2.3525
   25MOL   H67418962   3.636   4.205   5.913 -0.4284  2.3439  0.7140
   25MOL   H67518963   3.748   3.992   5.995  1.0310 -3.2856  0.1084
   25MOL   H67618964   3.871   4.099   6.073  0.0832 -0.9547  0.4618
   25MOL   H67718965   4.055   3.975   5.982  0.4139 -1.2354  0.3492
   25MOL   H67818966   3.955   3.862   6.062 -0.9571  0.1402  1.2167
   25MOL   H67918967   3.856   3.782   5.863  0.4923 -0.6427  0.0759
   25MOL   H68018968   4.091   3.721   5.923 -1.8434 -0.4490 -0.4381
   25MOL   H68118969   4.151   3.832   5.794  0.4295 -1.8132 -2.1452
   25MOL   H68218970   3.868   3.479   5.660 -3.1358 -0.5391 -1.6188
   25MOL   H68318971   3.791   3.318   5.530 -0.5159  2.0011  0.8514
   25MOL   H68418972   4.110   3.394   5.245 -0.0972  1.5440 -0.6918
   25MOL   H68518973   4.207   3.552   5.399  1.7018 -0.7641  3.2243
   25MOL   C68618974   3.324   2.980   5.273 -0.1717  0.2846  0.0944
   25MOL   C68718975   3.473   2.985   5.215  0.2600 -0.4953 -0.1334
   25MOL   C68818976   3.555   3.075   5.306  0.4657  0.4590 -0.4981
   25MOL   C68918977   3.698   3.081   5.251  0.2323 -0.5049 -0.3189
   25MOL   C69018978   3.496   3.224   5.319 -0.1698 -0.3224 -0.7679
   25MOL   C69118979   3.362   3.210   5.385  0.1147 -0.3750 -0.4317
   25MOL   C69218980   3.264   3.118   5.305 -0.8060  0.0089 -0.2451
   25MOL   C69318981   3.131   3.120   5.384 -0.1181  0.2149 -0.2116
   25MOL   O69418982   3.100   3.260   5.372  0.0593  0.1888  0.5954
   25MOL   C69518983   3.049   3.315   5.484  0.1053  0.3004  0.2152
   25MOL   O69618984   2.993   3.253   5.571 -0.2742 -0.1961  0.4041
   25MOL   C69718985   3.042   3.460   5.483 -0.2681 -0.5439 -0.1315
   25MOL   C69818986   3.063   3.526   5.360 -0.5102  0.3904 -0.4133
   25MOL   C69918987   3.043   3.661   5.345 -0.4173  0.1046 -0.1135
   25MOL   C70018988   3.013   3.737   5.456 -0.1612 -0.3713 -0.6194
   25MOL   C70118989   2.993   3.885   5.441  0.7648 -0.7643 -0.2918
   25MOL   O70218990   3.033   3.962   5.523 -0.4348 -0.2220 -0.0843
   25MOL   O70318991   2.930   3.922   5.332  0.2534  0.0749 -0.1876
   25MOL   C70418992   3.001   3.677   5.584  0.2987 -0.3926  0.0961
   25MOL   C70518993   3.003   3.533   5.598 -0.3321  0.0458  0.2537
   25MOL   H70618994   3.321   2.918   5.363  2.3212 -2.9730 -1.9524
   25MOL   H70718995   3.277   2.925   5.192 -0.2004 -0.3690  0.5511
   25MOL   H70818996   3.457   3.019   5.112 -1.7040 -1.9872 -0.3503
   25MOL   H70918997   3.513   2.884   5.210 -0.3271 -0.8446  1.6878
   25MOL   H71018998   3.552   3.019   5.400  2.2925  1.3275  0.0992
   25MOL   H71118999   3.694   3.133   5.155 -0.5221 -1.3759 -0.7606
   25MOL   H71219000   3.729   2.979   5.230 -0.6820 -1.1194  1.2617
   25MOL   H71319001   3.477   3.264   5.220 -0.7317 -0.5287 -0.7411
   25MOL   H71419002   3.564   3.294   5.368  0.2267 -0.6164 -0.8985
   25MOL   H71519003   3.376   3.168   5.484  0.0419 -0.5147 -0.4809
   25MOL   H71619004   3.322   3.312   5.393  1.4118  0.1518 -0.5457
   25MOL   H71719005   3.247   3.167   5.210 -1.8059 -0.8709 -0.5317
   25MOL   H71819006   3.141   3.089   5.488 -2.4697 -1.1167 -0.3414
   25MOL   H71919007   3.058   3.054   5.337 -0.2384 -0.1210  0.4409
   25MOL   H72019008   3.093   3.473   5.271 -2.3647 -0.4134 -0.5820
   25MOL   H72119009   3.046   3.715   5.251 -1.1734 -0.9168 -0.7368
   25MOL   H72219010   2.972   3.748   5.660 -1.7845  1.5720 -2.4231
   25MOL   H72319011   2.998   3.487   5.695 -0.8838 -1.3342 -0.4193
   25MOL   C72419012   2.819   3.971   4.911  0.1593  0.0192 -0.4698
   25MOL   C72519013   2.804   3.979   5.065  0.2140  1.0521  0.1942
   25MOL   C72619014   2.924   4.054   5.131 -0.2657  0.7299 -0.8736
   25MOL   C72719015   2.925   4.054   5.288  0.6788  0.1164 -0.3407
   25MOL   C72819016   3.053   3.985   5.084  0.0754  0.3355  0.5674
   25MOL   C72919017   3.060   3.993   4.931  0.1439  0.1006 -0.3285
   25MOL   C73019018   2.952   3.925   4.856 -0.3041  0.0680  0.3518
   25MOL   C73119019   2.961   3.927   4.698 -0.1324  0.2386 -0.2191
   25MOL   O73219020   2.987   4.063   4.648  0.0884  0.1236 -0.3598
   25MOL   C73319021   2.901   4.155   4.589  0.8950  1.1182 -0.4054
   25MOL   O73419022   2.777   4.129   4.579 -0.2764 -0.1707 -0.1457
   25MOL   C73519023   2.955   4.295   4.568 -0.1861  0.5054  0.4098
   25MOL   C73619024   3.090   4.323   4.581 -0.0760  0.1449  0.4668
   25MOL   C73719025   3.144   4.446   4.551  0.0336 -0.5712  0.2553
   25MOL   C73819026   3.062   4.556   4.506  0.5906 -0.3963  0.3981
   25MOL   C73919027   3.120   4.689   4.463  0.3593  0.2924  0.1597
   25MOL   O74019028   3.237   4.713   4.480 -0.1605 -0.5082 -0.3787
   25MOL   O74119029   3.029   4.779   4.410 -0.0508  0.1021 -0.1949
   25MOL   C74219030   2.923   4.531   4.503  0.8336  0.4527 -0.0042
   25MOL   C74319031   2.873   4.402   4.535  0.1766 -0.2957  0.4619
   25MOL   H74419032   2.798   4.075   4.883 -1.0901  0.0115  0.3800
   25MOL   H74519033   2.740   3.908   4.871 -0.4400  0.8067 -0.5518
   25MOL   H74619034   2.803   3.878   5.107 -0.2291  1.1801  0.4986
   25MOL   H74719035   2.703   4.013   5.086  0.6037  2.2134  0.2555
   25MOL   H74819036   2.942   4.158   5.103  2.0101  0.6585  0.2053
   25MOL   H74919037   2.835   4.108   5.316 -0.3127 -1.6103 -0.1809
   25MOL   H75019038   3.008   4.118   5.316  0.5875 -0.0393  0.2802
   25MOL   H75119039   3.062   3.886   5.130 -4.0064 -0.6096 -0.4285
   25MOL   H75219040   3.139   4.045   5.114 -0.3690 -0.0690  2.7686
   25MOL   H75319041   3.059   4.098   4.904  0.9057  0.4454  0.9641
   25MOL   H75419042   3.157   3.957   4.895  0.7110  0.8263  0.4601
   25MOL   H75519043   2.949   3.819   4.881 -4.5237  0.5051  2.1630
   25MOL   H75619044   2.868   3.897   4.649  1.2748 -0.4315 -2.5436
   25MOL   H75719045   3.038   3.862   4.657 -0.0574 -0.5728  1.1675
   25MOL   H75819046   3.158   4.247   4.616 -0.1978 -0.4952 -0.6510
   25MOL   H75919047   3.249   4.464   4.568  0.0752 -0.7293  0.1687
   25MOL   H76019048   2.854   4.607   4.468  0.9439  0.3177 -0.5148
   25MOL   H76119049   2.768   4.380   4.535  0.5744 -2.2613 -0.2762
   25MOL   H76219050   3.058   4.867   4.389 -3.0303  0.5036 -3.0517
   26MOL     C119051   5.736   3.239   4.473  0.0835  0.4563  0.6980
   26MOL     C219052   5.735   3.223   4.620 -0.4507  0.0632  0.5973
   26MOL     C319053   5.692   3.082   4.667  0.0266 -0.3164 -0.0355
   26MOL     C419054   5.691   3.055   4.818  0.5178 -0.9178 -0.1684
   26MOL     C519055   5.549   3.052   4.610  0.2898 -0.1382 -0.1564
   26MOL     C619056   5.547   3.073   4.460 -0.5238  0.4077  0.1978
   26MOL     C719057   5.592   3.217   4.418 -0.5780  0.8028  0.5508
   26MOL     C819058   5.582   3.242   4.270 -0.0438 -0.3118  0.3378
   26MOL     O919059   5.664   3.148   4.200 -0.4140  0.0945 -0.9114
   26MOL    C1019060   5.786   3.183   4.155 -0.7503 -0.6660  0.0464
   26MOL    O1119061   5.832   3.298   4.166  0.2037 -0.3714  0.1594
   26MOL    C1219062   5.861   3.068   4.096 -0.2322  0.4166 -0.0244
   26MOL    C1319063   5.998   3.073   4.079 -0.6468  0.2520  0.3932
   26MOL    C1419064   6.069   2.961   4.036 -0.1457  0.0788  0.6202
   26MOL    C1519065   5.995   2.846   3.991 -0.0663  0.2279  0.1503
   26MOL    C1619066   6.072   2.727   3.949 -0.1533 -0.3690 -0.7385
   26MOL    O1719067   6.187   2.708   3.997 -0.2837  0.0163 -0.3799
   26MOL    O1819068   6.012   2.655   3.861 -0.4044 -0.2815  0.5593
   26MOL    C1919069   5.856   2.843   4.003 -0.1063 -0.0144 -0.8192
   26MOL    C2019070   5.790   2.946   4.066  0.0053  0.3205 -0.2952
   26MOL    H2119071   5.799   3.160   4.431 -1.4958  0.1694 -1.2509
   26MOL    H2219072   5.772   3.337   4.441  0.7704 -0.9715 -3.2502
   26MOL    H2319073   5.680   3.298   4.677  2.1244  0.6618  2.3855
   26MOL    H2419074   5.837   3.247   4.651 -0.4004 -0.3941  0.7791
   26MOL    H2519075   5.752   3.005   4.619 -1.7649 -2.9648  1.8494
   26MOL    H2619076   5.656   2.954   4.840 -0.1546 -0.3324  1.5552
   26MOL    H2719077   5.625   3.123   4.872  1.0370 -1.2325  0.8697
   26MOL    H2819078   5.475   3.115   4.658 -1.0291 -2.5153  1.0247
   26MOL    H2919079   5.522   2.948   4.631 -0.2585  0.2692  1.2121
   26MOL    H3019080   5.607   2.997   4.410 -1.5147  1.3046 -2.4433
   26MOL    H3119081   5.451   3.062   4.409 -0.2861 -0.9460  0.0239
   26MOL    H3219082   5.521   3.286   4.462 -3.4363 -2.2936  0.9776
   26MOL    H3319083   5.604   3.344   4.239 -1.0157 -0.8410 -2.3310
   26MOL    H3419084   5.485   3.217   4.225 -0.6747  1.3189  0.7835
   26MOL    H3519085   6.053   3.164   4.102  1.3275 -0.8396  0.1345
   26MOL    H3619086   6.177   2.953   4.031 -0.0471  0.9819  1.0622
   26MOL    H3719087   5.793   2.756   3.988 -0.7720  0.3809 -0.3682
   26MOL    H3819088   5.685   2.935   4.092  0.7929 -0.6181  2.6273
   26MOL    H3919089   5.781   3.084   4.872 -0.8177 -0.6505  1.9752
   26MOL    C4019090   5.946   2.249   4.044 -0.2161  0.1517  0.3094
   26MOL    C4119091   5.994   2.385   4.000  0.3526 -0.0472 -0.1868
   26MOL    C4219092   6.004   2.401   3.848  0.7292 -0.3314  0.4603
   26MOL    C4319093   6.075   2.535   3.807 -0.8434 -0.1056 -0.7763
   26MOL    C4419094   6.087   2.293   3.779 -0.0031  0.3258 -0.2116
   26MOL    C4519095   6.049   2.143   3.825 -0.3204 -0.1969  0.1151
   26MOL    C4619096   6.032   2.133   3.982 -0.2712  0.1844 -0.2685
   26MOL    C4719097   5.973   1.990   4.021  0.4885 -0.2119 -0.3231
   26MOL    O4819098   6.005   1.965   4.158 -0.4306  0.4673 -0.1368
   26MOL    C4919099   6.122   1.915   4.191 -0.0207 -0.3083 -0.4052
   26MOL    O5019100   6.199   1.868   4.105  0.0186  0.0845  0.0650
   26MOL    C5119101   6.156   1.921   4.337  0.5758  0.6959 -0.3813
   26MOL    C5219102   6.271   1.845   4.377  0.0591  0.5674 -0.6546
   26MOL    C5319103   6.317   1.873   4.509  0.1522  0.6573 -0.2414
   26MOL    C5419104   6.257   1.972   4.591  0.6785  0.0810  0.0438
   26MOL    C5519105   6.317   1.980   4.732  0.1031  0.2530  0.6668
   26MOL    O5619106   6.394   1.895   4.779 -0.4062  0.5004  0.5379
   26MOL    O5719107   6.276   2.087   4.802  0.4210 -0.0737 -0.5823
   26MOL    C5819108   6.146   2.045   4.548 -0.0697 -0.0202  0.4148
   26MOL    C5919109   6.097   2.018   4.424  0.8107  0.3559  0.7538
   26MOL    H6019110   5.847   2.236   4.000 -0.7088 -0.5229  1.5631
   26MOL    H6119111   5.940   2.235   4.152 -2.4830  0.4052  0.2476
   26MOL    H6219112   6.096   2.402   4.033  0.9869 -1.2310 -1.5047
   26MOL    H6319113   5.937   2.473   4.029 -0.1381  0.5740 -2.8928
   26MOL    H6419114   5.906   2.415   3.802  0.6981  2.0330  1.1357
   26MOL    H6519115   6.098   2.554   3.702 -1.3460  0.2859 -0.8210
   26MOL    H6619116   6.179   2.529   3.839 -0.6116  0.4380 -1.4185
   26MOL    H6719117   6.192   2.314   3.799 -0.1885  1.5187 -0.4331
   26MOL    H6819118   6.077   2.296   3.671  1.4197 -1.2992 -0.4090
   26MOL    H6919119   5.950   2.125   3.784 -0.0710 -1.7026  0.1555
   26MOL    H7019120   6.108   2.060   3.786 -0.7039 -0.9380  1.0864
   26MOL    H7119121   6.130   2.148   4.028 -1.0149  3.5138  0.3205
   26MOL    H7219122   6.000   1.903   3.961 -2.0736 -2.1479  1.2248
   26MOL    H7319123   5.865   1.991   4.007  0.2489 -0.8760  1.2857
   26MOL    H7419124   6.315   1.767   4.318 -2.4481 -0.8181 -0.7698
   26MOL    H7519125   6.404   1.821   4.546  2.2484  2.6200 -2.2680
   26MOL    H7619126   6.090   2.112   4.613 -0.5436  0.4397 -0.4589
   26MOL    H7719127   6.011   2.078   4.401  0.5237  0.0392  0.9987
   26MOL    C7819128   6.209   1.862   5.218  0.2099  0.3810  0.1238
   26MOL    C7919129   6.279   1.899   5.085  0.2980 -0.5186 -1.0522
   26MOL    C8019130   6.274   2.063   5.062  0.3883  0.3729  0.1983
   26MOL    C8119131   6.334   2.123   4.929  0.2252  0.3203  0.0825
   26MOL    C8219132   6.133   2.116   5.078  1.3795 -0.1630 -0.3847
   26MOL    C8319133   6.060   2.064   5.201  0.4853  0.0431 -1.4440
   26MOL    C8419134   6.060   1.910   5.212 -0.0934  0.0359  0.0360
   26MOL    C8519135   5.982   1.861   5.332  0.4942  0.1865 -0.4609
   26MOL    O8619136   6.052   1.856   5.459  0.5065  0.0224 -0.4079
   26MOL    C8719137   6.033   1.951   5.559  0.8397 -0.4108  0.1656
   26MOL    O8819138   5.958   2.050   5.548 -0.4675  0.1688 -0.2116
   26MOL    C8919139   6.102   1.931   5.684  0.5059  0.2086  0.3948
   26MOL    C9019140   6.082   2.036   5.780  0.6715 -0.2840  0.3534
   26MOL    C9119141   6.152   2.014   5.898 -0.2792  0.1951  0.5507
   26MOL    C9219142   6.235   1.901   5.931  0.1797 -0.7180  0.0989
   26MOL    C9319143   6.317   1.877   6.057  1.1067  0.0054 -0.3107
   26MOL    O9419144   6.413   1.807   6.064 -0.8924  0.1826 -0.4075
   26MOL    O9519145   6.271   1.943   6.159 -0.5568  0.3677 -0.8910
   26MOL    C9619146   6.253   1.803   5.827 -0.0756 -0.2379 -0.6776
   26MOL    C9719147   6.183   1.821   5.713  0.9802  0.2107 -0.1010
   26MOL    H9819148   6.271   1.896   5.300  0.1713 -1.3137  0.8823
   26MOL    H9919149   6.209   1.753   5.215  0.0451  0.4152 -2.3921
   26MOL   H10019150   6.238   1.843   5.001 -0.0442 -1.2257 -0.4232
   26MOL   H10119151   6.382   1.867   5.102  0.8342  1.2105 -0.9050
   26MOL   H10219152   6.320   2.109   5.150  0.0493 -0.0166  0.5834
   26MOL   H10319153   6.437   2.090   4.914  0.5960  2.0325 -1.3321
   26MOL   H10419154   6.336   2.232   4.931 -2.0171  0.4207 -1.5029
   26MOL   H10519155   6.069   2.086   4.995 -0.8634  0.3675  1.1020
   26MOL   H10619156   6.131   2.225   5.074  2.1135 -0.0838  1.0584
   26MOL   H10719157   6.092   2.112   5.294 -1.3845 -2.2583  0.4560
   26MOL   H10819158   5.955   2.093   5.203 -0.2066 -2.3408  0.7112
   26MOL   H10919159   6.018   1.857   5.126 -0.6959  2.1246 -0.9800
   26MOL   H11019160   5.942   1.760   5.323  0.7071 -0.0180  0.7048
   26MOL   H11119161   5.902   1.934   5.344  0.6340  0.3501 -0.5318
   26MOL   H11219162   6.016   2.121   5.771  0.4904 -0.7014 -2.5062
   26MOL   H11319163   6.155   2.094   5.971  0.2409  0.7569 -0.0826
   26MOL   H11419164   6.309   1.711   5.837  0.5773  0.4772  2.6466
   26MOL   H11519165   6.201   1.749   5.635 -0.9133 -2.3943  1.7780
   26MOL   C11619166   6.297   1.868   6.657  0.1249 -0.2654  0.7558
   26MOL   C11719167   6.355   1.936   6.535 -0.4042 -0.0222  0.2207
   26MOL   C11819168   6.285   1.884   6.405  0.0945  0.7004 -0.5630
   26MOL   C11919169   6.341   1.964   6.286 -0.5145 -0.6393 -0.8877
   26MOL   C12019170   6.304   1.735   6.400  0.4296 -0.5353 -0.0372
   26MOL   C12119171   6.251   1.665   6.525  0.6238 -0.4659  0.8517
   26MOL   C12219172   6.328   1.720   6.649  0.6359  0.0644 -0.1407
   26MOL   C12319173   6.278   1.651   6.775  0.2091 -0.3860  0.2278
   26MOL   O12419174   6.350   1.718   6.882 -0.9672 -0.0192 -0.4674
   26MOL   C12519175   6.305   1.707   7.007 -0.3635  0.5857  0.2536
   26MOL   O12619176   6.203   1.646   7.031 -0.0564  0.0593  0.4536
   26MOL   C12719177   6.395   1.775   7.103 -0.1644  0.5242  0.0690
   26MOL   C12819178   6.393   1.737   7.239 -0.2006  0.1876  1.7116
   26MOL   C12919179   6.471   1.806   7.337  0.3233 -0.0046 -0.4228
   26MOL   C13019180   6.555   1.911   7.298 -0.2580  0.0553 -0.2702
   26MOL   C13119181   6.630   1.988   7.396 -0.2411  0.0933 -0.1022
   26MOL   O13219182   6.629   1.957   7.515  0.2494  0.7183  0.0346
   26MOL   O13319183   6.687   2.100   7.355 -0.0946 -0.1885  0.5841
   26MOL   C13419184   6.568   1.940   7.157 -0.1601  0.3216 -0.4479
   26MOL   C13519185   6.491   1.868   7.060 -0.5509 -0.3726  0.4926
   26MOL   H13619186   6.191   1.891   6.653 -0.2943 -1.6930  2.8324
   26MOL   H13719187   6.336   1.912   6.748  3.5842 -1.1681 -0.2193
   26MOL   H13819188   6.462   1.919   6.523 -0.0744  2.0406  0.1027
   26MOL   H13919189   6.341   2.043   6.542 -0.2491  0.0392 -0.3987
   26MOL   H14019190   6.180   1.908   6.420  0.2845  1.6030 -0.6896
   26MOL   H14119191   6.447   1.942   6.274 -0.1352 -0.2552  1.5260
   26MOL   H14219192   6.336   2.072   6.301  0.1625 -0.6365 -0.6763
   26MOL   H14319193   6.408   1.714   6.377  0.5514  0.5221 -0.4696
   26MOL   H14419194   6.244   1.692   6.320 -2.3707  1.1859  1.0694
   26MOL   H14519195   6.143   1.681   6.527  0.6081  0.2807 -2.9855
   26MOL   H14619196   6.253   1.556   6.529 -0.0137 -0.4654  1.2748
   26MOL   H14719197   6.435   1.699   6.650  0.0518 -3.2326  1.8927
   26MOL   H14819198   6.301   1.544   6.770 -1.0472 -0.6436 -0.2068
   26MOL   H14919199   6.171   1.663   6.787 -0.0060 -1.4895 -0.4905
   26MOL   H15019200   6.322   1.664   7.274 -1.1422  1.3248  2.2079
   26MOL   H15119201   6.457   1.773   7.439 -0.1828  1.0223 -0.1641
   26MOL   H15219202   6.632   2.021   7.126 -0.2469  0.5713  0.0267
   26MOL   H15319203   6.501   1.903   6.958  0.4529  0.4475  0.8703
   26MOL   C15419204   7.116   2.191   7.233  0.0111 -0.4099  0.0106
   26MOL   C15519205   6.984   2.134   7.297  0.8811  0.6531 -0.5276
   26MOL   C15619206   6.891   2.242   7.365  0.7510 -0.2442  0.4929
   26MOL   C15719207   6.773   2.181   7.441  0.3878  0.5883  0.2276
   26MOL   C15819208   6.977   2.329   7.457  0.0415 -0.2167  0.0849
   26MOL   C15919209   7.093   2.392   7.381 -0.4387 -0.1844 -0.3440
   26MOL   C16019210   7.194   2.295   7.313  0.6638 -0.1299  0.0212
   26MOL   C16119211   7.299   2.367   7.242  0.4312  0.0767 -0.0994
   26MOL   O16219212   7.399   2.279   7.189 -0.5153 -0.2367 -0.3710
   26MOL   C16319213   7.429   2.281   7.060  0.6103 -0.4019  0.2250
   26MOL   O16419214   7.386   2.368   6.984 -0.5541 -0.2524  0.2189
   26MOL   C16519215   7.504   2.168   7.014 -0.1527  0.0910 -0.3199
   26MOL   C16619216   7.575   2.085   7.106  0.4172  0.1539 -0.6969
   26MOL   C16719217   7.624   1.957   7.061 -0.0550  0.8387 -0.6853
   26MOL   C16819218   7.611   1.916   6.930  0.5281 -0.2779  0.2025
   26MOL   C16919219   7.654   1.779   6.890  0.8310 -0.2498  0.2769
   26MOL   O17019220   7.616   1.721   6.789 -0.5814 -0.0001 -0.3570
   26MOL   O17119221   7.738   1.729   6.984 -0.0260  0.5540  0.2061
   26MOL   C17219222   7.556   2.007   6.837  0.0199 -0.0945 -0.5117
   26MOL   C17319223   7.510   2.135   6.875 -0.4942 -1.1225 -0.3024
   26MOL   H17419224   7.083   2.251   7.148 -0.3949 -1.2134 -0.3953
   26MOL   H17519225   7.188   2.115   7.203  0.6216  0.6715 -1.3372
   26MOL   H17619226   7.001   2.054   7.368 -0.1534  0.5642 -0.3782
   26MOL   H17719227   6.921   2.087   7.221 -1.3588  1.9340  0.5057
   26MOL   H17819228   6.860   2.307   7.282 -2.5408 -1.8749  0.3771
   26MOL   H17919229   6.722   2.260   7.497 -0.6027 -1.0148  1.6180
   26MOL   H18019230   6.813   2.111   7.514 -0.1433  1.8837  1.7865
   26MOL   H18119231   7.015   2.265   7.537 -0.5271  0.1810  0.6678
   26MOL   H18219232   6.925   2.414   7.501 -0.8244  0.2034 -1.6907
   26MOL   H18319233   7.065   2.467   7.307 -1.4017 -1.8272 -1.6723
   26MOL   H18419234   7.155   2.442   7.456 -1.7760 -1.1629  1.4608
   26MOL   H18519235   7.237   2.236   7.394 -1.7538  0.7176  2.0157
   26MOL   H18619236   7.338   2.440   7.314 -0.2174 -1.3282  1.6982
   26MOL   H18719237   7.240   2.419   7.167 -1.5009 -0.3620  1.0749
   26MOL   H18819238   7.595   2.113   7.208 -2.8649 -2.2798  0.7221
   26MOL   H18919239   7.659   1.894   7.142  1.0404 -1.0400 -2.5535
   26MOL   H19019240   7.554   1.979   6.733  0.9311  2.0110 -1.1167
   26MOL   H19119241   7.457   2.191   6.800  2.3554  0.4176 -1.2530
   26MOL   C19219242   0.091   1.687   7.203  0.1548  0.1461 -0.3227
   26MOL   C19319243   7.981   1.648   7.155  0.7160  0.8022  0.3693
   26MOL   C19419244   7.963   1.654   7.001  0.1418  0.0759 -0.0435
   26MOL   C19519245   7.822   1.620   6.953 -0.2991  0.0900  0.0643
   26MOL   C19619246   8.004   1.792   6.948  0.5509  0.8099  0.1312
   26MOL   C19719247   0.113   1.839   7.007  0.7570 -0.3036 -0.9635
   26MOL   C19819248   0.120   1.828   7.159 -0.0505 -0.6901  0.2960
   26MOL   C19919249   0.254   1.882   7.208 -0.2167 -0.8706  0.0363
   26MOL   O20019250   0.269   2.020   7.170  0.4917 -0.3642  0.3799
   26MOL   C20119251   0.393   2.076   7.150 -0.4410  0.3381 -0.4601
   26MOL   O20219252   0.501   2.012   7.151  0.3844 -0.1539  0.1036
   26MOL   C20319253   0.388   2.221   7.120 -0.2114 -0.2879  0.5710
   26MOL   C20419254   0.514   2.287   7.108  0.4269  0.7662 -0.4925
   26MOL   C20519255   0.520   2.425   7.099 -0.0724  0.3121  0.2846
   26MOL   C20619256   0.400   2.503   7.084  0.0003 -0.2167  0.0019
   26MOL   C20719257   0.407   2.648   7.081  0.2156  0.1183  0.3631
   26MOL   O20819258   0.515   2.705   7.080 -0.6164 -0.2118  0.4513
   26MOL   O20919259   0.288   2.713   7.083 -0.4607  0.4253 -0.0941
   26MOL   C21019260   0.277   2.430   7.089  0.1387 -0.2043 -0.8348
   26MOL   C21119261   0.271   2.290   7.101  0.0770 -0.0799 -0.0711
   26MOL   H21219262   0.162   1.611   7.169  0.6301  0.9857 -1.2402
   26MOL   H21319263   0.109   1.689   7.310  0.7807 -0.7056 -0.4093
   26MOL   H21419264   7.908   1.716   7.199 -0.5666 -0.7605  0.7214
   26MOL   H21519265   7.967   1.548   7.197 -1.7111  0.2210 -1.6365
   26MOL   H21619266   0.008   1.598   6.948 -1.4063 -2.1923  0.0227
   26MOL   H21719267   7.779   1.541   7.015  1.7473 -2.1528 -1.3037
   26MOL   H21819268   7.821   1.595   6.847  0.4748 -0.0573  0.0874
   26MOL   H21919269   7.930   1.870   6.966 -0.1080 -0.0516  1.2005
   26MOL   H22019270   8.029   1.775   6.843  0.0781 -0.5908  0.2354
   26MOL   H22119271   0.181   1.769   6.958  1.6625  0.3174 -0.6025
   26MOL   H22219272   0.138   1.937   6.968  2.2678 -0.6238 -0.8405
   26MOL   H22319273   0.048   1.897   7.201  2.6106  1.6385  1.2045
   26MOL   H22419274   0.338   1.825   7.168  0.5185  0.5354 -0.4706
   26MOL   H22519275   0.251   1.881   7.317  0.5360 -1.8509  0.0559
   26MOL   H22619276   0.608   2.233   7.101 -0.7620 -1.5042  0.4302
   26MOL   H22719277   0.612   2.479   7.088 -0.4158  0.7934 -0.3063
   26MOL   H22819278   0.189   2.492   7.086  1.3472  1.5708 -0.8847
   26MOL   H22919279   0.173   2.244   7.103  0.3887 -0.7811  2.9233
   26MOL   C23019280   7.972   2.980   6.945 -0.5078  0.4673 -0.0386
   26MOL   C23119281   0.040   2.909   7.040  0.3422  0.6044 -0.3659
   26MOL   C23219282   0.185   2.918   6.995  0.1005 -1.3592  1.1459
   26MOL   C23319283   0.285   2.852   7.085  0.4120 -0.4572  1.0090
   26MOL   C23419284   0.195   2.876   6.846 -0.6538  0.4621 -0.0818
   26MOL   C23519285   0.122   2.965   6.755  0.1098  0.8037  0.1177
   26MOL   C23619286   7.998   2.972   6.799 -0.5949  0.0075 -0.1822
   26MOL   C23719287   7.929   3.088   6.717 -0.0296 -0.0317 -0.4044
   26MOL   O23819288   7.788   3.064   6.713 -0.4905 -0.4826  0.2929
   26MOL   C23919289   7.705   3.146   6.767 -0.2111 -0.6102  0.0588
   26MOL   O24019290   7.745   3.245   6.834 -0.3381  0.3615  0.1836
   26MOL   C24119291   7.559   3.118   6.740 -0.1465  0.6092 -0.5480
   26MOL   C24219292   7.529   3.041   6.628 -0.3155 -0.1711  0.2102
   26MOL   C24319293   7.397   3.025   6.593 -0.0359  0.9073 -0.2591
   26MOL   C24419294   7.298   3.068   6.683 -0.0471 -0.0204  0.5436
   26MOL   C24519295   7.163   3.041   6.633 -0.4909 -0.9380 -0.3569
   26MOL   O24619296   7.140   3.011   6.515  0.8312  0.4834 -0.2157
   26MOL   O24719297   7.076   3.059   6.732 -0.8665 -0.0170 -0.2954
   26MOL   C24819298   7.323   3.151   6.795  0.2642 -0.3719 -0.0725
   26MOL   C24919299   7.461   3.170   6.827 -0.1247  0.4187 -0.0077
   26MOL   H25019300   7.982   3.084   6.975 -1.9204  0.0068  2.1461
   26MOL   H25119301   7.870   2.949   6.967 -0.2910  0.4656  0.9740
   26MOL   H25219302   0.015   2.803   7.048  0.2719  0.7730  2.4488
   26MOL   H25319303   0.035   2.964   7.134 -1.5823 -1.1738  0.6344
   26MOL   H25419304   0.218   3.022   6.994 -1.1792 -0.9339 -1.4035
   26MOL   H25519305   0.247   2.874   7.185  1.2489  2.6924  0.6706
   26MOL   H25619306   0.383   2.900   7.079  1.2206 -2.1037  0.6065
   26MOL   H25719307   0.160   2.773   6.837  1.3929 -0.5224  2.4222
   26MOL   H25819308   0.292   2.861   6.798 -0.9260  1.5329 -1.0022
   26MOL   H25919309   0.170   3.063   6.752  0.5244  0.6483  1.3974
   26MOL   H26019310   0.127   2.914   6.659  1.3425 -0.8129  1.0316
   26MOL   H26119311   7.953   2.882   6.758  0.0946 -0.9073  1.0327
   26MOL   H26219312   7.977   3.085   6.619  0.8738 -0.0283  0.0340
   26MOL   H26319313   7.952   3.183   6.763  0.2605 -0.3685  0.1472
   26MOL   H26419314   7.606   2.997   6.565 -1.1027 -0.4628 -0.5647
   26MOL   H26519315   7.372   2.967   6.506  0.0499  4.2758 -2.5944
   26MOL   H26619316   7.241   3.182   6.858 -0.1013 -2.7486  0.6612
   26MOL   H26719317   7.490   3.219   6.919 -1.0648  0.8717  0.0567
   26MOL   C26819318   6.930   2.763   7.015 -0.2869  0.6863 -0.4727
   26MOL   C26919319   6.957   2.902   6.943 -0.1396 -0.2577  0.0108
   26MOL   C27019320   6.904   2.896   6.793  0.1952 -0.5244  0.1562
   26MOL   C27119321   6.940   3.021   6.710  0.1735  0.0198 -0.8436
   26MOL   C27219322   6.926   2.767   6.712 -0.2257  0.3090 -1.5081
   26MOL   C27319323   6.894   2.639   6.793  0.0736 -0.7638  0.1581
   26MOL   C27419324   6.969   2.639   6.929 -0.0750  0.1414 -0.0065
   26MOL   C27519325   6.933   2.508   7.016 -0.6230  0.3015 -0.0405
   26MOL   O27619326   6.972   2.382   6.960  0.5988  0.6150  0.1993
   26MOL   C27719327   6.872   2.307   6.914 -0.6241  0.0822  0.4160
   26MOL   O27819328   6.754   2.346   6.902 -0.1398  0.5734 -0.5667
   26MOL   C27919329   6.916   2.172   6.883  0.6159 -0.5541 -0.1949
   26MOL   C28019330   6.820   2.069   6.850 -0.3375 -0.1861 -0.0791
   26MOL   C28119331   6.874   1.945   6.800  0.1732  0.5061  0.6535
   26MOL   C28219332   7.011   1.915   6.792 -0.2072 -0.5950  0.0692
   26MOL   C28319333   7.058   1.776   6.751 -0.6796  0.5270 -0.5407
   26MOL   O28419334   7.007   1.676   6.803  0.6400 -0.0626  0.7053
   26MOL   O28519335   7.166   1.772   6.670  0.2583 -0.0765  0.2266
   26MOL   C28619336   7.100   2.023   6.815  0.2512  0.5529  0.0486
   26MOL   C28719337   7.054   2.148   6.863 -0.4773  0.1363  0.0224
   26MOL   H28819338   6.824   2.745   7.033 -0.1404  0.1930 -0.1103
   26MOL   H28919339   6.981   2.760   7.111  0.1258 -2.4190 -0.7191
   26MOL   H29019340   7.066   2.907   6.933 -0.1194 -1.8268 -0.8269
   26MOL   H29119341   6.908   2.980   7.001  1.1141 -1.3836  2.6693
   26MOL   H29219342   6.796   2.902   6.805  0.4728  0.5504  2.4108
   26MOL   H29319343   6.881   3.108   6.736 -1.0394 -1.1645  0.4142
   26MOL   H29419344   6.915   3.002   6.606  1.2722 -2.8412 -0.6327
   26MOL   H29519345   7.024   2.752   6.667  0.5392 -0.6972  0.4134
   26MOL   H29619346   6.860   2.766   6.626 -1.0055 -1.2965 -0.9115
   26MOL   H29719347   6.787   2.639   6.811 -0.0287  1.1610 -0.3246
   26MOL   H29819348   6.917   2.550   6.733 -1.9457 -1.4382  0.3405
   26MOL   H29919349   7.073   2.651   6.898  0.4986  1.1584  2.1984
   26MOL   H30019350   6.830   2.513   7.051 -1.4409  0.0675 -2.3363
   26MOL   H30119351   6.992   2.518   7.107 -1.4944  1.1473  0.4368
   26MOL   H30219352   6.714   2.089   6.854 -0.1499  1.3559 -1.8535
   26MOL   H30319353   6.807   1.864   6.777  1.5640 -0.6362  0.5574
   26MOL   H30419354   7.206   2.015   6.800  0.7076  2.9607  1.5451
   26MOL   H30519355   7.128   2.226   6.870 -1.3211  0.8763  1.0015
   26MOL   C30619356   6.977   1.478   6.375  0.0186 -0.3594  0.4225
   26MOL   C30719357   7.043   1.519   6.510  0.6217  0.3028 -0.1469
   26MOL   C30819358   7.150   1.629   6.486 -0.9395  0.5700  0.1414
   26MOL   C30919359   7.217   1.655   6.624 -0.0752  0.2252  1.0626
   26MOL   C31019360   7.252   1.577   6.378 -0.5617  0.0929 -0.1606
   26MOL   C31119361   7.193   1.524   6.249 -0.0350 -0.4845 -0.4885
   26MOL   C31219362   7.088   1.418   6.293  0.3249 -0.0690 -0.5360
   26MOL   C31319363   7.041   1.354   6.166  0.0236  0.2244  0.6670
   26MOL   O31419364   7.017   1.222   6.189 -0.0155  0.7150 -0.0517
   26MOL   C31519365   6.898   1.170   6.193 -0.2622 -0.5037 -0.3216
   26MOL   O31619366   6.789   1.234   6.212 -0.2673  0.0486 -0.4728
   26MOL   C31719367   6.910   1.022   6.177 -0.3695 -0.2328  0.4484
   26MOL   C31819368   7.030   0.955   6.141  0.5525 -0.0043 -0.8126
   26MOL   C31919369   7.034   0.819   6.115  0.4348 -0.1222 -0.7162
   26MOL   C32019370   6.905   0.747   6.122 -0.8827  0.2932  0.4835
   26MOL   C32119371   6.885   0.608   6.069 -0.7927 -0.1977 -0.5329
   26MOL   O32219372   6.783   0.539   6.071  0.3519  0.8014 -0.4062
   26MOL   O32319373   6.999   0.568   6.015  0.0676  0.4408 -0.1788
   26MOL   C32419374   6.794   0.810   6.176  0.4550  0.4223 -0.0061
   26MOL   C32519375   6.796   0.949   6.203  0.1532  0.5940  0.1745
   26MOL   H32619376   6.942   1.566   6.321  1.1899  0.6065  1.2251
   26MOL   H32719377   6.886   1.423   6.399 -2.8518  3.7034 -0.5946
   26MOL   H32819378   7.079   1.441   6.577  2.6985  3.1169  2.1906
   26MOL   H32919379   6.966   1.567   6.571  3.1681  0.5416  3.0324
   26MOL   H33019380   7.089   1.712   6.450 -0.0403  0.4068 -1.8146
   26MOL   H33119381   7.325   1.655   6.611 -0.0457  0.7939  1.2968
   26MOL   H33219382   7.206   1.569   6.690 -0.1855 -2.0445 -1.8139
   26MOL   H33319383   7.314   1.498   6.421 -1.0031  0.5635  1.3788
   26MOL   H33419384   7.326   1.656   6.361  1.7159 -1.7183  1.0037
   26MOL   H33519385   7.149   1.603   6.188 -2.3779  0.0869  1.8754
   26MOL   H33619386   7.275   1.482   6.190  2.6101  3.0332  0.5677
   26MOL   H33719387   7.131   1.343   6.360 -0.3731  0.8276  0.9477
   26MOL   H33819388   7.114   1.372   6.087  0.3091 -2.2010  0.3415
   26MOL   H33919389   6.951   1.402   6.128 -0.3459 -0.8702  0.1365
   26MOL   H34019390   7.115   1.021   6.133  0.1259  0.5962 -0.4714
   26MOL   H34119391   7.120   0.760   6.086  1.2947  0.2922  0.9542
   26MOL   H34219392   6.701   0.760   6.199 -0.2133  1.1040 -1.1843
   26MOL   H34319393   6.700   0.995   6.222  0.8692  1.6094  1.3840
   26MOL   C34419394   7.374   0.494   5.784  0.2877 -0.1407 -0.3725
   26MOL   C34519395   7.266   0.469   5.888  0.2193 -0.0656 -0.7037
   26MOL   C34619396   7.123   0.481   5.828  0.2053 -0.3288  0.1764
   26MOL   C34719397   7.006   0.458   5.927 -0.0422 -0.5577  0.4785
   26MOL   C34819398   7.096   0.595   5.739 -0.0762 -0.6883  0.8134
   26MOL   C34919399   7.221   0.631   5.649  0.0741  0.8840 -0.2164
   26MOL   C35019400   7.352   0.633   5.724 -0.3752 -0.4932 -0.7330
   26MOL   C35119401   7.466   0.675   5.630 -0.4590 -0.0667  0.2734
   26MOL   O35219402   7.445   0.809   5.615  0.1865 -0.2312  0.0033
   26MOL   C35319403   7.507   0.885   5.526  0.1625  0.0412 -0.3362
   26MOL   O35419404   7.576   0.835   5.431 -0.1482  0.8714  0.1587
   26MOL   C35519405   7.491   1.035   5.552 -0.2124 -0.2890 -0.2860
   26MOL   C35619406   7.540   1.124   5.453 -0.4104  0.1081  0.6474
   26MOL   C35719407   7.532   1.264   5.467 -0.1906 -0.4723  0.2057
   26MOL   C35819408   7.476   1.321   5.581  0.3957 -0.1714 -0.3052
   26MOL   C35919409   7.439   1.468   5.597 -0.6863 -0.5878  0.8369
   26MOL   O36019410   7.488   1.553   5.517  0.2927  0.2962  0.1693
   26MOL   O36119411   7.364   1.495   5.705  0.0740 -0.3006 -0.2993
   26MOL   C36219412   7.433   1.225   5.681  0.6124  0.6937 -0.1441
   26MOL   C36319413   7.437   1.086   5.670  0.3732  0.3437  0.7208
   26MOL   H36419414   7.371   0.419   5.704  1.1361  1.4223 -1.9091
   26MOL   H36519415   7.465   0.485   5.843 -0.7614 -0.3107  1.2407
   26MOL   H36619416   7.262   0.540   5.970  2.0505  0.8154 -1.3617
   26MOL   H36719417   7.283   0.369   5.926 -0.9085 -0.6658 -1.7377
   26MOL   H36819418   7.108   0.403   5.753 -2.1315 -2.2132  2.5455
   26MOL   H36919419   7.017   0.372   5.994 -0.9501 -1.2234 -0.2214
   26MOL   H37019420   6.910   0.443   5.879 -0.4697  2.8336  0.1542
   26MOL   H37119421   7.087   0.688   5.796 -0.7385 -0.7637  0.8406
   26MOL   H37219422   7.002   0.588   5.684  0.9628 -0.4919 -1.0351
   26MOL   H37319423   7.222   0.559   5.567  0.8961  1.0403 -0.3437
   26MOL   H37419424   7.200   0.728   5.602 -2.7005  0.7617  0.6814
   26MOL   H37519425   7.344   0.711   5.800 -3.2996 -0.0486 -1.4111
   26MOL   H37619426   7.452   0.613   5.542  2.0371 -1.1084  0.5742
   26MOL   H37719427   7.570   0.664   5.662 -0.2855  0.6827 -0.0422
   26MOL   H37819428   7.592   1.082   5.368 -1.7632  1.1670 -0.7401
   26MOL   H37919429   7.581   1.310   5.383  1.9458 -0.2382  1.5405
   26MOL   H38019430   7.381   1.258   5.770  0.8330  0.8620 -0.0783
   26MOL   H38119431   7.396   1.022   5.747 -1.0330 -1.0463 -1.1228
   26MOL   C38219432   6.923   1.550   5.787 -0.3926  0.2971  0.2296
   26MOL   C38319433   7.070   1.537   5.727  0.1444  0.3032  0.3041
   26MOL   C38419434   7.181   1.620   5.799  0.1902 -0.3592  0.1322
   26MOL   C38519435   7.318   1.628   5.733  0.8578 -0.2330  0.3096
   26MOL   C38619436   7.136   1.761   5.822 -0.4895 -0.3807  0.1359
   26MOL   C38719437   6.997   1.758   5.897 -0.2396 -0.0805 -0.2961
   26MOL   C38819438   6.884   1.690   5.820  0.1202  0.2077 -0.3280
   26MOL   C38919439   6.750   1.702   5.898 -0.6260  0.0425 -0.2584
   26MOL   O39019440   6.743   1.641   6.028 -0.4739 -0.3429  0.1764
   26MOL   C39119441   6.755   1.716   6.138 -0.3866  0.5616  0.5104
   26MOL   O39219442   6.794   1.831   6.139  0.0027  0.0451  0.3064
   26MOL   C39319443   6.695   1.637   6.251  0.0691 -0.6654  0.4322
   26MOL   C39419444   6.697   1.692   6.377  0.5318 -0.1968 -0.3316
   26MOL   C39519445   6.648   1.620   6.489  0.2002 -0.5167 -0.2085
   26MOL   C39619446   6.596   1.488   6.477 -0.3723 -0.2269  0.1813
   26MOL   C39719447   6.553   1.412   6.594 -0.4076  0.2308  0.0227
   26MOL   O39819448   6.486   1.307   6.589 -0.0346 -0.4405  0.4038
   26MOL   O39919449   6.590   1.466   6.701  0.4004  0.3707 -0.0858
   26MOL   C40019450   6.584   1.433   6.345 -0.3523  0.6774  0.4059
   26MOL   C40119451   6.634   1.507   6.240  0.5189 -0.1026 -0.2237
   26MOL   H40219452   6.918   1.491   5.879  0.6337 -0.0742  0.0551
   26MOL   H40319453   6.848   1.508   5.720  0.4198 -0.3561 -0.2816
   26MOL   H40419454   7.070   1.572   5.624 -1.0140 -1.7791 -0.4288
   26MOL   H40519455   7.103   1.434   5.733 -0.2778  0.2697  2.3672
   26MOL   H40619456   7.195   1.574   5.897 -1.0512 -2.1635 -0.5192
   26MOL   H40719457   7.388   1.688   5.790 -0.4474  1.7569 -0.1128
   26MOL   H40819458   7.307   1.687   5.641 -0.7302  2.7321  2.3335
   26MOL   H40919459   7.129   1.821   5.731 -0.6211 -0.5385  0.0412
   26MOL   H41019460   7.203   1.809   5.894 -0.1812 -1.6258  0.6955
   26MOL   H41119461   7.007   1.719   5.999 -3.6739 -1.5259 -0.4494
   26MOL   H41219462   6.973   1.861   5.922 -1.7211 -0.5089  0.0679
   26MOL   H41319463   6.872   1.744   5.726  0.6056  0.8453 -0.0315
   26MOL   H41419464   6.678   1.647   5.837  1.1482 -1.3786 -1.1446
   26MOL   H41519465   6.706   1.801   5.897  0.5467  0.5874  1.0434
   26MOL   H41619466   6.731   1.793   6.393 -0.7453  0.4210 -1.4548
   26MOL   H41719467   6.645   1.671   6.584  0.7148  0.3260 -0.6426
   26MOL   H41819468   6.546   1.335   6.320  0.1364  0.6578 -0.3025
   26MOL   H41919469   6.626   1.463   6.142 -2.3055 -1.1209  0.4197
   26MOL   C42019470   6.731   1.458   7.186  0.2037 -0.2072 -0.3865
   26MOL   C42119471   6.639   1.401   7.070  1.1379 -0.1663 -0.4622
   26MOL   C42219472   6.664   1.459   6.929  0.1578 -0.7747 -0.0780
   26MOL   C42319473   6.562   1.406   6.827 -0.6512  0.1494 -0.1914
   26MOL   C42419474   6.682   1.613   6.933 -0.2465 -0.2980 -0.4061
   26MOL   C42519475   6.777   1.664   7.045 -0.3204  0.9185  0.2924
   26MOL   C42619476   6.732   1.611   7.185 -0.3849 -0.1373  0.5755
   26MOL   C42719477   6.821   1.679   7.292  0.4540 -0.0608  0.4059
   26MOL   O42819478   6.767   1.652   7.419  0.6443 -0.2152  0.9408
   26MOL   C42919479   6.826   1.668   7.530 -0.0112  0.2620  0.8915
   26MOL   O43019480   6.940   1.713   7.538  0.3902 -0.1979 -0.5809
   26MOL   C43119481   6.728   1.629   7.636  0.0323  0.2992 -0.0259
   26MOL   C43219482   6.770   1.623   7.772 -0.1804 -0.1828  0.0354
   26MOL   C43319483   6.683   1.566   7.871  0.0052 -0.6644 -0.1738
   26MOL   C43419484   6.550   1.542   7.840  0.3927  0.0851  0.8552
   26MOL   C43519485   6.459   1.489   7.946  0.3528 -0.0778 -0.2664
   26MOL   O43619486   6.495   1.450   0.023  0.0628  0.8939  0.6412
   26MOL   O43719487   6.333   1.501   7.906  0.2992  0.5999 -0.0324
   26MOL   C43819488   6.504   1.558   7.705  0.6010 -0.8325  0.2907
   26MOL   C43919489   6.593   1.602   7.607 -0.2634 -0.6230  0.5411
   26MOL   H44019490   6.836   1.429   7.179  0.2676  0.5233 -2.5123
   26MOL   H44119491   6.690   1.421   7.280 -0.0370 -1.2681 -0.9007
   26MOL   H44219492   6.539   1.434   7.099  0.1947 -1.6352 -1.9045
   26MOL   H44319493   6.646   1.292   7.067  1.7138 -0.1729  0.8798
   26MOL   H44419494   6.761   1.419   6.899  0.4344  0.0745 -0.3548
   26MOL   H44519495   6.462   1.429   6.863  0.1746  0.4452  1.9799
   26MOL   H44619496   6.561   1.297   6.827 -0.3183  0.1422 -1.3197
   26MOL   H44719497   6.583   1.657   6.942  0.3747  0.9915  0.1733
   26MOL   H44819498   6.717   1.638   6.833 -0.3282 -3.5752 -1.3409
   26MOL   H44919499   6.878   1.624   7.033 -1.2038 -0.9595 -1.1794
   26MOL   H45019500   6.775   1.773   7.044 -0.6526  0.9173  0.7991
   26MOL   H45119501   6.630   1.648   7.200 -0.4171 -0.3216  0.8103
   26MOL   H45219502   6.823   1.786   7.269  0.1863  0.0254  0.7827
   26MOL   H45319503   6.919   1.632   7.280  0.8952  1.1013 -0.5788
   26MOL   H45419504   6.874   1.633   7.800 -0.6033 -1.7488  2.3014
   26MOL   H45519505   6.731   1.554   7.967 -1.0798  0.8848  0.5611
   26MOL   H45619506   6.402   1.541   7.676 -0.2632  1.4392  1.8396
   26MOL   H45719507   6.555   1.612   7.507  2.0512  1.7834 -0.1623
   26MOL   C45819508   5.898   1.272   7.856  0.3561 -0.3481  0.8655
   26MOL   C45919509   6.016   1.309   7.938 -0.1493  0.0897 -0.1498
   26MOL   C46019510   6.106   1.413   7.872  0.1505  0.5436 -0.5256
   26MOL   C46119511   6.225   1.440   7.971 -0.4584 -0.0096 -0.0006
   26MOL   C46219512   6.148   1.355   7.735 -0.3231  0.4274 -0.7771
   26MOL   C46319513   6.034   1.302   7.645  0.2253  0.8384 -0.9195
   26MOL   C46419514   5.934   1.213   7.721  0.7573  0.4133  0.6641
   26MOL   C46519515   5.804   1.190   7.643  0.4071  0.2300 -0.5635
   26MOL   O46619516   5.836   1.134   7.504 -0.3981 -0.1962 -0.2600
   26MOL   C46719517   5.734   1.077   7.440 -0.5501  0.1176  0.0141
   26MOL   O46819518   5.621   1.065   7.484  0.2276 -0.6653 -0.6730
   26MOL   C46919519   5.764   1.030   7.299 -0.2988  0.6359 -0.3555
   26MOL   C47019520   5.891   0.994   7.264  0.0968  0.9152 -0.2062
   26MOL   C47119521   5.929   0.971   7.134 -0.2378  0.4116  0.1159
   26MOL   C47219522   5.834   0.976   7.034 -0.3860  0.1069 -0.3996
   26MOL   C47319523   5.862   0.941   6.896 -0.3530 -0.4886 -0.2415
   26MOL   O47419524   5.788   0.967   6.806 -0.1261  0.2787  0.2340
   26MOL   O47519525   5.980   0.881   6.880  0.2799 -0.1088 -0.0049
   26MOL   C47619526   5.702   1.003   7.072 -0.7694  0.2544 -0.0264
   26MOL   C47719527   5.668   1.033   7.203 -0.0157 -0.4855  0.0452
   26MOL   H47819528   5.830   1.354   7.837 -1.6484 -1.9159  1.0620
   26MOL   H47919529   5.839   1.198   7.910 -0.9459  1.3011  1.7041
   26MOL   H48019530   6.076   1.220   7.955 -1.9506 -1.6623 -2.5393
   26MOL   H48119531   5.996   1.349   0.005  1.3217 -0.9349  0.5780
   26MOL   H48219532   6.041   1.500   7.864 -0.0669  0.5489  1.0898
   26MOL   H48319533   6.258   1.351   8.024 -2.0700 -0.1140  0.8661
   26MOL   H48419534   6.205   1.501   0.028  0.6950 -0.1474  0.3571
   26MOL   H48519535   6.206   1.271   7.772 -1.0916  0.6207  0.8931
   26MOL   H48619536   6.210   1.417   7.669 -0.1208 -0.2092 -1.1862
   26MOL   H48719537   5.987   1.385   7.591 -1.7514  0.2791 -0.0870
   26MOL   H48819538   6.081   1.248   7.563  1.6357  0.4068  0.1534
   26MOL   H48919539   5.985   1.117   7.730  0.9912  0.0621 -3.3513
   26MOL   H49019540   5.765   1.291   7.630 -0.1210 -0.2747 -3.4408
   26MOL   H49119541   5.729   1.132   7.697  0.1837  2.0342  1.1027
   26MOL   H49219542   5.968   0.987   7.339 -0.9277  0.7515  0.8400
   26MOL   H49319543   6.029   0.935   7.115 -1.0613 -2.3932  0.8933
   26MOL   H49419544   5.626   1.001   6.995 -1.7089 -1.7213  0.9161
   26MOL   H49519545   5.566   1.052   7.235  0.6958  1.3809  1.2951
   26MOL   C49619546   6.291   0.627   6.592  0.8253 -0.0699  0.5537
   26MOL   C49719547   6.164   0.704   6.605  0.0039 -0.5010  0.0665
   26MOL   C49819548   6.139   0.756   6.755  0.2795  0.7138  0.3157
   26MOL   C49919549   6.005   0.818   6.755 -0.5252 -0.2625 -0.3706
   26MOL   C50019550   6.157   0.651   6.863  0.9254  0.6229  0.0468
   26MOL   C50119551   6.290   0.581   6.843  0.0157  0.0796 -0.0739
   26MOL   C50219552   6.298   0.519   6.702 -0.9424  0.5052  0.0455
   26MOL   C50319553   6.437   0.442   6.687  0.7407 -0.4442 -0.8713
   26MOL   O50419554   6.440   0.316   6.744 -0.6707 -0.5529  0.0708
   26MOL   C50519555   6.549   0.238   6.726 -0.8111  0.4894 -0.1298
   26MOL   O50619556   6.648   0.267   6.661 -0.2294 -0.1705  0.5295
   26MOL   C50719557   6.544   0.105   6.801 -0.7951 -0.0983 -0.2912
   26MOL   C50819558   6.431   0.061   6.874  0.2710  0.2305 -0.0091
   26MOL   C50919559   6.442   7.971   6.946 -0.2979  0.0772  0.3795
   26MOL   C51019560   6.559   7.899   6.959 -0.4298  0.5645 -1.0827
   26MOL   C51119561   6.577   7.775   7.039  0.1400 -0.1538 -0.0121
   26MOL   O51219562   6.665   7.703   7.005 -0.3921 -0.2097 -0.2398
   26MOL   O51319563   6.489   7.743   7.142 -0.8323  0.0558 -0.1700
   26MOL   C51419564   6.670   7.940   6.883 -0.7097  0.0638 -0.0877
   26MOL   C51519565   6.665   0.027   6.797 -0.4051  0.6415  0.1005
   26MOL   H51619566   6.377   0.693   6.587  0.0704  0.8658 -0.1847
   26MOL   H51719567   6.291   0.586   6.491 -0.3348 -1.7536  1.2152
   26MOL   H51819568   6.075   0.643   6.586 -3.1647  3.5236  1.3030
   26MOL   H51919569   6.162   0.785   6.532  0.2187 -0.0847  0.5204
   26MOL   H52019570   6.209   0.839   6.767  1.5716 -0.4135  0.7893
   26MOL   H52119571   5.938   0.733   6.742 -1.1179  0.2316 -0.5645
   26MOL   H52219572   5.990   0.883   6.669  0.1746  0.7465  0.2606
   26MOL   H52319573   6.082   0.573   6.848 -0.2727  1.1718  2.8661
   26MOL   H52419574   6.137   0.689   6.963  2.2795 -0.5488  0.7704
   26MOL   H52519575   6.357   0.667   6.848  2.1768 -1.5447  0.2048
   26MOL   H52619576   6.322   0.513   6.922 -3.4531 -1.5385  0.0125
   26MOL   H52719577   6.215   0.449   6.687  0.1337 -0.4336 -1.8936
   26MOL   H52819578   6.525   0.489   6.731  2.8758 -2.5964 -2.6914
   26MOL   H52919579   6.449   0.431   6.579  1.7305  0.2324 -0.8401
   26MOL   H53019580   6.340   0.120   6.876  0.4085  0.4193  0.8618
   26MOL   H53119581   6.358   7.933   7.003  0.4880 -0.1634  1.3921
   26MOL   H53219582   6.757   7.877   6.878 -1.4880 -1.0160 -0.1443
   26MOL   H53319583   6.747   0.041   6.728 -2.2358  1.8841 -1.8802
   26MOL   C53419584   6.242   7.358   7.212  0.2935 -0.8204  0.1280
   26MOL   C53519585   6.306   7.496   7.231  0.5007  1.2531 -0.0125
   26MOL   C53619586   6.458   7.503   7.188  0.4231  0.2930  0.8129
   26MOL   C53719587   6.517   7.636   7.234 -0.1031 -0.6166  0.1187
   26MOL   C53819588   6.531   7.379   7.240  0.3977  0.0872 -0.0999
   26MOL   C53919589   6.465   7.245   7.212  0.2385 -0.4848  0.2507
   26MOL   C54019590   6.324   7.239   7.272 -0.3360  0.1768 -0.3553
   26MOL   C54119591   6.267   7.101   7.233 -0.8158 -0.4800 -0.1397
   26MOL   O54219592   6.339   6.987   7.288  0.0243 -0.2186  0.2195
   26MOL   C54319593   6.283   6.911   7.378 -0.6419 -0.9641 -1.0263
   26MOL   O54419594   6.165   6.922   7.406  0.0283 -0.4560 -0.1314
   26MOL   C54519595   6.388   6.835   7.453  0.3367  0.3989  0.3265
   26MOL   C54619596   6.367   6.798   7.592 -0.5219 -0.6042 -0.4122
   26MOL   C54719597   6.469   6.734   7.666 -0.0724 -0.2223 -0.0733
   26MOL   C54819598   6.590   6.698   7.601  0.3914 -0.5197  0.1934
   26MOL   C54919599   6.703   6.634   7.680 -0.5533  0.2198  0.2944
   26MOL   O55019600   6.690   6.599   7.798  0.0806  0.1606 -0.1805
   26MOL   O55119601   6.804   6.596   7.600 -0.1998  0.2999  0.1398
   26MOL   C55219602   6.612   6.731   7.463  0.7587  0.0972 -0.1911
   26MOL   C55319603   6.507   6.793   7.387  0.0772  0.3489 -0.9892
   26MOL   H55419604   6.229   7.349   7.105 -0.3028  0.8285  0.0533
   26MOL   H55519605   6.140   7.372   7.250  0.0823  1.1729 -1.1218
   26MOL   H55619606   6.291   7.516   7.338 -1.0321  0.2852 -0.0172
   26MOL   H55719607   6.238   7.568   7.186 -0.9431 -0.0853 -0.0147
   26MOL   H55819608   6.468   7.504   7.079 -1.4525 -0.7406  0.6172
   26MOL   H55919609   6.625   7.619   7.237  0.2868  1.1037 -2.3984
   26MOL   H56019610   6.497   7.661   7.338  0.2537 -0.8529  0.2461
   26MOL   H56119611   6.561   7.375   7.345  2.5417 -2.4207 -0.7438
   26MOL   H56219612   6.621   7.380   7.180 -0.0422 -0.0066 -0.7701
   26MOL   H56319613   6.443   7.230   7.107 -1.5733 -3.0170  0.9536
   26MOL   H56419614   6.517   7.157   7.250 -1.3457 -1.9634 -0.9669
   26MOL   H56519615   6.326   7.246   7.380 -1.8484 -0.5683 -0.2715
   26MOL   H56619616   6.263   7.099   7.124  0.9012  0.3313 -0.2439
   26MOL   H56719617   6.164   7.114   7.265 -0.9343 -0.4113 -0.5494
   26MOL   H56819618   6.274   6.830   7.636 -0.6813 -1.4349 -0.1427
   26MOL   H56919619   6.453   6.700   7.768  0.8113  1.7459  0.7335
   26MOL   H57019620   6.710   6.707   7.424  0.4277 -2.0749  0.2589
   26MOL   H57119621   6.520   6.800   7.280  1.3151 -1.5420 -0.9877
   26MOL   C57219622   7.093   6.479   7.311  0.2232  0.3662 -0.0411
   26MOL   C57319623   7.021   6.548   7.417 -0.8271 -0.2149  0.2323
   26MOL   C57419624   6.972   6.448   7.529  0.0128  0.2575  0.4568
   26MOL   C57519625   6.905   6.516   7.649  0.4054 -0.0383  0.4825
   26MOL   C57619626   6.874   6.345   7.461 -0.2299  0.0411 -0.2217
   26MOL   C57719627   6.939   6.270   7.344 -0.5763 -0.0659  0.1843
   26MOL   C57819628   6.993   6.374   7.243  0.3090 -0.5250 -0.0993
   26MOL   C57919629   7.055   6.299   7.125 -0.0859  0.0024 -0.5882
   26MOL   O58019630   7.086   6.385   7.014 -0.3624  0.8273  0.9775
   26MOL   C58119631   7.142   6.327   6.907  0.4550  0.3533 -0.1598
   26MOL   O58219632   7.183   6.208   6.900  0.7163 -0.1993 -0.5515
   26MOL   C58319633   7.171   6.438   6.806 -0.1542  0.1305  0.3728
   26MOL   C58419634   7.099   6.561   6.805  0.3119  0.4672  0.2922
   26MOL   C58519635   7.115   6.664   6.705  0.3661 -0.5417  0.0485
   26MOL   C58619636   7.209   6.640   6.606  0.2274 -0.4219 -0.0485
   26MOL   C58719637   7.224   6.735   6.496  0.5633 -0.2782 -0.5308
   26MOL   O58819638   7.281   6.705   6.394  0.3121  0.3208  0.0753
   26MOL   O58919639   7.168   6.851   6.525 -0.0258  0.5017 -0.6921
   26MOL   C59019640   7.287   6.519   6.603 -0.4877 -0.2494 -0.0807
   26MOL   C59119641   7.263   6.412   6.699 -0.1999  0.0696 -0.4918
   26MOL   H59219642   7.182   6.437   7.358  0.2988  0.1249 -0.4001
   26MOL   H59319643   7.133   6.544   7.233  0.9145  0.7561  0.6291
   26MOL   H59419644   6.930   6.598   7.383  0.3695  0.9488 -1.3242
   26MOL   H59519645   7.088   6.624   7.456 -1.4713  0.9885 -0.9896
   26MOL   H59619646   7.063   6.399   7.564  0.6296  0.8094 -0.3388
   26MOL   H59719647   6.973   6.580   7.707 -0.5330  0.3576  1.1604
   26MOL   H59819648   6.870   6.441   7.720 -0.4790 -0.4618 -0.3962
   26MOL   H59919649   6.790   6.397   7.416 -0.8205  2.0100  3.0001
   26MOL   H60019650   6.849   6.272   7.538 -0.8516 -0.4216 -0.8454
   26MOL   H60119651   7.013   6.199   7.380 -0.1268  1.1553  1.7605
   26MOL   H60219652   6.854   6.217   7.301 -0.3760  1.3185 -2.0081
   26MOL   H60319653   6.909   6.427   7.198  0.8046 -0.6144 -1.1602
   26MOL   H60419654   6.980   6.226   7.094  0.5742 -1.8743  2.0365
   26MOL   H60519655   7.147   6.259   7.168 -1.1656 -0.1107  1.6769
   26MOL   H60619656   7.027   6.585   6.882 -0.2653 -2.0066  0.5491
   26MOL   H60719657   7.046   6.747   6.708  0.7382 -0.2188 -0.2599
   26MOL   H60819658   7.364   6.500   6.530 -0.5276 -0.5807 -0.0394
   26MOL   H60919659   7.333   6.330   6.699  1.2991  1.3097 -1.8326
   26MOL   C61019660   6.874   7.088   6.250  0.2325 -0.3002  0.6170
   26MOL   C61119661   6.996   7.003   6.289  0.2256 -0.4749 -0.4215
   26MOL   C61219662   7.061   7.045   6.425  0.1461  0.8963  0.1976
   26MOL   C61319663   7.193   6.968   6.452 -0.4416 -0.3098 -0.2527
   26MOL   C61419664   7.081   7.196   6.431 -0.0820 -0.7746  0.1569
   26MOL   C61519665   6.949   7.270   6.413  0.3874 -0.1112  0.3645
   26MOL   C61619666   6.900   7.237   6.262 -0.4031  0.7485 -0.0048
   26MOL   C61719667   6.772   7.313   6.235  0.4388  0.0336  0.3607
   26MOL   O61819668   6.734   7.298   6.100 -0.2290 -0.4546 -0.1076
   26MOL   C61919669   6.627   7.224   6.075 -0.2209 -0.3658  0.0675
   26MOL   O62019670   6.541   7.190   6.158 -0.1754  0.0683  0.2837
   26MOL   C62119671   6.610   7.194   5.926  0.0309  0.0411 -0.0390
   26MOL   C62219672   6.685   7.263   5.836 -0.7280 -0.0111 -0.2786
   26MOL   C62319673   6.663   7.244   5.697  0.1384 -0.3148 -0.2137
   26MOL   C62419674   6.567   7.155   5.651 -0.3088 -0.1776 -0.4625
   26MOL   C62519675   6.536   7.125   5.505 -0.2617  0.8617  0.4359
   26MOL   O62619676   6.485   7.017   5.465 -0.2693  0.2751 -0.4267
   26MOL   O62719677   6.560   7.230   5.423 -0.4451  0.7867  0.0045
   26MOL   C62819678   6.504   7.071   5.748  0.0352  0.0790 -0.1800
   26MOL   C62919679   6.523   7.093   5.881  0.2215 -0.5119 -0.7848
   26MOL   H63019680   6.782   7.050   6.295 -0.8276  0.9070 -0.5173
   26MOL   H63119681   6.849   7.064   6.147 -0.2354 -0.8761  0.8619
   26MOL   H63219682   7.062   7.011   6.203 -1.5448  1.9021 -1.6102
   26MOL   H63319683   6.962   6.900   6.285 -1.6974  0.1505 -0.5060
   26MOL   H63419684   6.994   7.027   6.510 -0.7920  2.9134 -0.0729
   26MOL   H63519685   7.257   7.028   6.517  1.7619 -3.1548  0.3138
   26MOL   H63619686   7.252   6.941   6.364  4.3639  1.4283  2.2179
   26MOL   H63719687   7.153   7.217   6.353  0.0770  0.4809  0.6284
   26MOL   H63819688   7.125   7.216   6.529 -0.5436  1.4200 -0.0608
   26MOL   H63919689   6.881   7.253   6.496 -0.6488 -0.2844 -0.5070
   26MOL   H64019690   6.957   7.379   6.416 -0.5180  0.0355 -1.5057
   26MOL   H64119691   6.977   7.271   6.193  0.9033 -2.1074  0.0049
   26MOL   H64219692   6.800   7.418   6.235  2.7001 -0.5572  0.8141
   26MOL   H64319693   6.690   7.291   6.304  0.1273 -0.4106 -0.1425
   26MOL   H64419694   6.770   7.325   5.859 -1.1256  0.3106  0.3375
   26MOL   H64519695   6.718   7.304   5.626  0.4921 -0.4814 -0.0822
   26MOL   H64619696   6.431   6.997   5.719 -0.1964 -1.1615  3.3064
   26MOL   H64719697   6.486   7.025   5.956  0.3852  2.7919  2.4442
   26MOL   C64819698   6.420   7.555   5.067 -0.1062  0.0387 -0.1660
   26MOL   C64919699   6.406   7.417   5.125 -0.1540  0.1259  0.1258
   26MOL   C65019700   6.511   7.384   5.230 -0.0896 -0.4221 -0.0687
   26MOL   C65119701   6.500   7.238   5.291  0.1512 -0.8733 -0.1642
   26MOL   C65219702   6.648   7.421   5.181 -0.3985  0.1662 -0.1559
   26MOL   C65319703   6.671   7.571   5.141 -0.0931 -0.4393  0.9486
   26MOL   C65419704   6.565   7.605   5.029  0.1555 -0.0041 -1.3337
   26MOL   C65519705   6.561   7.753   4.994  0.0154  0.4020  0.3540
   26MOL   O65619706   6.690   7.803   4.977 -0.1653 -0.6129  0.0830
   26MOL   C65719707   6.726   7.920   5.030  0.0382  0.2638  0.3250
   26MOL   O65819708   6.658   7.990   5.107 -0.4126 -0.6674 -0.0234
   26MOL   C65919709   6.859   7.959   4.980 -0.0648 -0.1566  0.1096
   26MOL   C66019710   6.940   7.866   4.912  0.6640 -0.4627 -0.8007
   26MOL   C66119711   7.062   7.902   4.859 -0.0010  0.6596  0.2413
   26MOL   C66219712   7.105   0.010   4.869 -0.7036  0.6248 -0.9856
   26MOL   C66319713   7.235   0.061   4.810  0.5341 -0.5547 -0.4019
   26MOL   O66419714   7.275   0.172   4.832 -0.1332  0.0223 -0.5388
   26MOL   O66519715   7.303   8.003   4.732  0.4349  0.4499 -0.0019
   26MOL   C66619716   7.017   0.105   4.927  0.4269 -0.3841  1.3068
   26MOL   C66719717   6.904   0.058   4.994 -0.0275 -0.4845 -0.5417
   26MOL   H66819718   6.385   7.631   5.137 -1.4958  0.5886 -1.4380
   26MOL   H66919719   6.362   7.559   4.975  1.1522  2.1333 -0.9174
   26MOL   H67019720   6.422   7.346   5.044  0.7119  0.1219  0.3006
   26MOL   H67119721   6.302   7.400   5.156  0.7374 -0.5818  2.8379
   26MOL   H67219722   6.483   7.444   5.317 -0.2665 -0.9499  0.2456
   26MOL   H67319723   6.536   7.166   5.218  0.2085 -0.3115 -0.7019
   26MOL   H67419724   6.393   7.218   5.304 -0.0863  0.2070 -0.3530
   26MOL   H67519725   6.679   7.374   5.088 -1.3041 -0.5016 -0.1281
   26MOL   H67619726   6.725   7.390   5.250  1.0342  4.0641  0.0809
   26MOL   H67719727   6.649   7.633   5.228 -0.1765  1.9185 -0.7066
   26MOL   H67819728   6.773   7.585   5.105  0.8392 -0.0351  3.6459
   26MOL   H67919729   6.593   7.545   4.943  0.6036 -1.7210 -0.0349
   26MOL   H68019730   6.509   7.804   5.076 -0.5817  1.7165 -0.8211
   26MOL   H68119731   6.498   7.781   4.910 -0.3612 -0.1695  0.4470
   26MOL   H68219732   6.915   7.762   4.898 -0.2687 -0.0872 -1.9386
   26MOL   H68319733   7.128   7.826   4.821 -0.5550 -1.1026  2.6822
   26MOL   H68419734   7.048   0.208   4.917 -1.3969 -0.0223 -0.9848
   26MOL   H68519735   6.858   0.127   5.064 -1.1398  0.9487 -2.6523
   26MOL   C68619736   7.457   7.743   4.388  0.0353  0.2254 -0.1754
   26MOL   C68719737   7.444   7.812   4.519 -0.3223 -0.2303 -0.2995
   26MOL   C68819738   7.404   7.954   4.509  0.1703 -0.0242  0.3443
   26MOL   C68919739   7.408   0.002   4.642 -0.4404  0.0687 -0.0568
   26MOL   C69019740   7.505   8.023   4.416 -0.1353 -0.5507  0.5733
   26MOL   C69119741   7.496   7.964   4.272 -0.4987 -0.1036 -0.5532
   26MOL   C69219742   7.532   7.813   4.278  1.1271 -0.4390  0.2411
   26MOL   C69319743   7.513   7.753   4.139 -0.0503  0.0902  0.1483
   26MOL   O69419744   7.371   7.747   4.101  0.0739  0.6055 -0.5402
   26MOL   C69519745   7.319   7.817   3.999 -0.6878  0.9166  0.1895
   26MOL   O69619746   7.379   7.904   3.935  0.7041  0.2870  0.4193
   26MOL   C69719747   7.183   7.774   3.966  0.4793  0.5208 -0.2706
   26MOL   C69819748   7.120   7.660   4.031  0.1253 -0.4220  0.8072
   26MOL   C69919749   6.990   7.619   3.997  0.2257 -0.2612 -0.1514
   26MOL   C70019750   6.917   7.690   3.896  0.0065  0.4940  0.5221
   26MOL   C70119751   6.773   7.654   3.876 -0.3581  0.7493  0.4483
   26MOL   O70219752   6.700   7.730   3.815 -0.3708  0.8025 -0.0159
   26MOL   O70319753   6.743   7.527   3.922  0.4246 -0.4378  0.2292
   26MOL   C70419754   6.974   7.801   3.836 -0.9300  0.3550 -0.4552
   26MOL   C70519755   7.108   7.835   3.868  0.2784 -0.1550 -0.2399
   26MOL   H70619756   7.359   7.717   4.349  1.1440 -2.0338 -1.5835
   26MOL   H70719757   7.511   7.650   4.406  0.6752  0.6213 -0.0448
   26MOL   H70819758   7.529   7.800   4.587  0.7507 -0.3446 -1.6412
   26MOL   H70919759   7.361   7.757   4.564 -1.1096  2.0598  1.1943
   26MOL   H71019760   7.304   7.969   4.469 -0.4379  0.3932  2.0184
   26MOL   H71119761   7.416   0.111   4.639 -1.4372  0.1502  0.2446
   26MOL   H71219762   7.503   8.008   4.688  0.1316  3.8390  1.0534
   26MOL   H71319763   7.609   8.007   4.446  0.1979  1.2886  0.4764
   26MOL   H71419764   7.493   0.099   4.405 -1.1554 -0.8702 -1.8291
   26MOL   H71519765   7.399   7.965   4.223 -1.1739  1.1179  0.7648
   26MOL   H71619766   7.567   8.014   4.207  1.2109  0.1550  1.4447
   26MOL   H71719767   7.638   7.813   4.302  0.7970 -0.5559  1.7993
   26MOL   H71819768   7.551   7.651   4.139  0.5687  0.2813  3.2363
   26MOL   H71919769   7.563   7.811   4.061 -1.0766  1.1220  0.2387
   26MOL   H72019770   7.170   7.606   4.110  0.3224 -4.1606 -1.7043
   26MOL   H72119771   6.946   7.537   4.051 -0.5370  1.5561  2.0189
   26MOL   H72219772   6.926   7.877   3.777 -0.8462 -0.0265 -1.0181
   26MOL   H72319773   7.137   7.934   3.835  1.7317 -0.9669 -1.4692
   26MOL   C72419774   6.552   7.145   3.763 -0.1407 -0.4991 -0.2388
   26MOL   C72519775   6.586   7.295   3.783 -0.4673 -0.1772 -0.2534
   26MOL   C72619776   6.577   7.343   3.928  0.3086  0.1580 -0.0691
   26MOL   C72719777   6.603   7.498   3.939 -0.0979  0.2813  0.6215
   26MOL   C72819778   6.445   7.297   3.986  0.1540 -0.0055 -0.2067
   26MOL   C72919779   6.432   7.143   3.979  0.5488 -0.2594  0.1375
   26MOL   C73019780   6.426   7.086   3.835 -0.4538 -0.5734  0.5374
   26MOL   C73119781   6.404   6.934   3.813 -0.4257  0.5356  0.1756
   26MOL   O73219782   6.387   6.899   3.679  0.2895 -0.1831  0.7629
   26MOL   C73319783   6.481   6.824   3.606  0.5588  0.2522  0.1660
   26MOL   O73419784   6.582   6.781   3.655 -0.1268 -0.6128  0.3081
   26MOL   C73519785   6.427   6.795   3.465  0.7840 -0.1460  0.0335
   26MOL   C73619786   6.296   6.833   3.420 -1.2096  0.1780  0.0813
   26MOL   C73719787   6.266   6.805   3.286 -0.0055 -0.5662 -0.8901
   26MOL   C73819788   6.359   6.757   3.187  0.2943 -0.2971 -0.7220
   26MOL   C73919789   6.308   6.734   3.046 -0.2225  1.1317 -0.8113
   26MOL   O74019790   6.191   6.695   3.028 -0.0623  1.1205 -0.5502
   26MOL   O74119791   6.398   6.752   2.949  0.2214 -0.1571  0.5787
   26MOL   C74219792   6.491   6.718   3.232  0.2855 -0.3124  0.2451
   26MOL   C74319793   6.522   6.742   3.371 -0.1223  0.2949  0.2090
   26MOL   H74419794   6.643   7.097   3.799  0.8462  1.6594  0.2351
   26MOL   H74519795   6.551   7.138   3.654  2.3253  1.0546 -0.3897
   26MOL   H74619796   6.515   7.360   3.732  0.0828  0.4786 -0.1890
   26MOL   H74719797   6.682   7.314   3.737 -0.8943  2.7705  0.0200
   26MOL   H74819798   6.649   7.282   3.981  1.8380  0.3226 -1.8891
   26MOL   H74919799   6.586   7.538   4.038 -2.8368 -1.0237  0.7224
   26MOL   H75019800   6.552   7.560   3.865  0.5593 -2.2196 -2.0440
   26MOL   H75119801   6.356   7.347   3.948  0.6458  0.3355 -0.9212
   26MOL   H75219802   6.434   7.334   4.088 -0.1299  0.3717 -0.3742
   26MOL   H75319803   6.515   7.104   4.039 -0.3547  1.8088  2.8007
   26MOL   H75419804   6.348   7.109   4.039  0.4735 -2.7241 -1.2833
   26MOL   H75519805   6.339   7.131   3.788  1.5049  2.6206 -0.1278
   26MOL   H75619806   6.319   6.909   3.876 -0.4705  1.4933  0.5008
   26MOL   H75719807   6.494   6.886   3.852 -0.3039  0.1171 -0.5919
   26MOL   H75819808   6.223   6.866   3.492 -1.0729 -0.7879  0.6684
   26MOL   H75919809   6.172   6.837   3.242 -0.3207  2.5987  1.8671
   26MOL   H76019810   6.554   6.676   3.155 -0.4543 -0.9364 -0.0228
   26MOL   H76119811   6.619   6.706   3.402 -0.4656  0.0319  0.9992
   26MOL   H76219812   6.350   6.735   2.869  1.0075 -0.4918  0.1715
   27MOL     C119813   4.778   3.217   0.682 -0.0757 -0.6553 -0.2244
   27MOL     C219814   4.854   3.093   0.640 -0.3726 -0.4583  1.0116
   27MOL     C319815   5.007   3.128   0.611  0.4373 -0.6044 -0.6392
   27MOL     C419816   5.084   3.011   0.563 -0.1404  0.6894  0.2579
   27MOL     C519817   5.016   3.235   0.505 -0.0544 -0.0035  0.2546
   27MOL     C619818   4.939   3.358   0.544  0.6095  0.0224  0.5378
   27MOL     C719819   4.786   3.330   0.578 -0.2037 -0.1615  0.0292
   27MOL     C819820   4.702   3.454   0.610 -0.2258 -0.1564  0.4250
   27MOL     O919821   4.659   3.526   0.492  0.2421 -0.1917 -0.7713
   27MOL    C1019822   4.700   3.664   0.472  0.6400 -0.0296 -0.4629
   27MOL    O1119823   4.761   3.730   0.563 -0.0813 -0.1065  0.0974
   27MOL    C1219824   4.668   3.716   0.335 -0.3727 -0.0008 -0.4226
   27MOL    C1319825   4.599   3.633   0.245  0.2061  0.0500  0.3066
   27MOL    C1419826   4.563   3.677   0.117 -0.2340  0.1078 -0.3795
   27MOL    C1519827   4.590   3.812   0.084 -0.7895  0.3199 -0.3869
   27MOL    C1619828   4.562   3.859   7.975  0.2701 -0.1038  0.8094
   27MOL    O1719829   4.535   3.781   7.881  0.1714  0.0518  0.0503
   27MOL    O1819830   4.576   3.996   7.967 -0.7701 -0.1055 -0.1983
   27MOL    C1919831   4.670   3.888   0.169  0.3412 -0.0671  0.2035
   27MOL    C2019832   4.707   3.845   0.298 -0.3263 -0.3680  0.6722
   27MOL    H2119833   4.813   3.252   0.779 -1.3672 -0.3673  0.1543
   27MOL    H2219834   4.675   3.181   0.696 -0.6121  0.4408 -1.2652
   27MOL    H2319835   4.814   3.056   0.545 -1.3405 -1.2735  1.7236
   27MOL    H2419836   4.851   3.006   0.704 -3.0605 -0.2313  1.2632
   27MOL    H2519837   5.055   3.159   0.704 -2.1532 -0.7051  0.7683
   27MOL    H2619838   5.031   2.963   0.480  1.4432  0.8157 -0.8563
   27MOL    H2719839   5.095   2.934   0.639  0.4566  1.0874  0.5805
   27MOL    H2819840   4.968   3.206   0.411 -1.0212 -0.8997  1.0116
   27MOL    H2919841   5.119   3.260   0.480 -0.5346  2.5493  0.6833
   27MOL    H3019842   4.989   3.409   0.627  2.9228  1.0710 -1.4635
   27MOL    H3119843   4.956   3.437   0.472 -1.3118  1.6467  1.8042
   27MOL    H3219844   4.755   3.282   0.485 -0.4277 -0.9925  0.5230
   27MOL    H3319845   4.755   3.512   0.685 -3.7681  0.0489  2.9159
   27MOL    H3419846   4.610   3.427   0.661 -1.2847  0.2855 -1.1889
   27MOL    H3519847   4.585   3.527   0.262  0.4796 -0.1857 -0.9535
   27MOL    H3619848   4.521   3.613   0.040 -1.6931 -1.7789  1.9374
   27MOL    H3719849   4.710   3.982   0.134  1.7165  0.0306  1.9199
   27MOL    H3819850   4.771   3.912   0.352 -2.9951  2.7578  0.1188
   27MOL    H3919851   5.182   3.032   0.519 -1.1618  0.0161 -2.4505
   27MOL    C4019852   4.885   4.121   7.694 -0.1253 -0.6362  0.4613
   27MOL    C4119853   4.771   4.038   7.747  0.2846 -0.2888  0.1026
   27MOL    C4219854   4.647   4.130   7.779  0.2191  0.7043  0.9551
   27MOL    C4319855   4.533   4.054   7.838 -0.3270  0.2695 -0.3511
   27MOL    C4419856   4.683   4.265   7.850  0.3280 -0.4001  0.6044
   27MOL    C4519857   4.805   4.332   7.789  0.4016 -0.1629  0.4231
   27MOL    C4619858   4.923   4.238   7.781 -0.1060  0.0537 -0.2584
   27MOL    C4719859   5.047   4.302   7.719 -0.5366 -0.1188  0.3271
   27MOL    O4819860   5.036   4.347   7.584 -0.3111 -0.0686 -0.0217
   27MOL    C4919861   5.016   4.474   7.550  0.4821 -0.4137 -0.1263
   27MOL    O5019862   5.031   4.564   7.636 -0.0722  0.0363  0.7745
   27MOL    C5119863   4.966   4.494   7.406  0.3971 -0.3839  1.0699
   27MOL    C5219864   4.920   4.620   7.350 -0.3182 -0.1118 -0.1537
   27MOL    C5319865   4.898   4.637   7.210 -0.1744  0.3138 -0.6834
   27MOL    C5419866   4.895   4.524   7.124 -0.3446  0.0143 -0.0611
   27MOL    C5519867   4.844   4.525   6.988  0.5112 -0.2831 -0.2394
   27MOL    O5619868   4.793   4.423   6.939 -0.1078  0.0486 -0.5114
   27MOL    O5719869   4.851   4.649   6.935  0.4243  0.8598  0.4506
   27MOL    C5819870   4.932   4.398   7.180 -0.0764 -0.0012  0.1600
   27MOL    C5919871   4.968   4.386   7.314 -0.5967 -0.3411 -0.1746
   27MOL    H6019872   4.853   4.153   7.594  0.7498  1.0955  0.7203
   27MOL    H6119873   4.977   4.064   7.684 -1.6051 -2.8608 -0.8116
   27MOL    H6219874   4.805   3.976   7.830 -0.1937  2.4457  2.4273
   27MOL    H6319875   4.733   3.973   7.668  0.9571  0.7507 -1.0910
   27MOL    H6419876   4.603   4.158   7.683 -0.2816  0.7299  1.1894
   27MOL    H6519877   4.501   3.987   7.758  0.5099  0.2093 -0.6334
   27MOL    H6619878   4.451   4.121   7.864  0.4127  1.7886 -1.8769
   27MOL    H6719879   4.708   4.249   7.955  2.0952  0.3692  0.3058
   27MOL    H6819880   4.602   4.337   7.861  0.4894  0.0723 -1.1608
   27MOL    H6919881   4.790   4.369   7.687  1.4737  1.7589  0.9459
   27MOL    H7019882   4.834   4.418   7.848 -0.4370 -0.9245  1.9619
   27MOL    H7119883   4.943   4.203   7.883 -0.7208  2.2490  0.6352
   27MOL    H7219884   5.122   4.223   7.707 -1.2790 -1.0096  1.3589
   27MOL    H7319885   5.096   4.374   7.784 -0.8197  0.6759 -0.3333
   27MOL    H7419886   4.903   4.710   7.406  0.8833 -0.5210  0.8869
   27MOL    H7519887   4.864   4.735   7.180 -1.2848  0.2072  0.2273
   27MOL    H7619888   4.932   4.306   7.124  0.3488  1.1349 -1.7683
   27MOL    H7719889   5.005   4.290   7.347  1.7621 -0.0994 -1.9342
   27MOL    C7819890   4.533   4.951   6.946 -0.2217  0.6563 -0.6904
   27MOL    C7919891   4.662   4.872   6.928  0.3425 -0.6284 -0.1532
   27MOL    C8019892   4.653   4.749   6.834  0.4846 -0.2917 -0.0923
   27MOL    C8119893   4.791   4.683   6.814  0.2405 -0.1242 -0.7488
   27MOL    C8219894   4.538   4.659   6.872 -0.0390  0.0104 -0.3414
   27MOL    C8319895   4.401   4.738   6.892  0.9919 -0.1590 -0.3759
   27MOL    C8419896   4.416   4.857   6.988  0.2797 -0.7923 -0.5302
   27MOL    C8519897   4.288   4.932   7.011 -0.1933  0.6061 -0.0768
   27MOL    O8619898   4.309   5.000   7.132  0.6975 -0.1109  0.3254
   27MOL    C8719899   4.273   5.130   7.149 -0.1646 -0.4301 -0.3141
   27MOL    O8819900   4.197   5.202   7.074 -0.2298  0.3132  0.2415
   27MOL    C8919901   4.352   5.188   7.263  0.1146 -0.1648  0.6698
   27MOL    C9019902   4.458   5.121   7.325 -0.0561  0.1029  0.7724
   27MOL    C9119903   4.527   5.174   7.433 -0.0680  0.0405 -0.1121
   27MOL    C9219904   4.495   5.302   7.484  0.1904  0.0161  0.2498
   27MOL    C9319905   4.564   5.361   7.604 -0.3561 -0.3107  0.1215
   27MOL    O9419906   4.655   5.300   7.663  0.2577 -0.1306 -0.4983
   27MOL    O9519907   4.531   5.492   7.630  0.3509 -0.3948  0.6938
   27MOL    C9619908   4.388   5.371   7.421 -0.0328 -0.7853  0.3061
   27MOL    C9719909   4.317   5.310   7.313 -0.4190  0.7087  0.5690
   27MOL    H9819910   4.502   4.992   6.850  1.3926 -1.1243 -1.9993
   27MOL    H9919911   4.556   5.032   7.015  2.9499  0.1527 -1.1092
   27MOL   H10019912   4.691   4.841   7.029 -1.5859  2.5056  1.4563
   27MOL   H10119913   4.741   4.943   6.902 -0.5057  0.9100  1.3533
   27MOL   H10219914   4.642   4.790   6.733  1.8633 -0.0792 -0.1730
   27MOL   H10319915   4.861   4.756   6.774  0.1419  1.0245  1.1236
   27MOL   H10419916   4.804   4.608   6.736 -1.1256 -0.2867 -0.8340
   27MOL   H10519917   4.552   4.611   6.968 -0.2318 -0.3355 -0.4842
   27MOL   H10619918   4.527   4.579   6.798 -0.2716  0.0798 -0.3815
   27MOL   H10719919   4.365   4.770   6.794  1.7868 -1.1318 -0.9925
   27MOL   H10819920   4.325   4.665   6.923  0.8650 -0.5232 -1.5264
   27MOL   H10919921   4.446   4.820   7.086 -0.0720  1.2812  0.3874
   27MOL   H11019922   4.201   4.866   7.021 -1.0722  1.7672  0.0008
   27MOL   H11119923   4.261   5.000   6.930 -1.3056 -0.2087 -0.4182
   27MOL   H11219924   4.474   5.020   7.292 -0.7238  1.0450 -2.6258
   27MOL   H11319925   4.608   5.127   7.487  0.3087 -0.8133 -1.4160
   27MOL   H11419926   4.359   5.471   7.450  0.3058  0.2775 -2.8185
   27MOL   H11519927   4.239   5.362   7.258  1.7362  1.5334 -1.8399
   27MOL   C11619928   4.732   5.889   7.540  0.3428  0.0457  0.0801
   27MOL   C11719929   4.687   5.738   7.569 -0.4194  0.6248  0.6680
   27MOL   C11819930   4.620   5.709   7.704 -0.2364  0.0670  0.5628
   27MOL   C11919931   4.601   5.558   7.731  0.0108  0.5276  0.4025
   27MOL   C12019932   4.705   5.773   7.814  0.7423 -0.1063 -0.0931
   27MOL   C12119933   4.732   5.923   7.794  0.3007 -0.0097  0.0978
   27MOL   C12219934   4.818   5.943   7.662 -0.4534  0.0702  0.0722
   27MOL   C12319935   4.865   6.087   7.651 -0.2505  0.1286  0.0294
   27MOL   O12419936   4.954   6.121   7.765  0.3944 -0.4392 -0.1720
   27MOL   C12519937   5.043   6.226   7.753  0.1812 -0.4268 -0.2320
   27MOL   O12619938   5.067   6.282   7.641  0.2633 -0.0517 -0.0787
   27MOL   C12719939   5.096   6.261   7.889 -0.3984 -0.0515  0.7592
   27MOL   C12819940   5.216   6.338   7.900  0.3850  0.4257  0.1401
   27MOL   C12919941   5.269   6.353   8.028  0.2310 -0.6928  0.1643
   27MOL   C13019942   5.198   6.325   0.116  0.6498  0.0182 -0.0968
   27MOL   C13119943   5.266   6.346   0.243 -0.5339 -0.3439 -0.2904
   27MOL   O13219944   5.367   6.410   0.258 -0.1711  0.1343  0.0966
   27MOL   O13319945   5.201   6.293   0.351  0.0702  0.2309 -0.3045
   27MOL   C13419946   5.077   6.257   0.104  0.5522  0.4632  0.6669
   27MOL   C13519947   5.025   6.222   8.010 -0.4282  0.3537 -0.2143
   27MOL   H13619948   4.647   5.957   7.533  1.7635  1.7483 -0.8571
   27MOL   H13719949   4.789   5.898   7.448  1.2610  3.4718  0.8932
   27MOL   H13819950   4.763   5.664   7.548 -2.3807 -1.5881  1.1356
   27MOL   H13919951   4.618   5.717   7.487  0.0238  2.2609 -0.1494
   27MOL   H14019952   4.522   5.755   7.715 -1.5600 -2.8720  1.5727
   27MOL   H14119953   4.551   5.542   7.826  0.7612 -0.3424  0.6605
   27MOL   H14219954   4.704   5.523   7.728  0.0744  0.7835 -0.5197
   27MOL   H14319955   4.803   5.726   7.820  1.3157  1.0669 -0.1690
   27MOL   H14419956   4.660   5.752   7.911 -2.1364 -0.8120 -1.5233
   27MOL   H14519957   4.632   5.965   7.781 -0.0440 -0.0337  2.5850
   27MOL   H14619958   4.785   5.971   7.875 -2.0455  4.4990 -0.8691
   27MOL   H14719959   4.912   5.889   7.675 -0.9608 -1.1124 -1.0322
   27MOL   H14819960   4.776   6.149   7.663 -0.3980 -0.4986  2.3706
   27MOL   H14919961   4.917   6.099   7.556 -1.0360 -1.3685 -0.5934
   27MOL   H15019962   5.264   6.369   7.809 -2.7217  0.4911 -1.5436
   27MOL   H15119963   5.371   6.388   8.026  0.2286 -0.6703  0.4379
   27MOL   H15219964   5.025   6.229   0.194  2.0951  1.0370  1.7553
   27MOL   H15319965   4.930   6.170   8.005 -0.7547  0.6015  2.6641
   27MOL   C15419966   5.104   6.195   0.822 -0.5467 -0.6346  0.7055
   27MOL   C15519967   5.203   6.262   0.720  0.3425 -0.5112 -0.5532
   27MOL   C15619968   5.144   6.261   0.581 -0.1850 -0.6307 -0.7174
   27MOL   C15719969   5.246   6.316   0.481 -0.0662  0.3913 -0.5607
   27MOL   C15819970   5.100   6.115   0.543  0.3647  0.8112 -0.0446
   27MOL   C15919971   5.018   6.039   0.653 -0.4508 -0.0018 -0.3123
   27MOL   C16019972   5.080   6.043   0.791  0.9179  0.0479  0.0487
   27MOL   C16119973   4.981   5.983   0.894 -0.0118  0.3457 -0.5305
   27MOL   O16219974   4.988   5.840   0.897 -0.5510  0.1540 -0.5334
   27MOL   C16319975   4.892   5.773   0.835 -0.1427 -0.1022  0.6614
   27MOL   O16419976   4.798   5.822   0.783  0.2642 -0.3405 -0.1231
   27MOL   C16519977   4.928   5.628   0.836 -0.3376 -0.1481 -0.2349
   27MOL   C16619978   5.009   5.572   0.941  0.0736 -0.3664 -0.3562
   27MOL   C16719979   5.063   5.443   0.926 -0.1963  0.7471  0.2665
   27MOL   C16819980   5.035   5.369   0.807 -0.1604  0.1315  0.2936
   27MOL   C16919981   5.076   5.225   0.799 -0.6406 -0.3786 -0.0338
   27MOL   O17019982   5.025   5.145   0.719  0.4048 -0.2528  0.5994
   27MOL   O17119983   5.169   5.186   0.894  0.2881  0.1292  0.0899
   27MOL   C17219984   4.950   5.426   0.707  0.4594 -0.0707 -0.4704
   27MOL   C17319985   4.893   5.552   0.723  0.9042  0.5786  0.7222
   27MOL   H17419986   5.011   6.250   0.812  0.2421  0.6252  0.2383
   27MOL   H17519987   5.143   6.200   0.923  3.3295 -0.9679 -0.6830
   27MOL   H17619988   5.299   6.211   0.733  0.7686  0.4853  0.2158
   27MOL   H17719989   5.222   6.361   0.760  1.0098 -0.4618 -0.9764
   27MOL   H17819990   5.063   6.333   0.585  0.2322 -0.2466  1.5719
   27MOL   H17919991   5.342   6.266   0.495 -0.5662 -0.1133  1.1405
   27MOL   H18019992   5.262   6.421   0.505  1.9601  0.2610 -1.2033
   27MOL   H18119993   5.178   6.046   0.509 -1.3086  0.7572 -4.0656
   27MOL   H18219994   5.044   6.128   0.451 -0.7887  0.0652  0.5472
   27MOL   H18319995   4.915   6.075   0.661 -0.2769  0.0761  1.8532
   27MOL   H18419996   4.995   5.937   0.622 -1.3183  0.0472  0.1679
   27MOL   H18519997   5.175   5.990   0.793  1.1989  0.4504 -1.7628
   27MOL   H18619998   4.879   6.021   0.886  0.8662  3.5970  2.4879
   27MOL   H18719999   4.992   6.012   0.998 -1.3681  0.1410 -0.3182
   27MOL   H18820000   5.033   5.641   1.021  0.1087  2.9025 -3.0828
   27MOL   H18920001   5.120   5.402   1.008  1.3480  1.6253 -0.3515
   27MOL   H19020002   4.930   5.385   0.610  0.8307  1.2297 -1.1099
   27MOL   H19120003   4.835   5.592   0.642  1.2087 -0.1616  0.1188
   27MOL   C19220004   5.229   5.030   1.301 -0.2874 -0.2123  0.1822
   27MOL   C19320005   5.185   5.076   1.165  0.3002 -0.2896 -0.5529
   27MOL   C19420006   5.261   5.008   1.049  0.1213 -0.2240  0.1410
   27MOL   C19520007   5.208   5.051   0.905  0.1879  0.0518  0.1721
   27MOL   C19620008   5.416   5.040   1.066 -0.5196 -0.0787 -0.1704
   27MOL   C19720009   5.462   4.981   1.202 -0.0836 -0.3375  0.1507
   27MOL   C19820010   5.381   5.044   1.320 -0.1247  0.1384 -0.2279
   27MOL   C19920011   5.434   4.979   1.453  0.0739  0.4631 -0.0955
   27MOL   O20020012   5.567   5.026   1.487  0.7328  0.4412 -0.5489
   27MOL   C20120013   5.595   5.147   1.528  0.0344 -0.0400  0.8189
   27MOL   O20220014   5.508   5.236   1.535 -0.3622 -0.4016  0.0161
   27MOL   C20320015   5.739   5.168   1.570 -0.1301 -0.3336 -0.3544
   27MOL   C20420016   5.770   5.286   1.638 -0.5996 -0.5027 -0.6355
   27MOL   C20520017   5.904   5.309   1.680 -0.2510  0.4793 -0.2249
   27MOL   C20620018   6.002   5.209   1.657 -0.1032 -0.7518 -0.6783
   27MOL   C20720019   6.146   5.243   1.706 -0.1192 -0.3058 -0.4188
   27MOL   O20820020   6.252   5.205   1.658 -0.5049  0.1657 -0.3036
   27MOL   O20920021   6.140   5.340   1.805 -0.1107  0.3461  0.1056
   27MOL   C21020022   5.970   5.092   1.588 -0.5346  0.2161 -0.4898
   27MOL   C21120023   5.839   5.074   1.543 -0.2793 -0.5546 -0.1880
   27MOL   H21220024   5.213   4.923   1.310  2.4959 -0.8701 -2.0983
   27MOL   H21320025   5.178   5.098   1.369 -2.2365  0.9225 -2.3029
   27MOL   H21420026   5.184   5.184   1.153 -1.2979  0.0030  1.8545
   27MOL   H21520027   5.078   5.058   1.152  0.4267 -1.3153 -0.2209
   27MOL   H21620028   5.249   4.900   1.057  2.0934 -0.4822 -0.1283
   27MOL   H21720029   5.119   4.994   0.881 -0.0067  1.1668 -1.9451
   27MOL   H21820030   5.281   5.047   0.824 -0.3951  0.6216 -0.3897
   27MOL   H21920031   5.447   5.143   1.054  0.5408 -0.6179 -2.2672
   27MOL   H22020032   5.488   4.994   0.998  0.7468  0.9878  0.4230
   27MOL   H22120033   5.441   4.874   1.203 -0.1708 -0.3486 -1.3922
   27MOL   H22220034   5.566   5.003   1.224  0.9531 -0.8820 -3.7677
   27MOL   H22320035   5.406   5.150   1.324 -1.5194  0.4431  4.4861
   27MOL   H22420036   5.420   4.871   1.448  2.3843  0.1303  0.2932
   27MOL   H22520037   5.372   5.009   1.538 -2.0149  1.6128 -1.9864
   27MOL   H22620038   5.692   5.359   1.655  0.8302  0.6679  1.1611
   27MOL   H22720039   5.928   5.394   1.743 -1.7505  0.9974 -0.3383
   27MOL   H22820040   6.045   5.016   1.569  0.0256  0.3966  0.9115
   27MOL   H22920041   5.819   4.980   1.492 -2.1730  0.2512 -0.9540
   27MOL   C23020042   6.521   5.572   1.623  0.1323 -0.7994  0.1566
   27MOL   C23120043   6.460   5.462   1.702 -0.3469  0.3805 -0.2638
   27MOL   C23220044   6.326   5.511   1.773 -0.7300  0.4145 -0.6030
   27MOL   C23320045   6.257   5.401   1.857 -0.0674 -0.0826  0.0585
   27MOL   C23420046   6.358   5.632   1.864 -0.3269  0.6054 -0.0843
   27MOL   C23520047   6.433   5.742   1.786 -0.7723 -0.5773  0.1114
   27MOL   C23620048   6.559   5.694   1.713  0.2041  0.1934 -0.0325
   27MOL   C23720049   6.621   5.793   1.627  0.3541 -0.1612  0.3163
   27MOL   O23820050   6.754   5.755   1.602 -0.3087 -0.1428 -0.6631
   27MOL   C23920051   6.849   5.786   1.700 -0.1030 -0.1523  0.5263
   27MOL   O24020052   6.835   5.864   1.795  0.7907  0.3296 -0.1452
   27MOL   C24120053   6.979   5.714   1.670 -0.2598 -0.1660 -0.2520
   27MOL   C24220054   7.078   5.711   1.773  0.7070  0.3151  0.0744
   27MOL   C24320055   7.193   5.633   1.758  0.4885 -0.2515  0.6661
   27MOL   C24420056   7.205   5.559   1.642  0.1792  0.1360 -0.1570
   27MOL   C24520057   7.315   5.461   1.633  0.6715 -0.8291  0.1588
   27MOL   O24620058   7.412   5.458   1.712 -0.5197  0.1503 -0.1326
   27MOL   O24720059   7.283   5.361   1.545  0.0794 -0.0506 -0.2450
   27MOL   C24820060   7.116   5.575   1.530  0.2596 -0.2979  0.6174
   27MOL   C24920061   6.999   5.651   1.545 -0.4912 -0.0887  0.0463
   27MOL   H25020062   6.463   5.601   1.535 -1.0256 -0.5310  0.9926
   27MOL   H25120063   6.615   5.540   1.577 -0.2110 -0.6812 -0.6427
   27MOL   H25220064   6.529   5.430   1.781 -0.7616  0.8781  0.3063
   27MOL   H25320065   6.436   5.377   1.638  1.1916 -1.3759  1.3971
   27MOL   H25420066   6.251   5.555   1.708  0.4166 -0.3023 -2.4568
   27MOL   H25520067   6.232   5.445   1.954  2.2011 -2.2174  1.7067
   27MOL   H25620068   6.331   5.330   1.895  1.1375  1.4358  0.6197
   27MOL   H25720069   6.416   5.607   1.953 -0.0133 -0.7958 -0.6704
   27MOL   H25820070   6.262   5.667   1.904  0.2015 -0.0433  1.8453
   27MOL   H25920071   6.360   5.777   1.712  1.3023  0.4274 -1.5016
   27MOL   H26020072   6.451   5.817   1.863 -2.7425 -0.9130  0.9536
   27MOL   H26120073   6.629   5.657   1.788 -0.4140 -2.5207 -0.7436
   27MOL   H26220074   6.629   5.894   1.668  0.1098  0.3320 -0.8313
   27MOL   H26320075   6.579   5.807   1.527  1.1090 -0.9543 -0.1150
   27MOL   H26420076   7.069   5.772   1.862  1.2452  0.3832  0.0822
   27MOL   H26520077   7.253   5.618   1.846  1.2051 -2.7547 -0.1913
   27MOL   H26620078   7.134   5.522   1.438  0.9718 -1.1423  1.2321
   27MOL   H26720079   6.922   5.659   1.470 -1.2066  1.1182  0.8946
   27MOL   C26820080   7.479   5.016   1.227  0.3093  0.3444 -0.5478
   27MOL   C26920081   7.465   5.073   1.373 -0.0509  0.0878 -0.2503
   27MOL   C27020082   7.364   5.194   1.389  0.1066 -0.1678  0.3748
   27MOL   C27120083   7.366   5.245   1.538 -0.9892 -0.0235  0.6914
   27MOL   C27220084   7.401   5.305   1.285 -0.3647  0.1555 -0.0325
   27MOL   C27320085   7.392   5.251   1.144  0.7059 -0.2695  0.2690
   27MOL   C27420086   7.496   5.134   1.124  0.3364 -0.3386 -0.7024
   27MOL   C27520087   7.483   5.097   0.975  0.3196  0.4244 -0.8741
   27MOL   O27620088   7.353   5.052   0.943  0.1280 -0.0484 -0.5686
   27MOL   C27720089   7.282   5.111   0.847  0.3359 -0.0575 -1.0081
   27MOL   O27820090   7.328   5.179   0.754 -0.3536 -0.3683 -1.2146
   27MOL   C27920091   7.131   5.088   0.858 -0.5809 -0.1887 -0.2607
   27MOL   C28020092   7.047   5.113   0.748  0.5393  0.3492  0.0519
   27MOL   C28120093   6.903   5.085   0.759 -0.3699 -0.3171  0.2033
   27MOL   C28220094   6.856   5.039   0.882  0.1684 -0.4664  0.7496
   27MOL   C28320095   6.707   5.010   0.892  0.1625  0.2560  0.1505
   27MOL   O28420096   6.628   5.025   0.799 -0.2656  0.5139 -0.0154
   27MOL   O28520097   6.669   4.980   1.019  0.1544 -0.2841 -0.2998
   27MOL   C28620098   6.943   5.034   0.992  0.7553  0.1071 -0.0683
   27MOL   C28720099   7.081   5.056   0.982 -0.9705  0.1036  0.1087
   27MOL   H28820100   7.384   4.965   1.211  0.6061 -0.7148  0.9293
   27MOL   H28920101   7.556   4.940   1.213  1.1999  1.4015 -1.4807
   27MOL   H29020102   7.568   5.098   1.400 -0.9592  2.7281  0.9153
   27MOL   H29120103   7.424   4.996   1.438  0.5614  0.2189  0.2956
   27MOL   H29220104   7.265   5.160   1.357  0.0940  0.1083  0.1130
   27MOL   H29320105   7.470   5.260   1.567  0.3672 -3.4982 -1.9908
   27MOL   H29420106   7.333   5.168   1.607 -0.6665 -1.5145 -0.7782
   27MOL   H29520107   7.500   5.347   1.301  0.1812 -0.0216 -2.6575
   27MOL   H29620108   7.338   5.394   1.295  0.3021  0.6464 -0.1397
   27MOL   H29720109   7.291   5.224   1.115  1.5208 -1.6055 -1.4301
   27MOL   H29820110   7.415   5.324   1.067  0.3121  0.7279  1.0969
   27MOL   H29920111   7.594   5.179   1.141  1.0812 -2.2389  0.2380
   27MOL   H30020112   7.555   5.021   0.945  0.1889 -0.0788  0.0925
   27MOL   H30120113   7.503   5.187   0.917 -2.2532  2.6798  1.6010
   27MOL   H30220114   7.086   5.153   0.655  0.8057 -0.4146 -0.1726
   27MOL   H30320115   6.846   5.094   0.668 -0.1041 -1.1760 -0.0509
   27MOL   H30420116   6.907   5.005   1.090 -2.0592  1.8193 -0.5178
   27MOL   H30520117   7.136   5.054   1.075 -2.1948  1.5958  0.8818
   27MOL   C30620118   6.415   4.641   1.290 -0.3038 -0.0586  0.2910
   27MOL   C30720119   6.405   4.761   1.190  0.3787  0.2088  0.3111
   27MOL   C30820120   6.540   4.799   1.131  0.2923  0.0600 -0.2639
   27MOL   C30920121   6.533   4.929   1.048  0.3184 -0.5915  0.2917
   27MOL   C31020122   6.646   4.819   1.242  0.6520 -0.1335  0.4008
   27MOL   C31120123   6.653   4.696   1.331 -0.2194  0.6552 -0.3567
   27MOL   C31220124   6.518   4.670   1.404 -0.6833 -0.3978  0.8598
   27MOL   C31320125   6.533   4.550   1.504  0.2339  0.0386  0.3062
   27MOL   O31420126   6.610   4.604   1.612  0.3117 -0.1164 -0.5096
   27MOL   C31520127   6.652   4.516   1.714 -0.4566 -0.1707  0.3022
   27MOL   O31620128   6.627   4.396   1.716 -0.2582 -0.0526 -0.1317
   27MOL   C31720129   6.731   4.580   1.819 -0.0434  0.1269 -0.3652
   27MOL   C31820130   6.767   4.714   1.816 -0.2106 -0.1149 -0.0756
   27MOL   C31920131   6.851   4.773   1.913  0.6359 -0.3212  0.2792
   27MOL   C32020132   6.894   4.697   2.023  0.1762 -0.0612  0.0386
   27MOL   C32120133   6.972   4.769   2.131  0.2471  0.0120 -0.4389
   27MOL   O32220134   6.974   4.892   2.139  0.2321 -0.1090 -0.6248
   27MOL   O32320135   7.037   4.684   2.202  0.2396 -0.0658 -0.4754
   27MOL   C32420136   6.867   4.557   2.033  0.1590  0.1493 -0.5277
   27MOL   C32520137   6.790   4.497   1.929  0.6347  0.0163 -0.3268
   27MOL   H32620138   6.421   4.542   1.245 -1.4103  1.1332 -2.6201
   27MOL   H32720139   6.315   4.639   1.335 -0.0401 -0.6539  0.8644
   27MOL   H32820140   6.381   4.850   1.248 -2.5983 -0.4577  0.2305
   27MOL   H32920141   6.338   4.753   1.104  0.2924  0.0687  0.3900
   27MOL   H33020142   6.582   4.724   1.064  0.1160  0.2147 -0.5505
   27MOL   H33120143   6.476   5.001   1.106 -3.0005 -1.5366 -1.6794
   27MOL   H33220144   6.476   4.920   0.955  1.6218  0.4872 -0.6273
   27MOL   H33320145   6.639   4.909   1.303  0.6687  0.0334  0.1615
   27MOL   H33420146   6.745   4.830   1.197  1.2316 -0.3383  1.6062
   27MOL   H33520147   6.685   4.605   1.281  1.1707 -0.4596  2.4285
   27MOL   H33620148   6.723   4.707   1.415  0.1298 -0.1715 -0.5380
   27MOL   H33720149   6.479   4.755   1.459 -1.1395  1.8664 -2.7895
   27MOL   H33820150   6.587   4.466   1.460 -1.8555 -1.0188 -0.3060
   27MOL   H33920151   6.439   4.519   1.551 -0.3088  0.5318 -0.4463
   27MOL   H34020152   6.737   4.779   1.735  0.5625  0.7178  0.2987
   27MOL   H34120153   6.885   4.876   1.906  2.0097 -0.7597  0.4226
   27MOL   H34220154   6.904   4.492   2.111 -1.7190  1.6690  1.7025
   27MOL   H34320155   6.787   4.389   1.923 -0.1824  0.0106  0.1477
   27MOL   C34420156   7.040   4.913   2.594 -0.2846 -0.2734 -0.5571
   27MOL   C34520157   7.046   4.858   2.450  0.1679 -0.1876 -0.0659
   27MOL   C34620158   7.154   4.755   2.418  0.2807  0.6344 -0.3468
   27MOL   C34720159   7.163   4.722   2.265  0.7838 -1.1510  0.2788
   27MOL   C34820160   7.296   4.796   2.468  0.5834  0.4395 -0.3438
   27MOL   C34920161   7.281   4.818   2.620 -0.2562  0.4464 -0.1166
   27MOL   C35020162   7.186   4.941   2.639  0.1114 -0.4101  0.3991
   27MOL   C35120163   7.191   4.986   2.779  0.0900  0.1382  0.6537
   27MOL   O35220164   7.112   5.096   2.811  0.6424 -0.0019  0.0510
   27MOL   C35320165   7.127   5.219   2.763  0.2137 -0.4732 -1.2243
   27MOL   O35420166   7.199   5.254   2.672 -0.1870 -0.9445 -0.1927
   27MOL   C35520167   7.053   5.321   2.840  0.2929  0.1808  0.0137
   27MOL   C35620168   6.956   5.285   2.938 -0.1050  0.1345  0.3320
   27MOL   C35720169   6.898   5.385   3.022 -0.6902 -0.0482 -0.4647
   27MOL   C35820170   6.940   5.520   3.007 -0.2905 -0.2359 -0.3551
   27MOL   C35920171   6.875   5.624   3.090  0.2318  0.2873  0.8357
   27MOL   O36020172   6.803   5.586   3.186  0.0504 -0.3301  0.3835
   27MOL   O36120173   6.903   5.755   3.063 -0.3586  0.0990 -0.1251
   27MOL   C36220174   7.024   5.552   2.903 -0.0430 -0.4666  0.2417
   27MOL   C36320175   7.076   5.458   2.810 -0.0350 -0.4955 -0.1965
   27MOL   H36420176   6.986   4.840   2.655 -0.6164  0.6808  0.2969
   27MOL   H36520177   6.978   5.001   2.609 -0.9290 -0.7029 -0.6935
   27MOL   H36620178   7.056   4.946   2.388 -0.7954 -0.4231 -0.5634
   27MOL   H36720179   6.951   4.810   2.427 -0.4024  1.0080 -0.1945
   27MOL   H36820180   7.127   4.659   2.463 -0.6470  1.3644  0.6615
   27MOL   H36920181   7.214   4.630   2.236 -0.6001 -1.5455 -0.9589
   27MOL   H37020182   7.217   4.800   2.212 -1.1314  1.1790  1.6646
   27MOL   H37120183   7.336   4.891   2.431 -1.2761  1.7465  0.9253
   27MOL   H37220184   7.365   4.714   2.447  0.2656  0.1950 -0.4456
   27MOL   H37320185   7.243   4.737   2.683 -2.9382  2.2701  0.7296
   27MOL   H37420186   7.379   4.844   2.661  0.3530 -0.5285 -0.9530
   27MOL   H37520187   7.227   5.016   2.571 -1.2078 -2.8533 -3.2307
   27MOL   H37620188   7.295   5.008   2.801  0.3836  1.4804 -1.9644
   27MOL   H37720189   7.154   4.913   2.851 -0.1890 -0.6032 -0.2281
   27MOL   H37820190   6.925   5.182   2.949 -0.5157  0.1214 -0.8650
   27MOL   H37920191   6.830   5.353   3.099  0.0452 -1.5806 -0.4342
   27MOL   H38020192   7.047   5.658   2.896 -2.1222  0.0172  0.1666
   27MOL   H38120193   7.147   5.491   2.736 -0.1435  0.0465 -0.0623
   27MOL   C38220194   6.532   5.972   3.030 -0.0519 -0.0093 -0.5220
   27MOL   C38320195   6.638   5.869   3.077 -0.0709  0.5266 -0.2947
   27MOL   C38420196   6.764   5.945   3.106  0.0415  0.1604  0.6522
   27MOL   C38520197   6.876   5.853   3.162  0.0112  0.0435 -0.1596
   27MOL   C38620198   6.814   6.015   2.974  0.2780 -0.6028 -0.2593
   27MOL   C38720199   6.707   6.115   2.927 -0.9053 -1.4360  0.1035
   27MOL   C38820200   6.573   6.049   2.896 -0.3919  0.2864 -0.0755
   27MOL   C38920201   6.468   6.159   2.871 -0.1550 -0.3507 -0.3432
   27MOL   O39020202   6.336   6.101   2.876 -0.1088  0.2666 -0.0285
   27MOL   C39120203   6.237   6.145   2.969 -0.8074 -0.7822  0.4220
   27MOL   O39220204   6.249   6.242   3.048  0.7628  0.3677 -0.4818
   27MOL   C39320205   6.117   6.058   2.974 -0.3054 -0.4399 -0.2642
   27MOL   C39420206   6.018   6.086   3.077 -0.3166 -0.4214  0.0623
   27MOL   C39520207   5.909   6.000   3.089 -0.4532 -1.1399  0.0212
   27MOL   C39620208   5.886   5.904   2.991  0.0048  0.0273  0.0562
   27MOL   C39720209   5.765   5.820   3.005 -1.4779 -0.3330  0.2390
   27MOL   O39820210   5.739   5.733   2.920 -0.0819  0.2441 -0.4037
   27MOL   O39920211   5.699   5.830   3.119  0.4314  0.2243 -0.2065
   27MOL   C40020212   5.972   5.882   2.881  0.5387 -0.4561 -0.0197
   27MOL   C40120213   6.096   5.960   2.879  0.1811 -0.3845 -0.0267
   27MOL   H40220214   6.503   6.043   3.108 -0.3343  0.6613 -1.2309
   27MOL   H40320215   6.448   5.906   3.009 -0.3798 -0.8397  2.9915
   27MOL   H40420216   6.661   5.790   3.005 -0.1661 -0.7281  1.0409
   27MOL   H40520217   6.605   5.813   3.164  0.1438  1.6879  0.5415
   27MOL   H40620218   6.735   6.024   3.175 -0.3674  0.0844  0.5690
   27MOL   H40720219   6.842   5.806   3.255 -0.8041 -0.1946 -0.5676
   27MOL   H40820220   6.972   5.902   3.174 -1.0696  2.2657 -0.4145
   27MOL   H40920221   6.837   5.939   2.900 -0.4738  1.0063 -2.1987
   27MOL   H41020222   6.907   6.068   2.996 -0.8400  0.7429  1.4045
   27MOL   H41120223   6.697   6.183   3.011 -0.4673 -0.8201 -0.3469
   27MOL   H41220224   6.747   6.170   2.842  0.8663 -1.9438  0.5963
   27MOL   H41320225   6.582   5.997   2.801 -1.7197  1.2560 -0.7493
   27MOL   H41420226   6.466   6.204   2.772  1.6932  2.4903  0.8733
   27MOL   H41520227   6.464   6.244   2.939 -4.5183  1.8440 -3.0770
   27MOL   H41620228   6.029   6.162   3.153 -1.3433 -0.8074  0.5999
   27MOL   H41720229   5.831   6.019   3.161 -0.7898 -1.5615 -0.2335
   27MOL   H41820230   5.947   5.804   2.812 -3.5021  2.6025 -2.2324
   27MOL   H41920231   6.173   5.948   2.804 -0.7059  0.6431 -1.1204
   27MOL   C42020232   5.372   5.973   3.347  0.1881  0.0279 -0.2497
   27MOL   C42120233   5.474   5.929   3.243  0.5603 -0.5218  0.4200
   27MOL   C42220234   5.525   5.785   3.279 -0.0481 -0.1427 -0.0859
   27MOL   C42320235   5.599   5.739   3.153 -0.5191  0.5284 -0.6816
   27MOL   C42420236   5.593   5.792   3.408 -0.4236  0.3532 -0.1286
   27MOL   C42520237   5.499   5.838   3.521 -0.5275 -0.4447 -0.1675
   27MOL   C42620238   5.434   5.974   3.490 -0.3604 -1.0346  0.3195
   27MOL   C42720239   5.340   6.005   3.605 -0.1609  0.0932 -0.0360
   27MOL   O42820240   5.277   6.129   3.582 -0.0820  0.2017  0.1634
   27MOL   C42920241   5.293   6.239   3.661 -0.1608 -0.5969 -0.0806
   27MOL   O43020242   5.367   6.241   3.758 -0.2006 -0.4845  0.5319
   27MOL   C43120243   5.211   6.349   3.617 -0.2582 -0.4219 -0.4063
   27MOL   C43220244   5.120   6.339   3.509  0.2613  0.1507 -0.4494
   27MOL   C43320245   5.024   6.443   3.480  0.5476  0.0939  0.2469
   27MOL   C43420246   5.019   6.556   3.561 -0.2706  0.5603 -0.3844
   27MOL   C43520247   4.924   6.659   3.517 -0.0115  0.7857  0.0994
   27MOL   O43620248   4.823   6.629   3.445  0.0931  0.1793 -0.5316
   27MOL   O43720249   4.949   6.792   3.564  0.2968 -0.8045  0.2762
   27MOL   C43820250   5.116   6.570   3.660 -0.2165 -0.6312  0.4644
   27MOL   C43920251   5.213   6.466   3.692 -0.7094 -0.3067  0.0304
   27MOL   H44020252   5.283   5.910   3.346  0.3898 -0.3000  0.9426
   27MOL   H44120253   5.341   6.073   3.317  1.3040  0.1640 -0.9578
   27MOL   H44220254   5.563   5.991   3.253  1.0289 -0.6991 -2.1599
   27MOL   H44320255   5.433   5.941   3.142  3.4922  3.8158 -0.3770
   27MOL   H44420256   5.449   5.710   3.299  0.7892 -0.4844  1.9346
   27MOL   H44520257   5.543   5.720   3.062  1.8556 -2.3642 -1.6057
   27MOL   H44620258   5.641   5.644   3.184 -1.1409  0.8148  1.1190
   27MOL   H44720259   5.685   5.850   3.406  0.1927 -0.6482 -1.9341
   27MOL   H44820260   5.639   5.694   3.424  1.3746  0.9674 -1.3367
   27MOL   H44920261   5.417   5.767   3.529 -0.5220 -0.4939 -0.5260
   27MOL   H45020262   5.560   5.840   3.611  0.6278 -0.2802 -0.9354
   27MOL   H45120263   5.510   6.051   3.504 -1.9748  0.7958 -0.5147
   27MOL   H45220264   5.404   6.017   3.692  1.6226  0.2926 -1.3503
   27MOL   H45320265   5.271   5.923   3.627  0.0115  0.2915  1.3168
   27MOL   H45420266   5.113   6.254   3.443 -0.6195 -1.6583  1.9054
   27MOL   H45520267   4.963   6.434   3.392  1.5225 -0.3633 -0.3937
   27MOL   H45620268   5.111   6.657   3.724 -1.2678 -0.8997  0.7676
   27MOL   H45720269   5.287   6.481   3.769 -2.0158 -1.9669  1.6624
   27MOL   C45820270   5.056   7.097   3.216  0.4687 -0.5169  0.2153
   27MOL   C45920271   5.016   7.060   3.357  0.0932  1.0225 -0.7344
   27MOL   C46020272   4.923   6.935   3.356  0.1478 -0.2064 -0.1854
   27MOL   C46120273   4.876   6.902   3.498  0.5802  0.0071 -0.5340
   27MOL   C46220274   4.799   6.974   3.269 -0.7109  0.1990  0.6827
   27MOL   C46320275   4.834   6.998   3.118 -0.3383  0.4387 -1.2081
   27MOL   C46420276   4.940   7.106   3.115 -0.1009 -0.0728 -0.7492
   27MOL   C46520277   4.998   7.124   2.980 -0.1666 -0.4695  1.0034
   27MOL   O46620278   4.915   7.189   2.885 -0.0120  0.0226  0.5923
   27MOL   C46720279   4.930   7.180   2.749  0.0153 -0.4418 -0.3110
   27MOL   O46820280   5.015   7.121   2.680  0.1726  0.1823  0.0365
   27MOL   C46920281   4.822   7.258   2.678 -0.0216 -0.5762 -0.4685
   27MOL   C47020282   4.830   7.266   2.541 -0.4089 -0.0537  0.0856
   27MOL   C47120283   4.745   7.347   2.465 -0.1108  0.2761 -0.1150
   27MOL   C47220284   4.634   7.414   2.522  0.5227 -0.3866 -0.2732
   27MOL   C47320285   4.541   7.502   2.446  0.1937  0.5019 -0.4237
   27MOL   O47420286   4.445   7.555   2.499  0.2297 -0.0578 -0.0818
   27MOL   O47520287   4.576   7.513   2.321 -0.2010  0.5888  0.0757
   27MOL   C47620288   4.622   7.409   2.663  0.3919  0.3743  0.3068
   27MOL   C47720289   4.710   7.325   2.737  0.6560  0.3160  0.1529
   27MOL   H47820290   5.122   7.014   3.192  1.9113  0.7568 -0.2848
   27MOL   H47920291   5.112   7.190   3.220  0.2546 -0.4812  3.9536
   27MOL   H48020292   4.952   7.134   3.406  1.5447  2.2828 -0.7098
   27MOL   H48120293   5.102   7.041   3.421  0.0557 -0.6936 -1.1783
   27MOL   H48220294   4.970   6.843   3.319  0.6788  0.2640 -0.6862
   27MOL   H48320295   4.770   6.874   3.500  0.7733 -0.6917  0.2308
   27MOL   H48420296   4.889   6.995   3.555 -0.3690  1.2153 -2.2341
   27MOL   H48520297   4.744   7.055   3.317 -2.2298  1.4485 -2.9935
   27MOL   H48620298   4.733   6.887   3.267 -0.2060 -0.1801  0.5248
   27MOL   H48720299   4.878   6.908   3.074  0.3108 -0.0735  0.4629
   27MOL   H48820300   4.745   7.034   3.066 -2.1604 -0.3159  1.2932
   27MOL   H48920301   4.889   7.200   3.138  1.3096  0.4439  0.3531
   27MOL   H49020302   5.022   7.028   2.934 -1.7438  0.5971 -2.2113
   27MOL   H49120303   5.093   7.173   2.999 -0.6833  0.7029  0.6390
   27MOL   H49220304   4.912   7.222   2.486 -0.6754  0.7013 -0.9574
   27MOL   H49320305   4.763   7.364   2.359  2.9682 -0.4374  0.2651
   27MOL   H49420306   4.543   7.450   2.724  0.3561  1.0199 -0.1757
   27MOL   H49520307   4.691   7.323   2.843 -2.1135 -1.1721 -0.3252
   27MOL   C49620308   4.665   7.450   1.899 -0.4368 -0.0088  0.0601
   27MOL   C49720309   4.581   7.453   2.034 -0.1158  0.1274  0.2652
   27MOL   C49820310   4.547   7.591   2.088 -0.2907  0.1386  0.2092
   27MOL   C49920311   4.489   7.582   2.236 -0.2185 -0.1723  0.0077
   27MOL   C50020312   4.674   7.687   2.084 -0.0384 -0.0681  0.0992
   27MOL   C50120313   4.734   7.694   1.941  0.4164 -0.3438 -0.5276
   27MOL   C50220314   4.784   7.551   1.902 -0.2974 -0.4937  1.0082
   27MOL   C50320315   4.854   7.545   1.766 -0.3499  0.9385 -0.1208
   27MOL   O50420316   4.945   7.658   1.758 -0.3911  0.0791  1.1759
   27MOL   C50520317   5.043   7.650   1.668 -0.3571 -0.6774 -0.1011
   27MOL   O50620318   5.062   7.559   1.593 -0.1049 -0.0670 -0.0081
   27MOL   C50720319   5.126   7.774   1.668  0.3233  0.4138 -0.3829
   27MOL   C50820320   5.251   7.776   1.590  0.1208 -1.3137 -1.0567
   27MOL   C50920321   5.328   7.894   1.583 -0.1635 -0.3315 -0.1964
   27MOL   C51020322   5.290   8.005   1.661 -0.7200 -0.0853 -0.3633
   27MOL   C51120323   5.378   0.091   1.655  0.4078 -0.5152 -0.3654
   27MOL   O51220324   5.449   0.126   1.565 -0.1205  0.1750 -0.1146
   27MOL   O51320325   5.371   0.169   1.771 -0.4085  0.2274 -0.5632
   27MOL   C51420326   5.179   8.003   1.742  0.1204  0.2409 -0.3676
   27MOL   C51520327   5.096   7.886   1.745  0.2502 -0.1059 -0.5619
   27MOL   H51620328   4.594   7.485   1.825 -0.6634  1.1023  0.7760
   27MOL   H51720329   4.695   7.349   1.872 -0.1240  0.3469 -0.9460
   27MOL   H51820330   4.633   7.399   2.113  0.6876 -1.1590 -1.1313
   27MOL   H51920331   4.486   7.401   2.022 -1.0750  1.8940  0.0537
   27MOL   H52020332   4.464   7.627   2.028  1.1447  1.5343 -0.9689
   27MOL   H52120333   4.391   7.535   2.235  0.3988 -1.4786  0.2490
   27MOL   H52220334   4.479   7.681   2.282 -2.6241  0.2447 -1.3089
   27MOL   H52320335   4.747   7.643   2.152 -0.6127 -1.5625 -0.2178
   27MOL   H52420336   4.643   7.788   2.108  1.5796 -0.1831  2.8703
   27MOL   H52520337   4.654   7.728   1.875  0.3176 -0.3208 -0.3989
   27MOL   H52620338   4.820   7.761   1.935  1.2834 -1.3239  0.6872
   27MOL   H52720339   4.857   7.523   1.978 -0.2257  0.6811  1.3676
   27MOL   H52820340   4.783   7.552   1.684 -0.2989  0.1322 -0.2362
   27MOL   H52920341   4.903   7.448   1.775  1.9918  2.1305  0.3909
   27MOL   H53020342   5.302   7.693   1.544 -0.1565 -1.2410 -1.5028
   27MOL   H53120343   5.429   7.891   1.545  0.5673  0.6734  1.5903
   27MOL   H53220344   5.155   0.058   1.801  1.0378  2.0888 -2.6727
   27MOL   H53320345   5.020   7.880   1.822 -0.4415  1.6961 -1.0899
   27MOL   C53420346   5.733   0.161   2.028 -0.2419 -0.4266 -0.2722
   27MOL   C53520347   5.592   0.196   1.982  0.1888  0.6110  0.8442
   27MOL   C53620348   5.593   0.266   1.832 -0.3234 -0.1182 -0.3830
   27MOL   C53720349   5.446   0.283   1.776 -0.1505 -0.1692  0.2084
   27MOL   C53820350   5.674   0.397   1.848 -0.7750  0.0807  0.3998
   27MOL   C53920351   5.814   0.374   1.907  0.1744 -0.4856  0.6987
   27MOL   C54020352   5.817   0.289   2.034  0.1990 -0.4151 -0.9324
   27MOL   C54120353   5.962   0.266   2.083 -0.5584 -0.1664 -0.1767
   27MOL   O54220354   6.042   0.185   1.988 -0.3012  0.7714  0.2185
   27MOL   C54320355   6.159   0.129   2.021 -0.2873  0.2074  0.0296
   27MOL   O54420356   6.205   0.121   2.137 -0.1682 -0.2006  0.3429
   27MOL   C54520357   6.233   0.074   1.898 -0.1857 -0.8585  0.3413
   27MOL   C54620358   6.351   8.031   1.912  0.3388  0.3113 -0.9961
   27MOL   C54720359   6.420   7.978   1.803 -0.6872 -0.0330  0.1714
   27MOL   C54820360   6.377   8.002   1.672 -0.2978 -0.2222  0.2981
   27MOL   C54920361   6.447   7.940   1.563 -0.2280  0.2062  0.1373
   27MOL   O55020362   6.539   7.859   1.575  0.1421 -0.2163  1.3380
   27MOL   O55120363   6.387   7.967   1.447 -0.2489  0.6180 -0.5152
   27MOL   C55220364   6.268   0.057   1.656 -0.0780  0.9533 -1.2853
   27MOL   C55320365   6.193   0.102   1.769  0.1113 -0.2721 -0.0171
   27MOL   H55420366   5.769   0.092   1.952 -0.6985  0.1464 -1.0224
   27MOL   H55520367   5.733   0.122   2.130 -0.2705 -1.4011 -0.6400
   27MOL   H55620368   5.548   0.262   2.057 -1.5067  1.7528 -1.0987
   27MOL   H55720369   5.534   0.103   1.977  0.5167  0.3570  1.6895
   27MOL   H55820370   5.636   0.194   1.764 -4.2880 -1.0653 -2.0309
   27MOL   H55920371   5.445   0.334   1.679 -0.2684 -1.4234 -0.4676
   27MOL   H56020372   5.391   0.351   1.840 -0.2146  0.8821 -0.9344
   27MOL   H56120373   5.616   0.467   1.909  0.9892 -0.0039  2.2179
   27MOL   H56220374   5.681   0.445   1.751 -0.8241 -1.6880 -0.4982
   27MOL   H56320375   5.888   0.331   1.839  0.3721 -0.1475  0.6947
   27MOL   H56420376   5.862   0.469   1.930 -1.3535  0.5999 -0.4410
   27MOL   H56520377   5.768   0.351   2.110 -1.6484 -0.9948 -1.6219
   27MOL   H56620378   5.955   0.223   2.183  0.9538  0.5101  0.2288
   27MOL   H56720379   6.013   0.361   2.090 -1.7392  0.3998  0.9925
   27MOL   H56820380   6.385   8.002   2.010 -0.2233 -1.3608 -1.2880
   27MOL   H56920381   6.505   7.916   1.825 -0.1585  0.4892 -0.3732
   27MOL   H57020382   6.239   0.085   1.556 -3.7323 -2.1015 -1.1999
   27MOL   H57120383   6.110   0.167   1.743  0.6763 -0.5920 -2.8486
   27MOL   C57220384   6.225   0.092   1.062  0.2155  0.8253 -0.0340
   27MOL   C57320385   6.299   0.068   1.195  1.0683  0.4647  0.1201
   27MOL   C57420386   6.352   7.957   1.204 -0.3217 -0.3652 -0.2702
   27MOL   C57520387   6.452   7.933   1.328 -0.2980 -0.1595 -0.0035
   27MOL   C57620388   6.230   7.856   1.197  0.8076 -0.1812  0.5176
   27MOL   C57720389   6.157   7.877   1.072  0.5486 -0.6791  0.6462
   27MOL   C57820390   6.107   8.018   1.047  0.5100 -0.4898 -0.3745
   27MOL   C57920391   6.043   0.012   0.907 -0.1952  0.2912 -0.4858
   27MOL   O58020392   5.932   7.962   0.899 -0.4802  0.2911 -0.2274
   27MOL   C58120393   5.817   8.018   0.872  0.0818 -0.0189 -0.6144
   27MOL   O58220394   5.802   0.104   0.834 -0.7180 -0.0467  0.3221
   27MOL   C58320395   5.700   7.928   0.880 -0.1650 -0.3406  0.0315
   27MOL   C58420396   5.721   7.788   0.863 -0.0375  0.3869 -0.8405
   27MOL   C58520397   5.608   7.706   0.845 -0.0057  0.8733  0.0609
   27MOL   C58620398   5.477   7.762   0.850  0.4150 -0.0481  0.1009
   27MOL   C58720399   5.355   7.669   0.846 -0.3986  0.1349 -0.4440
   27MOL   O58820400   5.365   7.551   0.815 -0.1242 -0.3612 -0.3996
   27MOL   O58920401   5.243   7.731   0.857 -0.9650 -0.2944  0.3738
   27MOL   C59020402   5.456   7.900   0.877 -0.2721  0.3420  0.1976
   27MOL   C59120403   5.572   7.976   0.896  0.5403 -0.7850  0.1970
   27MOL   H59220404   6.294   0.078   0.978 -0.8850  0.1613 -0.8437
   27MOL   H59320405   6.194   0.196   1.056  1.0152  1.0669 -0.0120
   27MOL   H59420406   6.235   0.078   1.283  1.9776  3.1160  0.5287
   27MOL   H59520407   6.386   0.135   1.195  1.4001  0.0359  0.1815
   27MOL   H59620408   6.424   7.935   1.126  0.2562 -1.4923  0.5627
   27MOL   H59720409   6.541   7.996   1.317 -0.1589 -0.0924  1.4373
   27MOL   H59820410   6.493   7.832   1.337 -0.3647 -0.1001  0.9445
   27MOL   H59920411   6.173   7.880   1.286  3.1391  1.7421  1.5646
   27MOL   H60020412   6.262   7.752   1.192  0.3974 -0.2211 -1.9816
   27MOL   H60120413   6.221   7.855   0.986 -0.1495  1.2604 -0.4015
   27MOL   H60220414   6.088   7.797   1.046  2.6768 -2.5143  0.5126
   27MOL   H60320415   6.033   0.017   1.120  0.5473  0.0524 -0.5694
   27MOL   H60420416   6.098   8.018   0.817 -2.8078 -1.5362 -1.5901
   27MOL   H60520417   6.009   0.116   0.896 -0.7725  0.2017  0.3802
   27MOL   H60620418   5.819   7.747   0.846 -0.3475 -0.1296 -1.4166
   27MOL   H60720419   5.614   7.604   0.808 -0.7220  0.8190  0.0907
   27MOL   H60820420   5.360   7.946   0.897 -0.0308  0.6125  0.7307
   27MOL   H60920421   5.562   0.051   0.905  0.5801 -0.9343  2.4078
   27MOL   C61020422   5.029   7.702   0.473 -0.1689  0.8696  0.5658
   27MOL   C61120423   5.123   7.693   0.588 -0.0661 -0.3527 -0.0649
   27MOL   C61220424   5.040   7.699   0.718  0.3034 -0.3309 -0.3433
   27MOL   C61320425   5.123   7.656   0.837  0.3545  0.2747  0.2849
   27MOL   C61420426   4.975   7.839   0.735 -0.8825  0.4874 -0.5654
   27MOL   C61520427   4.882   7.857   0.614 -0.0306  0.5421 -1.4710
   27MOL   C61620428   4.945   7.829   0.479  0.9571  0.0895 -0.0116
   27MOL   C61720429   4.848   7.835   0.363  0.0700 -0.2711  0.1783
   27MOL   O61820430   4.736   7.741   0.371 -0.5297  0.3097  0.0263
   27MOL   C61920431   4.630   7.765   0.293 -0.0521  0.8111  0.6558
   27MOL   O62020432   4.621   7.865   0.221  0.0017  0.5061 -0.4714
   27MOL   C62120433   4.517   7.669   0.309 -0.1384  0.0593 -0.4828
   27MOL   C62220434   4.389   7.707   0.266 -0.8996  0.5374 -0.5223
   27MOL   C62320435   4.282   7.617   0.277  0.1606  0.1769  0.2325
   27MOL   C62420436   4.304   7.480   0.314 -0.2058  0.1202  0.0912
   27MOL   C62520437   4.186   7.386   0.317 -0.0501  0.3590  0.2897
   27MOL   O62620438   4.073   7.428   0.284 -0.3783  0.6031  0.1195
   27MOL   O62720439   4.213   7.258   0.357  0.3362 -0.2742 -0.8987
   27MOL   C62820440   4.434   7.440   0.345 -0.0875 -0.0444 -0.6083
   27MOL   C62920441   4.539   7.535   0.359  0.4920  0.0604 -0.1568
   27MOL   H63020442   4.970   7.611   0.460  1.6509 -0.2549 -0.0318
   27MOL   H63120443   5.080   7.705   0.376 -0.5405  2.3114  0.4065
   27MOL   H63220444   5.199   7.771   0.588 -0.1420 -0.2803 -0.1747
   27MOL   H63320445   5.183   7.603   0.576 -1.8320 -1.1971 -2.8983
   27MOL   H63420446   4.961   7.625   0.711  0.2319 -0.2780 -0.0752
   27MOL   H63520447   5.137   7.550   0.816 -1.9199 -0.1611  0.8314
   27MOL   H63620448   5.062   7.660   0.927  0.6667 -2.8980  0.7048
   27MOL   H63720449   5.039   7.924   0.758  0.8669 -1.0465  0.3047
   27MOL   H63820450   4.907   7.847   0.821  0.0081  0.3562  0.1511
   27MOL   H63920451   4.801   7.785   0.623  1.6313 -1.2830 -0.6501
   27MOL   H64020452   4.824   7.949   0.623  0.3740  0.6480  0.2201
   27MOL   H64120453   5.020   7.907   0.471  2.6617 -1.5219 -0.2098
   27MOL   H64220454   4.885   7.807   0.265  0.1085 -2.4885  0.7970
   27MOL   H64320455   4.816   7.938   0.346  1.3557 -0.1977 -1.9325
   27MOL   H64420456   4.373   7.805   0.225  0.1223  1.4906  1.2798
   27MOL   H64520457   4.185   7.651   0.242 -0.0646  1.1052  1.7344
   27MOL   H64620458   4.453   7.337   0.374 -1.2971  0.0578  0.5809
   27MOL   H64720459   4.641   7.519   0.392  0.3658 -1.4118 -0.4778
   27MOL   C64820460   4.118   6.785   0.445  0.4418 -0.7193 -0.5738
   27MOL   C64920461   4.071   6.909   0.370 -0.1096 -0.0014 -0.3162
   27MOL   C65020462   4.169   7.028   0.397 -0.5176 -0.0965 -0.4031
   27MOL   C65120463   4.121   7.161   0.336 -0.2769 -0.6339 -0.5583
   27MOL   C65220464   4.202   7.044   0.546 -0.4311 -0.1083  0.0624
   27MOL   C65320465   4.233   6.912   0.608 -0.3035  0.7157 -0.2757
   27MOL   C65420466   4.124   6.810   0.596 -0.2325 -0.3740 -0.6939
   27MOL   C65520467   4.141   6.686   0.683  0.5563  0.5386  0.1190
   27MOL   O65620468   4.148   6.715   0.817 -0.0682 -0.1102  0.1468
   27MOL   C65720469   4.260   6.694   0.879  0.0019  0.2479  0.2283
   27MOL   O65820470   4.357   6.632   0.839  0.1931 -0.4888 -0.4101
   27MOL   C65920471   4.257   6.740   1.021 -0.2243  0.5071 -0.5630
   27MOL   C66020472   4.137   6.789   1.084  0.2751  0.3978  0.2379
   27MOL   C66120473   4.136   6.818   1.218  0.1124 -0.2350 -0.1800
   27MOL   C66220474   4.256   6.810   1.295 -0.4291 -0.6303 -0.4872
   27MOL   C66320475   4.263   6.841   1.442  0.2611  0.4574  0.9991
   27MOL   O66420476   4.357   6.831   1.513  0.5261 -0.1529  0.5488
   27MOL   O66520477   4.137   6.863   1.491 -0.1735 -0.4363  0.5589
   27MOL   C66620478   4.373   6.764   1.239 -0.8669  0.0145 -0.0680
   27MOL   C66720479   4.370   6.729   1.099  0.0004  0.1416  0.9999
   27MOL   H66820480   4.209   6.745   0.402 -1.1412 -0.0910 -4.8016
   27MOL   H66920481   4.041   6.708   0.441 -1.3093  0.8972  1.1069
   27MOL   H67020482   3.974   6.941   0.409 -0.0128 -0.0110 -0.0698
   27MOL   H67120483   4.065   6.883   0.264 -0.7965  0.4505 -0.3889
   27MOL   H67220484   4.271   7.012   0.363  0.4541  2.6579  1.1022
   27MOL   H67320485   4.025   7.180   0.385  1.5842  1.7386  2.3090
   27MOL   H67420486   4.098   7.153   0.229 -3.2103 -0.3808  0.0049
   27MOL   H67520487   4.118   7.094   0.595  0.9045  0.8077  1.4737
   27MOL   H67620488   4.287   7.110   0.561 -0.4939 -0.5628  2.7845
   27MOL   H67720489   4.324   6.881   0.556 -1.0655 -0.7982 -0.7529
   27MOL   H67820490   4.257   6.919   0.714 -1.6105 -0.5599  0.1245
   27MOL   H67920491   4.032   6.858   0.629  0.1136 -1.6143  2.2064
   27MOL   H68020492   4.220   6.617   0.651 -0.4746 -0.6551  0.1097
   27MOL   H68120493   4.047   6.635   0.660  1.9361 -1.8871 -0.3378
   27MOL   H68220494   4.049   6.799   1.023 -1.2001  0.1650  2.2790
   27MOL   H68320495   4.042   6.842   1.265 -0.2275 -0.3439 -0.7952
   27MOL   H68420496   4.462   6.758   1.300 -0.1681 -1.4101 -1.2092
   27MOL   H68520497   4.457   6.686   1.051 -1.7644 -0.8576 -1.4147
   27MOL   C68620498   3.810   6.976   1.857 -0.0150 -0.1320 -0.0767
   27MOL   C68720499   3.947   6.968   1.797  0.0482 -0.4357  0.5573
   27MOL   C68820500   3.970   6.903   1.663 -0.6299 -0.3128  0.2074
   27MOL   C68920501   4.121   6.892   1.631 -0.5105  0.0852 -0.1288
   27MOL   C69020502   3.895   6.768   1.650  0.9818 -0.0624 -0.4346
   27MOL   C69120503   3.750   6.780   1.701  0.1619  0.2094 -0.3611
   27MOL   C69220504   3.741   6.837   1.842  0.1461  0.7364  0.2161
   27MOL   C69320505   3.591   6.850   1.877  0.8345 -0.8982  0.3892
   27MOL   O69420506   3.521   6.922   1.771  0.2653 -0.2731 -0.0485
   27MOL   C69520507   3.386   6.930   1.760 -0.3751  0.2196  0.3382
   27MOL   O69620508   3.310   6.907   1.854 -0.4819 -0.0871 -0.3336
   27MOL   C69720509   3.346   6.965   1.620 -0.0296 -0.7381 -0.1473
   27MOL   C69820510   3.216   6.997   1.578 -0.3020 -0.1746 -0.6570
   27MOL   C69920511   3.193   7.045   1.453  0.4330 -0.2856 -0.0879
   27MOL   C70020512   3.292   7.053   1.354  0.4804  0.4766 -0.0899
   27MOL   C70120513   3.259   7.098   1.224 -0.4246  0.8331  0.1592
   27MOL   O70220514   3.158   7.166   1.204 -0.2082  0.3546 -0.1376
   27MOL   O70320515   3.345   7.059   1.125  0.5269  0.5976  0.4101
   27MOL   C70420516   3.424   7.020   1.388 -0.0542 -0.3924  0.4850
   27MOL   C70520517   3.447   6.988   1.520  0.2960 -0.1203 -0.6941
   27MOL   H70620518   3.752   7.052   1.804  2.4930  0.7592 -1.6603
   27MOL   H70720519   3.815   7.023   1.956 -0.9254  0.2842 -0.2251
   27MOL   H70820520   4.014   6.918   1.866  1.2359  0.7714  0.3032
   27MOL   H70920521   3.992   7.067   1.789 -1.0160  0.0985  1.0036
   27MOL   H71020522   3.916   6.965   1.591 -2.1543 -0.6735  1.0153
   27MOL   H71120523   4.169   6.815   1.691 -2.4898 -1.3218 -0.3131
   27MOL   H71220524   4.163   6.991   1.647  1.1372 -0.6978  0.4998
   27MOL   H71320525   3.941   6.702   1.724  0.3735  0.7154  0.6399
   27MOL   H71420526   3.910   6.749   1.544 -0.1251  2.9908 -1.1993
   27MOL   H71520527   3.691   6.842   1.633  0.7148 -1.1354 -2.0852
   27MOL   H71620528   3.700   6.685   1.682 -1.6953  1.5009 -2.1686
   27MOL   H71720529   3.795   6.762   1.899  0.1910  1.6593  1.4114
   27MOL   H71820530   3.600   6.912   1.967  2.8996 -2.4475  1.2987
   27MOL   H71920531   3.534   6.759   1.895  0.7289 -0.9584 -0.2543
   27MOL   H72020532   3.151   6.995   1.664 -1.9277 -0.2635 -1.8775
   27MOL   H72120533   3.095   7.078   1.423  1.1558  1.4873 -0.5834
   27MOL   H72220534   3.513   7.013   1.328  0.7487 -0.4768  1.6841
   27MOL   H72320535   3.550   6.982   1.552  0.9372  1.5169 -2.3404
   27MOL   C72420536   3.422   7.407   0.846  0.8138  0.1335  0.4378
   27MOL   C72520537   3.358   7.300   0.936 -0.2915  0.2012  0.2947
   27MOL   C72620538   3.372   7.156   0.893  0.9064  0.0884 -0.3081
   27MOL   C72720539   3.297   7.062   0.990 -0.5390  0.2316  0.0906
   27MOL   C72820540   3.328   7.140   0.751  0.2602 -0.5900 -0.2524
   27MOL   C72920541   3.383   7.248   0.654  0.3256 -0.1300  0.5284
   27MOL   C73020542   3.369   7.389   0.699 -0.1195  0.0684  0.1568
   27MOL   C73120543   3.445   7.494   0.610 -1.0722  0.4306 -0.1665
   27MOL   O73220544   3.431   7.621   0.668  0.0704 -0.2555  0.4516
   27MOL   C73320545   3.328   7.703   0.633 -0.0798  0.3279  0.7230
   27MOL   O73420546   3.241   7.677   0.549 -0.1332  0.0655 -0.3331
   27MOL   C73520547   3.330   7.836   0.697  0.0939 -0.4438  0.0248
   27MOL   C73620548   3.399   7.859   0.821  0.3399 -0.5135 -0.3976
   27MOL   C73720549   3.388   7.982   0.884  0.0389 -0.8001  0.0632
   27MOL   C73820550   3.296   0.053   0.835  0.3046  0.0050  0.9937
   27MOL   C73920551   3.267   0.183   0.904  0.0393 -0.9643  0.4073
   27MOL   O74020552   3.338   0.235   0.990  0.2578  0.3926  0.5306
   27MOL   O74120553   3.163   0.251   0.859  0.5720 -0.1771  0.4050
   27MOL   C74220554   3.228   0.027   0.711 -0.0709  0.7168 -0.2991
   27MOL   C74320555   3.248   7.936   0.639  0.6198 -0.6246 -0.1398
   27MOL   H74420556   3.530   7.397   0.852  0.7228 -0.1686  1.6484
   27MOL   H74520557   3.394   7.503   0.888  0.0305  0.2827 -0.3993
   27MOL   H74620558   3.249   7.310   0.931 -0.1620  2.6571  1.1538
   27MOL   H74720559   3.396   7.313   1.038 -0.5172  2.0189  0.1738
   27MOL   H74820560   3.477   7.125   0.897  0.5024 -1.2880 -0.1062
   27MOL   H74920561   3.311   6.960   0.952  4.6448 -0.0825  2.4533
   27MOL   H75020562   3.193   7.090   0.977 -0.0941  1.3411 -1.2218
   27MOL   H75120563   3.219   7.140   0.746  0.0851  0.1676  2.6122
   27MOL   H75220564   3.354   7.044   0.708  0.5091 -0.4185 -0.4883
   27MOL   H75320565   3.488   7.228   0.632 -0.0666 -0.2669 -1.2932
   27MOL   H75420566   3.329   7.244   0.559 -0.5215 -2.4073  1.0798
   27MOL   H75520567   3.264   7.417   0.699  0.2534  1.6266  2.4734
   27MOL   H75620568   3.405   7.501   0.509 -1.5287 -1.4758 -0.1298
   27MOL   H75720569   3.550   7.467   0.598 -1.1113  1.7730 -4.7103
   27MOL   H75820570   3.465   7.785   0.863  1.0136 -0.3388 -1.1194
   27MOL   H75920571   3.450   8.006   0.969 -1.9968  0.0536  1.3578
   27MOL   H76020572   3.153   0.093   0.671  1.1856  2.0764 -0.4622
   27MOL   H76120573   3.192   7.913   0.550  0.1985  0.5196 -0.1832
   27MOL   H76220574   3.183   0.344   0.856  0.5591 -0.2084 -1.1254
   28MOL     C120575   2.083   2.494   1.321 -0.2705 -0.3170  0.2005
   28MOL     C220576   2.217   2.420   1.340  0.0262 -0.5881 -0.5274
   28MOL     C320577   2.257   2.424   1.489 -0.5089  0.6070  0.2277
   28MOL     C420578   2.388   2.354   1.514 -0.1966  0.0326  0.5495
   28MOL     C520579   2.263   2.566   1.545 -0.2876  1.0387  0.7406
   28MOL     C620580   2.126   2.630   1.529  0.0076 -0.4131  0.1555
   28MOL     C720581   2.087   2.637   1.378 -0.7625 -0.1021  0.0492
   28MOL     C820582   1.952   2.708   1.357 -0.1260 -0.6310  0.2400
   28MOL     O920583   1.958   2.845   1.393  0.9300 -0.6850 -0.1749
   28MOL    C1020584   1.935   2.944   1.305 -0.2342  0.1650 -0.9894
   28MOL    O1120585   1.915   2.925   1.188 -0.0186 -0.1506  0.4809
   28MOL    C1220586   1.953   3.082   1.367  0.2228  0.2662  0.0808
   28MOL    C1320587   1.941   3.188   1.277  0.2497  0.0335 -0.0783
   28MOL    C1420588   1.944   3.324   1.330  0.5235  0.1291 -0.5231
   28MOL    C1520589   1.960   3.345   1.466 -0.3722  0.2214 -0.7203
   28MOL    C1620590   1.995   3.485   1.513  0.0196 -1.0877 -0.0202
   28MOL    O1720591   2.063   3.507   1.613 -0.5469 -0.1694 -0.6156
   28MOL    O1820592   1.937   3.584   1.430  0.2333 -0.5369  0.1393
   28MOL    C1920593   1.978   3.237   1.552  0.3094  0.6652  0.4162
   28MOL    C2020594   1.971   3.107   1.506  0.1036  0.2578  0.1964
   28MOL    H2120595   1.997   2.434   1.352  1.2326 -2.5336  0.2281
   28MOL    H2220596   2.065   2.505   1.214 -0.0336 -1.3313  0.0521
   28MOL    H2320597   2.294   2.464   1.278 -1.2886 -0.1050 -1.8488
   28MOL    H2420598   2.215   2.318   1.302  1.3726 -1.7672  2.4212
   28MOL    H2520599   2.178   2.361   1.532 -0.8018 -0.7918 -2.2720
   28MOL    H2620600   2.428   2.383   1.611  0.3082  1.0524  0.0420
   28MOL    H2720601   2.462   2.387   1.442 -0.2328  3.0006  1.8288
   28MOL    H2820602   2.343   2.629   1.506  0.1038 -0.4979 -1.0212
   28MOL    H2920603   2.284   2.554   1.651  0.0235 -2.3092  0.3700
   28MOL    H3020604   2.047   2.584   1.588  0.6674 -1.6880  0.0694
   28MOL    H3120605   2.141   2.732   1.562  0.7691 -0.5852  0.3503
   28MOL    H3220606   2.165   2.685   1.320 -2.8267  0.1657 -2.5740
   28MOL    H3320607   1.870   2.658   1.408 -0.7827  1.5819  1.4255
   28MOL    H3420608   1.918   2.691   1.254  0.6379 -0.8992  0.0232
   28MOL    H3520609   1.917   3.174   1.172  0.3597  1.6051 -0.3216
   28MOL    H3620610   1.928   3.402   1.257 -0.3428 -1.2985 -1.8918
   28MOL    H3720611   2.007   3.251   1.655 -1.4252 -4.3119  1.7336
   28MOL    H3820612   1.974   3.021   1.572 -2.8894  1.6487  2.2523
   28MOL    H3920613   2.388   2.245   1.501  3.7185  0.1177 -0.7412
   28MOL    C4020614   2.321   3.889   1.345  0.2123  0.6147 -0.0179
   28MOL    C4120615   2.191   3.867   1.425  0.3868  0.0922 -0.2868
   28MOL    C4220616   2.098   3.752   1.372 -0.3462 -0.0318 -0.1899
   28MOL    C4320617   1.972   3.723   1.460 -0.5325  0.1057  0.0800
   28MOL    C4420618   2.062   3.784   1.231 -0.1075  0.8966  0.1635
   28MOL    C4520619   2.198   3.793   1.152  0.1409 -0.0501  0.5394
   28MOL    C4620620   2.286   3.903   1.193 -0.0207  0.0704  0.5585
   28MOL    C4720621   2.407   3.924   1.097 -0.1894  0.4965  0.1792
   28MOL    O4820622   2.363   3.973   0.977  0.6809  0.8468  0.1895
   28MOL    C4920623   2.433   4.055   0.897 -0.6969  0.3145  0.3718
   28MOL    O5020624   2.528   4.121   0.935  0.0607  0.2900 -0.2301
   28MOL    C5120625   2.379   4.091   0.762  0.1542  0.1170  0.7389
   28MOL    C5220626   2.447   4.175   0.665 -0.2224  0.2275  0.1718
   28MOL    C5320627   2.382   4.213   0.548 -0.0889 -0.1479 -0.0919
   28MOL    C5420628   2.257   4.157   0.515  0.0075 -0.8470  0.4128
   28MOL    C5520629   2.189   4.175   0.383  0.5799  0.2514  0.0427
   28MOL    O5620630   2.075   4.125   0.347 -0.7965 -0.4570  0.6680
   28MOL    O5720631   2.262   4.262   0.301  0.4353  0.2683 -0.3183
   28MOL    C5820632   2.190   4.075   0.605 -0.1045 -0.6803 -0.1947
   28MOL    C5920633   2.248   4.047   0.734  0.0643  0.1749 -0.0127
   28MOL    H6020634   2.389   3.804   1.357 -0.1905  0.3936  0.7217
   28MOL    H6120635   2.375   3.974   1.386  2.5065 -0.7524 -0.1253
   28MOL    H6220636   2.134   3.960   1.426 -0.3762 -0.3796  0.2307
   28MOL    H6320637   2.222   3.840   1.527 -0.0786  0.7976  0.0427
   28MOL    H6420638   2.169   3.670   1.380 -0.2178  0.1519  0.6583
   28MOL    H6520639   1.892   3.789   1.425 -0.5160 -0.0706 -0.2971
   28MOL    H6620640   1.995   3.726   1.566 -0.1961 -0.2627  0.0177
   28MOL    H6720641   1.994   3.869   1.224 -0.2992  0.9212  2.1281
   28MOL    H6820642   2.002   3.700   1.193  2.1230 -0.1158 -1.1943
   28MOL    H6920643   2.255   3.700   1.163  1.8303  1.0291  1.1676
   28MOL    H7020644   2.181   3.801   1.045  4.7763  0.2733 -0.2811
   28MOL    H7120645   2.226   3.993   1.181 -0.8960 -0.6052 -0.1690
   28MOL    H7220646   2.461   3.833   1.072  0.0639  0.0274  2.3549
   28MOL    H7320647   2.464   4.008   1.136 -0.9624  0.6558  0.9869
   28MOL    H7420648   2.549   4.203   0.687 -0.2641 -0.7979  1.7708
   28MOL    H7520649   2.435   4.276   0.478 -0.8875 -2.1383 -2.5448
   28MOL    H7620650   2.094   4.034   0.579 -1.2556 -1.7910  5.1055
   28MOL    H7720651   2.193   3.984   0.803 -1.1076  1.3391  0.1351
   28MOL    C7820652   2.336   4.002   7.992 -0.5793  0.2314 -0.8669
   28MOL    C7920653   2.266   4.079   0.071 -0.2272 -0.0606 -0.2938
   28MOL    C8020654   2.260   4.230   0.050 -0.5020  0.4399  0.6957
   28MOL    C8120655   2.205   4.294   0.179  0.1420 -0.1664  0.1985
   28MOL    C8220656   2.398   4.282   0.000  0.1619 -1.1655  0.4204
   28MOL    C8320657   2.472   4.205   7.921  0.5851 -0.1717  0.8284
   28MOL    C8420658   2.476   4.058   7.963 -0.6760 -0.7385  0.3291
   28MOL    C8520659   2.556   3.972   7.875  0.0593  0.4848  0.2889
   28MOL    O8620660   2.514   3.981   7.737 -0.9628 -0.2317 -0.1633
   28MOL    C8720661   2.541   3.884   7.654 -0.0233  0.2579 -0.1340
   28MOL    O8820662   2.631   3.800   7.670  0.3056 -0.0809  0.8163
   28MOL    C8920663   2.446   3.879   7.536 -0.0948  0.0890  0.5041
   28MOL    C9020664   2.431   3.762   7.458 -0.4003 -0.4645  0.3721
   28MOL    C9120665   2.342   3.763   7.348 -0.2326 -0.4829 -0.3818
   28MOL    C9220666   2.256   3.873   7.314 -0.1017  0.7169 -1.4822
   28MOL    C9320667   2.145   3.863   7.211  0.2121  0.3580 -0.0859
   28MOL    O9420668   2.096   3.754   7.167  0.0173  0.7659 -0.2644
   28MOL    O9520669   2.101   3.974   7.181  0.4286  0.0841 -0.3515
   28MOL    C9620670   2.263   3.986   7.404 -0.7768  0.2900 -0.1717
   28MOL    C9720671   2.364   3.989   7.500  0.3607 -0.0414  0.6711
   28MOL    H9820672   2.282   4.009   7.898 -1.6438  0.8812 -0.2079
   28MOL    H9920673   2.342   3.894   8.010 -0.1306  0.0173 -2.2445
   28MOL   H10020674   2.325   4.050   0.158 -0.3423  0.7724  0.0727
   28MOL   H10120675   2.168   4.035   0.086  0.3373 -2.7578 -3.8567
   28MOL   H10220676   2.188   4.254   8.003 -0.2466  0.9828  0.6317
   28MOL   H10320677   2.097   4.277   0.179 -0.3303  2.3929  2.8855
   28MOL   H10420678   2.205   4.403   0.177  0.8677 -0.1511  0.8234
   28MOL   H10520679   2.472   4.292   0.080  0.1838  0.0980  0.2574
   28MOL   H10620680   2.363   4.382   8.006 -4.7485 -3.2424 -1.4387
   28MOL   H10720681   2.423   4.224   7.825  0.7736  1.1220  0.9680
   28MOL   H10820682   2.573   4.246   7.916  0.3787  0.0715 -2.5456
   28MOL   H10920683   2.530   4.057   0.025 -1.4091  2.6598  0.8582
   28MOL   H11020684   2.563   3.869   7.910  0.1732  1.5713  3.6875
   28MOL   H11120685   2.652   4.023   7.876  0.2136  0.1926  0.3543
   28MOL   H11220686   2.480   3.671   7.489  2.1203  0.5314 -0.5378
   28MOL   H11320687   2.324   3.668   7.299 -1.1251 -0.3870 -0.2478
   28MOL   H11420688   2.203   4.076   7.407  1.0951  1.5059  2.8418
   28MOL   H11520689   2.368   4.069   7.573 -1.3081 -0.8676  1.6899
   28MOL   C11620690   2.068   4.392   7.038  0.4860  0.2225  0.7130
   28MOL   C11720691   2.024   4.258   7.109  0.2511  0.1711 -0.3715
   28MOL   C11820692   2.045   4.136   7.016 -0.1392  0.7366 -0.2927
   28MOL   C11920693   2.007   3.998   7.077  0.0288 -0.7556  0.0982
   28MOL   C12020694   1.977   4.154   6.886 -0.2630 -0.2255 -1.0336
   28MOL   C12120695   2.015   4.295   6.818 -1.1412  0.5739 -0.2433
   28MOL   C12220696   1.995   4.416   6.908 -0.1908 -0.1975 -0.0657
   28MOL   C12320697   2.027   4.549   6.845  0.1269 -0.2838 -0.7079
   28MOL   O12420698   2.162   4.549   6.801  0.0657 -0.3546  0.1350
   28MOL   C12520699   2.246   4.631   6.855 -0.3056 -0.4451  0.3751
   28MOL   O12620700   2.222   4.710   6.944 -0.0793 -0.2242  0.1806
   28MOL   C12720701   2.382   4.631   6.788  0.0889  0.6429  1.1028
   28MOL   C12820702   2.405   4.553   6.669  0.5379  0.3085  0.2019
   28MOL   C12920703   2.533   4.538   6.619 -0.6513  0.1592 -0.3015
   28MOL   C13020704   2.642   4.612   6.682 -0.8861 -0.1987 -0.4506
   28MOL   C13120705   2.786   4.603   6.639 -1.2757 -0.3854  0.0065
   28MOL   O13220706   2.878   4.672   6.684  0.8327 -0.1871  0.4100
   28MOL   O13320707   2.807   4.517   6.533  0.1134 -0.5858 -0.2294
   28MOL   C13420708   2.613   4.710   6.778  0.0708 -0.4036 -1.0638
   28MOL   C13520709   2.485   4.709   6.837 -0.1602 -0.3154  0.6478
   28MOL   H13620710   2.174   4.388   7.012  0.2624  1.8151 -0.5387
   28MOL   H13720711   2.049   4.482   7.097 -0.3645 -0.0934  0.9208
   28MOL   H13820712   1.921   4.265   7.145  0.2678 -2.1596  0.1783
   28MOL   H13920713   2.083   4.248   7.199 -1.5403  2.7013  1.1622
   28MOL   H14020714   2.151   4.121   6.996 -0.2605 -1.8697  0.8416
   28MOL   H14120715   2.011   3.918   7.004 -1.4082 -1.6911  1.0150
   28MOL   H14220716   1.910   3.993   7.126  0.2032 -1.0738  0.4121
   28MOL   H14320717   1.871   4.138   6.905 -0.1705  2.8636  2.8853
   28MOL   H14420718   2.007   4.077   6.815 -2.7952  0.6075 -3.0483
   28MOL   H14520719   2.121   4.282   6.797 -1.2764  0.0934 -0.6161
   28MOL   H14620720   1.978   4.304   6.716  0.7215 -2.6284 -1.2666
   28MOL   H14720721   1.888   4.418   6.925 -0.0411 -0.5596  0.8985
   28MOL   H14820722   1.997   4.626   6.916 -0.5847  0.9862 -2.3708
   28MOL   H14920723   1.958   4.540   6.761  0.6868 -0.2872 -1.1661
   28MOL   H15020724   2.328   4.488   6.632  0.9488  0.7346 -1.4534
   28MOL   H15120725   2.547   4.464   6.542 -0.7382 -1.9043  1.6148
   28MOL   H15220726   2.690   4.778   6.813 -0.6924 -0.2920  0.4351
   28MOL   H15320727   2.465   4.769   6.925  0.5865 -0.5799  1.0063
   28MOL   C15420728   2.727   4.576   6.139  0.6299  0.2430 -0.7042
   28MOL   C15520729   2.802   4.493   6.238  0.3876  0.5899 -0.5919
   28MOL   C15620730   2.889   4.587   6.316  0.0544 -0.7950 -0.0808
   28MOL   C15720731   2.919   4.519   6.450 -0.1355  0.1828 -0.1169
   28MOL   C15820732   2.999   4.655   6.232 -0.4377  0.8282 -0.1259
   28MOL   C15920733   2.939   4.733   6.113  0.8848 -0.1781 -0.0438
   28MOL   C16020734   2.826   4.653   6.039 -0.0385  0.1658 -0.2244
   28MOL   C16120735   2.753   4.729   5.932  0.1672  0.0788 -1.0579
   28MOL   O16220736   2.829   4.816   5.851  0.2271  0.0683  0.1716
   28MOL   C16320737   2.877   4.776   5.737 -0.2381  0.2767 -0.5709
   28MOL   O16420738   2.850   4.669   5.685 -0.1627  0.4010  0.4178
   28MOL   C16520739   2.964   4.880   5.670  0.3501  0.5795  0.2984
   28MOL   C16620740   2.985   4.872   5.528  0.8145 -0.2967  0.1294
   28MOL   C16720741   3.058   4.972   5.466 -0.6453  0.1588 -0.9788
   28MOL   C16820742   3.093   5.089   5.535 -1.4757 -0.5480  0.1320
   28MOL   C16920743   3.169   5.203   5.467  0.3751  0.2394  0.2247
   28MOL   O17020744   3.181   5.200   5.344  0.1839 -0.0163  0.3209
   28MOL   O17120745   3.227   5.301   5.541 -0.3218  0.0949  0.2041
   28MOL   C17220746   3.069   5.103   5.675  0.7413  0.3790 -0.5186
   28MOL   C17320747   3.010   4.995   5.742 -0.0726  0.7627  0.3432
   28MOL   H17420748   2.662   4.640   6.199  0.6676  0.0700 -0.4802
   28MOL   H17520749   2.659   4.515   6.079 -0.6515  0.7647  0.1948
   28MOL   H17620750   2.857   4.417   6.183 -3.5835 -2.3778 -0.7309
   28MOL   H17720751   2.721   4.447   6.294  2.3665 -2.1886  0.0769
   28MOL   H17820752   2.822   4.666   6.352  1.7094  0.3735  0.4779
   28MOL   H17920753   3.004   4.563   6.502 -0.1663  0.5263 -0.3535
   28MOL   H18020754   2.963   4.422   6.428 -1.4100 -0.0897 -1.5709
   28MOL   H18120755   3.072   4.578   6.208 -0.4621  0.9867 -0.7141
   28MOL   H18220756   3.057   4.723   6.295 -0.0162 -0.9357  1.4571
   28MOL   H18320757   2.883   4.817   6.153 -1.2641 -2.7451  2.4799
   28MOL   H18420758   3.006   4.780   6.040 -1.2945 -1.2200 -2.8158
   28MOL   H18520759   2.888   4.582   5.984  0.3889 -0.9928  1.6811
   28MOL   H18620760   2.693   4.798   5.991  2.8287 -0.3755  2.3463
   28MOL   H18720761   2.688   4.675   5.863 -2.3852  0.5378  0.9131
   28MOL   H18820762   2.955   4.783   5.474  0.4929 -0.5011  0.6391
   28MOL   H18920763   3.083   4.973   5.361 -0.1896  1.7277 -0.8625
   28MOL   H19020764   3.087   5.199   5.720 -3.0425  1.1049 -0.3322
   28MOL   H19120765   2.989   5.011   5.846 -0.7659 -0.1864  0.3503
   28MOL   C19220766   3.460   5.630   5.769 -0.1858 -0.1517 -0.1287
   28MOL   C19320767   3.435   5.515   5.668 -0.5998  0.6043 -0.4186
   28MOL   C19420768   3.307   5.532   5.583  0.1295  0.0643 -0.3805
   28MOL   C19520769   3.288   5.416   5.485 -0.0552  0.7487  0.2270
   28MOL   C19620770   3.189   5.548   5.681 -0.4090 -0.7452 -0.2003
   28MOL   C19720771   3.207   5.661   5.775 -0.2337  0.4583 -0.4906
   28MOL   C19820772   3.335   5.636   5.863 -0.4765 -0.1903 -0.1842
   28MOL   C19920773   3.345   5.751   5.969 -0.1792 -0.4722  0.5818
   28MOL   O20020774   3.248   5.715   6.064 -0.5383 -0.6701  0.5135
   28MOL   C20120775   3.183   5.803   6.146  0.2419 -0.1557  0.3299
   28MOL   O20220776   3.198   5.926   6.145  0.7813 -0.3988  0.3746
   28MOL   C20320777   3.093   5.735   6.237 -0.0032 -0.0690  0.2751
   28MOL   C20420778   3.056   5.802   6.359 -0.4516  0.5757 -0.7630
   28MOL   C20520779   2.966   5.737   6.450  0.1867 -0.3452 -0.5140
   28MOL   C20620780   2.911   5.611   6.425 -0.0808 -0.2398  0.7480
   28MOL   C20720781   2.814   5.548   6.518 -0.4090  0.4925 -0.4486
   28MOL   O20820782   2.780   5.597   6.628  0.3536  0.1816  0.1017
   28MOL   O20920783   2.773   5.425   6.476  0.4451  0.0791 -0.0137
   28MOL   C21020784   2.947   5.544   6.307 -0.3678 -0.3287  0.2150
   28MOL   C21120785   3.037   5.604   6.218  0.4425 -0.4985  0.2785
   28MOL   H21220786   3.483   5.723   5.717 -0.3311 -0.7367 -1.2627
   28MOL   H21320787   3.551   5.604   5.821 -0.1482  0.8906  0.3359
   28MOL   H21420788   3.450   5.416   5.711  0.7663  1.1948  0.5190
   28MOL   H21520789   3.528   5.516   5.612  0.5135 -3.7952  1.1542
   28MOL   H21620790   3.330   5.623   5.528  0.6034 -0.0194 -0.3211
   28MOL   H21720791   3.375   5.391   5.424 -0.7343 -1.3915  0.1086
   28MOL   H21820792   3.228   5.461   5.406 -0.8682 -1.2406 -0.3054
   28MOL   H21920793   3.176   5.464   5.749 -1.6977 -0.1132  0.3423
   28MOL   H22020794   3.096   5.564   5.627 -1.3719  0.5657  1.7841
   28MOL   H22120795   3.196   5.749   5.713  0.2680 -0.2397 -1.5753
   28MOL   H22220796   3.122   5.671   5.844  2.3401 -0.5953  2.9779
   28MOL   H22320797   3.325   5.539   5.911  3.7565 -0.0501  1.2543
   28MOL   H22420798   3.313   5.843   5.919 -1.5514 -0.9294  0.5723
   28MOL   H22520799   3.444   5.768   6.009  0.3655  0.8574 -1.2588
   28MOL   H22620800   3.108   5.891   6.393 -0.9164  0.9237 -0.9574
   28MOL   H22720801   2.947   5.777   6.548 -0.2919 -1.4088 -0.1612
   28MOL   H22820802   2.915   5.445   6.280  0.4027 -0.5010 -0.0754
   28MOL   H22920803   3.066   5.546   6.132  0.2472  1.4516 -1.1387
   28MOL   C23020804   2.704   5.062   6.799 -0.6097  0.6026 -0.0631
   28MOL   C23120805   2.645   5.177   6.716  0.0091 -0.0522  0.3699
   28MOL   C23220806   2.749   5.236   6.638  0.3679  0.2000 -0.1280
   28MOL   C23320807   2.686   5.354   6.560 -0.4583 -0.0146  0.2455
   28MOL   C23420808   2.859   5.291   6.738 -0.1212 -0.0966 -0.1677
   28MOL   C23520809   2.921   5.185   6.834 -0.7778  0.4825  0.0471
   28MOL   C23620810   2.807   5.113   6.905 -0.3225 -0.5767  0.0490
   28MOL   C23720811   2.856   4.985   6.981  0.4784  0.6377 -0.5451
   28MOL   O23820812   2.762   4.948   7.078 -0.1559 -0.1163 -0.2143
   28MOL   C23920813   2.784   4.842   7.156 -0.1122  0.5709 -0.0847
   28MOL   O24020814   2.880   4.772   7.137 -0.3253  0.7177 -0.1408
   28MOL   C24120815   2.676   4.817   7.257 -0.5699 -0.0874  0.5355
   28MOL   C24220816   2.556   4.904   7.246 -0.0994 -0.8723  0.4099
   28MOL   C24320817   2.450   4.877   7.324 -0.2097 -0.1456  0.0378
   28MOL   C24420818   2.451   4.775   7.424  0.5311 -0.0991 -0.1922
   28MOL   C24520819   2.336   4.747   7.518 -0.0029  0.7233 -0.6087
   28MOL   O24620820   2.318   4.655   7.597  0.4637 -0.2004 -0.2283
   28MOL   O24720821   2.237   4.842   7.501  0.0512  0.5575 -0.3713
   28MOL   C24820822   2.567   4.692   7.431 -1.2009  1.2534 -0.2249
   28MOL   C24920823   2.677   4.714   7.350 -0.8880  0.2748  0.0134
   28MOL   H25020824   2.743   4.983   6.735  1.6615  0.7704  1.0580
   28MOL   H25120825   2.618   5.021   6.852 -0.5144  2.2257  1.4063
   28MOL   H25220826   2.586   5.248   6.774 -1.8916 -1.6647  0.4558
   28MOL   H25320827   2.562   5.142   6.655 -2.3213  0.3236  3.1969
   28MOL   H25420828   2.787   5.167   6.563 -0.0757  0.2141 -0.3676
   28MOL   H25520829   2.627   5.418   6.625 -2.0965 -0.6179 -0.6196
   28MOL   H25620830   2.626   5.301   6.486  0.0677  0.6441 -0.6719
   28MOL   H25720831   2.815   5.365   6.805  1.1089  1.2875 -0.8469
   28MOL   H25820832   2.938   5.343   6.684  0.5401 -0.8720  0.0478
   28MOL   H25920833   2.968   5.106   6.774 -1.2756 -0.9131  1.4771
   28MOL   H26020834   3.000   5.218   6.902 -1.3417 -0.7199  1.2800
   28MOL   H26120835   2.773   5.189   6.976  1.0290  0.1105 -0.0203
   28MOL   H26220836   2.956   4.993   7.023  0.3926 -0.8673 -0.0414
   28MOL   H26320837   2.855   4.910   6.903  0.2616 -0.6166  0.6502
   28MOL   H26420838   2.549   4.985   7.175 -1.0697 -0.9541  0.4107
   28MOL   H26520839   2.369   4.949   7.324  1.7144  2.0700 -0.2522
   28MOL   H26620840   2.566   4.617   7.508  2.0691 -1.0522 -2.3001
   28MOL   H26720841   2.763   4.650   7.365 -1.5597 -0.7558 -0.4926
   28MOL   C26820842   1.892   4.611   7.382 -0.2939 -0.0277 -0.0196
   28MOL   C26920843   1.990   4.728   7.411 -0.0554  0.0778 -0.0276
   28MOL   C27020844   2.023   4.740   7.562  1.0750 -0.0428 -0.0345
   28MOL   C27120845   2.127   4.850   7.590 -0.1857 -0.4766  0.1088
   28MOL   C27220846   1.891   4.775   7.644  0.7159  0.7833 -0.4916
   28MOL   C27320847   1.777   4.681   7.609  1.0957  0.6365  0.6335
   28MOL   C27420848   1.760   4.639   7.454 -0.8452 -0.4561 -0.1360
   28MOL   C27520849   1.655   4.535   7.428 -0.2974  0.5362 -0.4797
   28MOL   O27620850   1.624   4.508   7.294  0.1567  0.2721 -0.1477
   28MOL   C27720851   1.535   4.579   7.229  0.3615  0.1201 -0.1305
   28MOL   O27820852   1.449   4.645   7.286 -0.2846  0.2644  0.0468
   28MOL   C27920853   1.550   4.556   7.088 -0.0654  0.6245  0.2211
   28MOL   C28020854   1.624   4.445   7.033  0.2724  0.1550  0.3028
   28MOL   C28120855   1.633   4.431   6.895  0.4885  0.5290  0.6395
   28MOL   C28220856   1.561   4.519   6.815  0.4230 -0.1574  0.6013
   28MOL   C28320857   1.573   4.494   6.669 -0.6026 -0.8817 -0.8845
   28MOL   O28420858   1.668   4.433   6.616  0.0010 -0.4251  0.1141
   28MOL   O28520859   1.468   4.547   6.606  0.4396 -0.4625 -0.1021
   28MOL   C28620860   1.483   4.624   6.864  0.5440  0.2150 -0.8682
   28MOL   C28720861   1.475   4.634   7.002  0.0295  0.2695  0.0622
   28MOL   H28820862   1.927   4.514   7.418  3.0112  0.9565 -0.4098
   28MOL   H28920863   1.869   4.613   7.276 -0.8326 -2.5625  0.0189
   28MOL   H29020864   1.957   4.826   7.376 -0.4251 -0.1276 -0.2521
   28MOL   H29120865   2.082   4.709   7.355 -0.0794 -0.1245  0.0025
   28MOL   H29220866   2.051   4.640   7.595 -1.3999 -1.4606 -2.0444
   28MOL   H29320867   2.159   4.834   7.692  0.3144  0.8056  0.1614
   28MOL   H29420868   2.076   4.946   7.586  0.9809  0.1906  0.9808
   28MOL   H29520869   1.861   4.879   7.631  1.7032  0.9813 -1.2359
   28MOL   H29620870   1.914   4.761   7.750  1.0758  1.2851 -0.4998
   28MOL   H29720871   1.790   4.583   7.653 -1.0150  0.1505  0.2453
   28MOL   H29820872   1.688   4.722   7.657  1.0886  1.2316  0.1175
   28MOL   H29920873   1.721   4.723   7.397 -1.0992 -1.4958 -1.5270
   28MOL   H30020874   1.561   4.565   7.474 -0.8662 -1.6869 -0.1224
   28MOL   H30120875   1.675   4.441   7.480 -0.9477  1.7489  1.9856
   28MOL   H30220876   1.675   4.376   7.099  0.9119  0.1849 -0.1567
   28MOL   H30320877   1.695   4.355   6.849  1.0267  0.9463  0.6779
   28MOL   H30420878   1.431   4.696   6.804  2.6065  1.1003 -1.6415
   28MOL   H30520879   1.417   4.716   7.042 -1.1570  0.2271 -1.5130
   28MOL   C30620880   1.662   4.878   6.410 -0.2119  0.1508 -0.2840
   28MOL   C30720881   1.557   4.786   6.471  0.3737 -1.0472  0.0468
   28MOL   C30820882   1.543   4.645   6.400 -0.2875  0.3343  0.3039
   28MOL   C30920883   1.446   4.548   6.466  0.0664  0.7912  0.4094
   28MOL   C31020884   1.500   4.668   6.261 -0.2365 -0.3913  0.5966
   28MOL   C31120885   1.593   4.778   6.194  0.4159  0.3745 -0.4186
   28MOL   C31220886   1.613   4.906   6.272  0.7038 -0.1897  0.4872
   28MOL   C31320887   1.698   5.011   6.204  1.1988 -0.2683 -0.2260
   28MOL   O31420888   1.818   4.960   6.167 -0.3998  0.3189 -0.5888
   28MOL   C31520889   1.902   5.021   6.086  0.7394 -0.5096 -0.1045
   28MOL   O31620890   1.883   5.134   6.036 -0.0484  0.7090 -0.3792
   28MOL   C31720891   2.015   4.935   6.039  0.3604 -0.2063 -0.2384
   28MOL   C31820892   2.043   4.810   6.099  0.0895 -0.3378  0.0393
   28MOL   C31920893   2.150   4.730   6.049 -0.1791 -0.5491 -0.3208
   28MOL   C32020894   2.217   4.766   5.934  0.0299  0.4707 -0.8210
   28MOL   C32120895   2.324   4.679   5.874 -0.3445 -0.1697 -0.3399
   28MOL   O32220896   2.365   4.579   5.938  0.7471 -0.1991 -0.0283
   28MOL   O32320897   2.342   4.712   5.743  0.6125 -0.6188 -0.0669
   28MOL   C32420898   2.191   4.890   5.873 -0.1273  0.1775  0.8404
   28MOL   C32520899   2.095   4.972   5.928  0.0501  0.1247 -0.5188
   28MOL   H32620900   1.757   4.828   6.397 -1.3471 -1.6554 -1.7666
   28MOL   H32720901   1.670   4.970   6.469  0.5386 -0.8900  1.2695
   28MOL   H32820902   1.465   4.844   6.480  1.3926  0.2106  2.4556
   28MOL   H32920903   1.578   4.769   6.576 -0.1676 -0.6684  0.2178
   28MOL   H33020904   1.644   4.604   6.408 -1.3265 -2.5318 -0.5445
   28MOL   H33120905   1.458   4.445   6.434  0.5292  0.5499  1.3168
   28MOL   H33220906   1.343   4.580   6.450  0.1548  0.4920 -0.7400
   28MOL   H33320907   1.397   4.702   6.266  0.7386  2.7482  0.5055
   28MOL   H33420908   1.508   4.584   6.191 -1.3355 -0.7246  0.8605
   28MOL   H33520909   1.687   4.726   6.177  0.8906  0.7843  0.8673
   28MOL   H33620910   1.538   4.811   6.106 -0.4482 -1.9636 -0.7736
   28MOL   H33720911   1.517   4.955   6.287  0.8924 -0.5389  3.0226
   28MOL   H33820912   1.713   5.087   6.281 -1.6577 -1.2463  1.4094
   28MOL   H33920913   1.651   5.055   6.116  0.5110 -0.1461  0.1920
   28MOL   H34020914   1.987   4.785   6.188  2.3966 -1.0091  1.3289
   28MOL   H34120915   2.160   4.638   6.105 -1.4678  0.7411  2.0866
   28MOL   H34220916   2.238   4.928   5.784 -0.5914  0.9297  0.9069
   28MOL   H34320917   2.066   5.050   5.858 -1.0678 -1.2384 -1.6112
   28MOL   C34420918   2.437   4.949   5.408 -0.3826  0.2120 -0.0185
   28MOL   C34520919   2.381   4.840   5.497 -0.4069  0.0787 -0.3948
   28MOL   C34620920   2.485   4.749   5.564  0.2790 -0.1254  0.1281
   28MOL   C34720921   2.436   4.642   5.665  0.5768  0.1599  0.0327
   28MOL   C34820922   2.570   4.693   5.452 -0.1231  0.2020  0.2845
   28MOL   C34920923   2.637   4.799   5.359 -0.5238  0.8913  0.2391
   28MOL   C35020924   2.529   4.887   5.304  0.2882 -0.0595  0.1972
   28MOL   C35120925   2.573   4.985   5.194  0.1841  0.8273 -0.5069
   28MOL   O35220926   2.564   4.935   5.067  0.0599  0.2091  0.2121
   28MOL   C35320927   2.627   4.990   4.956 -0.3378 -0.0447 -0.7699
   28MOL   O35420928   2.678   5.102   4.955 -0.0023 -0.2019  0.2498
   28MOL   C35520929   2.621   4.906   4.834 -0.5053 -0.0775 -0.6802
   28MOL   C35620930   2.647   4.963   4.711 -0.8759  0.5420  0.3014
   28MOL   C35720931   2.621   4.895   4.590  0.2495  0.4985  0.4343
   28MOL   C35820932   2.573   4.765   4.594  0.0610 -0.1644 -0.3425
   28MOL   C35920933   2.540   4.695   4.467  0.4889  0.1924  0.1446
   28MOL   O36020934   2.575   4.742   4.357  0.3273  0.1501  0.2666
   28MOL   O36120935   2.438   4.616   4.489 -0.2341 -0.0024 -0.3374
   28MOL   C36220936   2.542   4.701   4.718 -0.6035 -0.1010 -0.8439
   28MOL   C36320937   2.568   4.774   4.836  0.2346  0.3550 -0.7529
   28MOL   H36420938   2.506   5.009   5.467  4.1641 -3.5718 -1.1744
   28MOL   H36520939   2.363   5.016   5.365 -0.2950  1.1400  1.2380
   28MOL   H36620940   2.297   4.790   5.447 -1.1101  0.7121  0.1310
   28MOL   H36720941   2.322   4.901   5.566  1.6566  0.5483  1.0024
   28MOL   H36820942   2.543   4.815   5.628 -2.2383  2.6202 -0.2993
   28MOL   H36920943   2.517   4.609   5.730  2.0098  2.9557 -0.2511
   28MOL   H37020944   2.394   4.551   5.622 -0.0383  0.4428  0.0287
   28MOL   H37120945   2.514   4.620   5.393  0.9884  0.6521 -1.3603
   28MOL   H37220946   2.652   4.634   5.493 -0.6127 -0.9906 -0.4032
   28MOL   H37320947   2.716   4.850   5.413  0.4244  1.6687 -1.8518
   28MOL   H37420948   2.678   4.746   5.273  1.4610 -2.1430  2.9230
   28MOL   H37520949   2.460   4.830   5.242 -0.7349  1.6368 -0.2597
   28MOL   H37620950   2.673   5.023   5.216 -0.2034  1.6586 -0.1612
   28MOL   H37720951   2.498   5.064   5.190 -0.6728  0.0349 -0.1310
   28MOL   H37820952   2.672   5.068   4.705 -1.2141  0.6762  1.1419
   28MOL   H37920953   2.624   4.944   4.494  0.4685 -1.1339 -0.4019
   28MOL   H38020954   2.484   4.610   4.719 -1.0778  0.2036  0.8191
   28MOL   H38120955   2.545   4.723   4.929  0.7088  2.1618  0.3643
   28MOL   C38220956   2.372   4.202   4.207 -0.1958  0.3744  0.0642
   28MOL   C38320957   2.342   4.353   4.233 -0.4684  0.6037 -0.1787
   28MOL   C38420958   2.428   4.416   4.347  0.6045 -0.0695 -0.7772
   28MOL   C38520959   2.377   4.556   4.376 -0.5824 -0.0720 -0.4339
   28MOL   C38620960   2.402   4.329   4.473  0.5280  0.4154 -1.1564
   28MOL   C38720961   2.432   4.179   4.453  0.9438 -0.3841 -0.3474
   28MOL   C38820962   2.345   4.119   4.340  1.0243 -0.2467  0.3069
   28MOL   C38920963   2.376   3.967   4.309 -0.0571  0.0120  0.3035
   28MOL   O39020964   2.343   3.886   4.420  0.2701  0.8539 -0.1718
   28MOL   C39120965   2.437   3.853   4.513 -0.3500  0.7060  0.1011
   28MOL   O39220966   2.556   3.892   4.499 -0.1281  0.1806  0.0794
   28MOL   C39320967   2.393   3.772   4.632  0.7451 -0.9265  0.3861
   28MOL   C39420968   2.487   3.729   4.722  0.0346  0.3368 -0.0101
   28MOL   C39520969   2.454   3.655   4.837  0.2103 -0.6833  0.3006
   28MOL   C39620970   2.317   3.629   4.862 -0.0720 -0.8399 -0.5574
   28MOL   C39720971   2.267   3.574   4.991  0.5055 -0.3807 -0.2237
   28MOL   O39820972   2.152   3.534   5.022  0.3897 -0.0196  0.1135
   28MOL   O39920973   2.362   3.582   5.085 -0.0557 -0.1072  0.1564
   28MOL   C40020974   2.218   3.660   4.764  0.3568 -0.0802  0.4013
   28MOL   C40120975   2.257   3.731   4.652 -0.0942 -0.9931  0.9091
   28MOL   H40220976   2.480   4.190   4.196  0.1460  2.2072  1.2182
   28MOL   H40320977   2.319   4.163   4.120  1.8461 -2.5777  0.0898
   28MOL   H40420978   2.237   4.364   4.263 -0.4984 -1.4478  0.5918
   28MOL   H40520979   2.362   4.411   4.143 -0.3224 -1.6306 -1.6282
   28MOL   H40620980   2.534   4.430   4.327  0.5184  2.7855  0.4138
   28MOL   H40720981   2.273   4.546   4.406 -1.0103  1.7854 -1.2081
   28MOL   H40820982   2.375   4.617   4.286 -0.2160  1.1207  0.3573
   28MOL   H40920983   2.302   4.342   4.514  1.0835  1.5498 -0.1301
   28MOL   H41020984   2.478   4.367   4.541 -0.0807  0.7873 -0.6801
   28MOL   H41120985   2.539   4.158   4.442  0.9680 -1.9355  2.4783
   28MOL   H41220986   2.414   4.126   4.546  0.2003 -0.0840 -0.3210
   28MOL   H41320987   2.237   4.127   4.352  1.2622  1.7257  1.2028
   28MOL   H41420988   2.473   3.943   4.264 -0.9025 -1.9933 -0.4810
   28MOL   H41520989   2.302   3.937   4.235  0.8091 -0.8259 -0.2308
   28MOL   H41620990   2.593   3.746   4.711 -0.0182  1.1778  0.7352
   28MOL   H41720991   2.529   3.628   4.909  1.1212 -1.4724 -0.9227
   28MOL   H41820992   2.111   3.642   4.774  0.0649  1.0176 -0.6278
   28MOL   H41920993   2.182   3.753   4.578  1.5475 -0.0333 -0.5020
   28MOL   C42020994   2.757   3.460   5.212 -1.0704  0.7768  0.2166
   28MOL   C42120995   2.614   3.527   5.201 -0.3837  0.0219 -0.1269
   28MOL   C42220996   2.499   3.423   5.206 -0.0142 -0.3304  0.2352
   28MOL   C42320997   2.361   3.490   5.192 -0.7958  0.4339 -0.5402
   28MOL   C42420998   2.516   3.315   5.098  0.1273  0.0427  0.8101
   28MOL   C42520999   2.654   3.246   5.112  0.8025 -0.2276  0.2914
   28MOL   C42621000   2.762   3.357   5.099 -0.4367 -0.5576  0.5379
   28MOL   C42721001   2.901   3.302   5.098  0.3917 -0.1663  0.8491
   28MOL   O42821002   2.923   3.229   4.987 -0.1999 -0.2848 -0.9420
   28MOL   C42921003   2.961   3.103   4.994  0.6370  0.1433  0.3186
   28MOL   O43021004   2.987   3.044   5.097  0.1058  0.2288 -0.0837
   28MOL   C43121005   2.962   3.036   4.858  0.3472 -0.5750 -0.4576
   28MOL   C43221006   2.924   3.097   4.733  0.6359  0.0293 -0.1992
   28MOL   C43321007   2.934   3.025   4.614 -0.2099  1.0168  0.6664
   28MOL   C43421008   2.967   2.886   4.616  0.7566  0.9479 -0.4534
   28MOL   C43521009   2.986   2.811   4.491 -0.7728  0.2692 -0.2304
   28MOL   O43621010   3.030   2.693   4.494 -0.0641 -0.4253 -0.1905
   28MOL   O43721011   2.950   2.884   4.385 -0.6897  0.1230  0.3185
   28MOL   C43821012   2.983   2.827   4.745  0.0966  0.0704  0.0224
   28MOL   C43921013   3.000   2.901   4.863 -0.2245 -0.7622 -0.7782
   28MOL   H44021014   2.760   3.398   5.302 -1.0324  0.9334  0.3244
   28MOL   H44121015   2.825   3.545   5.206 -0.1197  0.3025  3.0591
   28MOL   H44221016   2.614   3.592   5.114  1.3196  1.1807  0.7131
   28MOL   H44321017   2.603   3.601   5.279  2.0302 -1.5187  1.7406
   28MOL   H44421018   2.502   3.369   5.301  1.5483  1.4382  1.2282
   28MOL   H44521019   2.340   3.541   5.286  1.9994  0.7366 -0.0345
   28MOL   H44621020   2.283   3.415   5.180 -1.8837  1.7621 -1.9303
   28MOL   H44721021   2.512   3.358   4.998 -1.3296  0.9743  1.2683
   28MOL   H44821022   2.441   3.237   5.090 -2.1279  2.3866 -1.6259
   28MOL   H44921023   2.642   3.202   5.211  0.2413  0.3002  0.4632
   28MOL   H45021024   2.661   3.169   5.035  1.3362  0.5774 -0.4712
   28MOL   H45121025   2.746   3.402   5.001  1.2815 -2.5473 -0.6960
   28MOL   H45221026   2.934   3.263   5.195  2.9154  0.9742  0.4775
   28MOL   H45321027   2.972   3.385   5.101  0.2032 -0.0334  1.9464
   28MOL   H45421028   2.869   3.189   4.725 -1.2235 -1.0010  0.3606
   28MOL   H45521029   2.903   3.076   4.524 -0.8714 -1.0642 -0.3183
   28MOL   H45621030   3.009   2.722   4.748  1.4228  0.3903 -0.2300
   28MOL   H45721031   3.032   2.868   4.961 -0.1178  1.8533  0.1225
   28MOL   C45821032   2.743   3.066   3.973 -0.0905  0.2082 -0.0758
   28MOL   C45921033   2.855   2.989   4.059  0.4088  0.6970 -0.1617
   28MOL   C46021034   2.799   2.900   4.171 -0.0969  0.6298 -0.1426
   28MOL   C46121035   2.900   2.816   4.262 -0.0908  0.0802 -0.3115
   28MOL   C46221036   2.696   2.979   4.258 -0.3149  0.6416  1.0119
   28MOL   C46321037   2.592   3.059   4.177  0.3516  0.2924  0.3819
   28MOL   C46421038   2.650   3.146   4.069 -0.1414  0.3361 -0.8528
   28MOL   C46521039   2.554   3.239   3.991 -0.0127  0.1641 -0.1569
   28MOL   O46621040   2.456   3.175   3.919  0.6274 -0.0778 -0.3715
   28MOL   C46721041   2.341   3.137   3.975 -0.0547  0.2556  0.4690
   28MOL   O46821042   2.305   3.153   4.092 -0.3974  0.2277 -0.6128
   28MOL   C46921043   2.247   3.072   3.885 -0.7799  0.5691 -0.2703
   28MOL   C47021044   2.110   3.067   3.918  0.5832 -0.1133  0.5334
   28MOL   C47121045   2.021   2.991   3.840 -0.4020  0.4185 -0.4611
   28MOL   C47221046   2.072   2.928   3.724 -0.1595  0.3945 -0.3164
   28MOL   C47321047   1.975   2.852   3.639  0.2105  0.9042 -0.0553
   28MOL   O47421048   2.015   2.781   3.547 -0.1482 -0.6667  0.5601
   28MOL   O47521049   1.846   2.856   3.680 -0.5364  0.9287  0.3644
   28MOL   C47621050   2.206   2.938   3.690 -0.5169 -0.1948  1.0197
   28MOL   C47721051   2.297   3.012   3.765  0.0655 -0.7120  0.0826
   28MOL   H47821052   2.683   2.992   3.921  0.5395  0.2915 -0.9315
   28MOL   H47921053   2.793   3.134   3.903  0.9063  0.6864  1.0722
   28MOL   H48021054   2.913   3.076   4.091  2.3394 -0.2783 -0.8754
   28MOL   H48121055   2.912   2.928   3.989 -0.0125  0.6273 -0.4440
   28MOL   H48221056   2.728   2.836   4.119  1.8809 -0.0238 -2.0526
   28MOL   H48321057   2.982   2.789   4.194 -0.4934 -1.0438 -0.3653
   28MOL   H48421058   2.841   2.728   4.289  1.1901 -0.0555  2.2352
   28MOL   H48521059   2.755   3.046   4.321 -1.9444  1.4525  1.7193
   28MOL   H48621060   2.644   2.916   4.329 -1.8192  1.0599  0.3107
   28MOL   H48721061   2.523   2.987   4.132  1.6745 -0.4536 -0.5179
   28MOL   H48821062   2.539   3.120   4.249  0.2511  0.3783  0.2355
   28MOL   H48921063   2.714   3.213   4.126  0.0773 -1.5783  1.1981
   28MOL   H49021064   2.606   3.308   3.924  0.2070  2.3263  2.1313
   28MOL   H49121065   2.517   3.317   4.058  3.2457  0.9945  0.8119
   28MOL   H49221066   2.067   3.115   4.005 -4.1797  0.3838 -1.8866
   28MOL   H49321067   1.915   2.987   3.857 -0.0298 -0.5753  1.7222
   28MOL   H49421068   2.246   2.881   3.607 -0.1629 -0.5788  1.4528
   28MOL   H49521069   2.399   3.013   3.730 -0.1389  3.8533 -0.7108
   28MOL   C49621070   1.699   3.101   3.343 -0.4726 -0.0188 -0.1039
   28MOL   C49721071   1.767   2.985   3.414  0.2030  0.1219  0.3690
   28MOL   C49821072   1.671   2.924   3.521 -0.3955 -0.1817  1.0383
   28MOL   C49921073   1.739   2.811   3.604 -0.0814 -0.3793 -1.5795
   28MOL   C50021074   1.622   3.036   3.613 -0.1899  0.0094 -0.1703
   28MOL   C50121075   1.556   3.151   3.540  0.2517 -0.2979  0.0505
   28MOL   C50221076   1.654   3.210   3.441 -0.1188 -0.3561  0.0624
   28MOL   C50321077   1.603   3.338   3.379  0.3741  0.4352  0.2408
   28MOL   O50421078   1.510   3.315   3.278 -0.2771  0.0295 -0.1638
   28MOL   C50521079   1.446   3.417   3.218  0.2491  0.7847 -0.1936
   28MOL   O50621080   1.461   3.534   3.255  0.9165  0.0243  0.4180
   28MOL   C50721081   1.344   3.371   3.120  0.3882 -0.0702 -0.0468
   28MOL   C50821082   1.343   3.248   3.051  0.2839  0.1694 -0.5035
   28MOL   C50921083   1.246   3.213   2.957  0.5837  0.0811  0.6018
   28MOL   C51021084   1.143   3.307   2.926 -0.7478 -0.3547 -0.3150
   28MOL   C51121085   1.038   3.265   2.832 -0.4951 -0.4313  0.5637
   28MOL   O51221086   0.930   3.328   2.813 -0.2532 -0.0334  0.6523
   28MOL   O51321087   1.071   3.163   2.752 -0.1010  0.0846 -0.0114
   28MOL   C51421088   1.144   3.434   2.990 -0.5824 -0.7655 -0.1462
   28MOL   C51521089   1.246   3.472   3.083 -0.8562 -0.5864 -0.6563
   28MOL   H51621090   1.612   3.061   3.289 -1.2702 -0.2353  1.3108
   28MOL   H51721091   1.754   3.143   3.259  0.6125 -0.1401  0.5382
   28MOL   H51821092   1.861   3.026   3.453  1.2802 -0.5124 -1.5316
   28MOL   H51921093   1.782   2.916   3.331 -0.1522 -0.7877  1.0557
   28MOL   H52021094   1.583   2.882   3.473  0.0669  0.6798 -0.6121
   28MOL   H52121095   1.777   2.743   3.528  2.1146 -2.2496  1.1193
   28MOL   H52221096   1.667   2.757   3.664 -0.1768  0.4953 -0.8942
   28MOL   H52321097   1.711   3.074   3.664  0.6058  2.8411 -3.4370
   28MOL   H52421098   1.551   2.992   3.683  1.4305 -2.1895  0.1459
   28MOL   H52521099   1.463   3.116   3.495  0.9498  0.9837 -2.4726
   28MOL   H52621100   1.514   3.223   3.610 -0.7324 -1.2468  0.4606
   28MOL   H52721101   1.735   3.236   3.510 -0.4064  1.4858 -0.2522
   28MOL   H52821102   1.684   3.401   3.343  0.6593 -0.5830 -0.9171
   28MOL   H52921103   1.554   3.403   3.452 -1.6326 -0.6618 -0.0898
   28MOL   H53021104   1.424   3.176   3.058  0.6206  0.7634  2.4321
   28MOL   H53121105   1.244   3.121   2.900  0.2643  0.0081  0.7307
   28MOL   H53221106   1.063   3.501   2.967 -0.1017 -0.0032  0.3677
   28MOL   H53321107   1.258   3.568   3.131 -1.2056  0.1900 -2.0756
   28MOL   C53421108   1.200   2.845   2.476  0.5619 -0.3027  0.2921
   28MOL   C53521109   1.151   2.981   2.543  0.1276 -0.4179 -0.4727
   28MOL   C53621110   1.022   2.971   2.631 -0.2735  0.6622  0.5943
   28MOL   C53721111   0.968   3.111   2.673 -0.1041 -0.3162  0.9599
   28MOL   C53821112   0.911   2.900   2.552  0.1898 -0.1722  0.9225
   28MOL   C53921113   0.967   2.762   2.511  0.0759 -0.6415 -0.7003
   28MOL   C54021114   1.084   2.772   2.419  0.0230  0.0140  0.0131
   28MOL   C54121115   1.140   2.628   2.377  0.7339  0.2222  0.4219
   28MOL   O54221116   1.210   2.573   2.478 -0.4000  0.7183 -0.6518
   28MOL   C54321117   1.242   2.446   2.481 -0.4358  0.2402  0.3266
   28MOL   O54421118   1.201   2.356   2.402 -0.0588 -0.6636 -0.7784
   28MOL   C54521119   1.321   2.415   2.605  0.2785 -0.2591  0.8456
   28MOL   C54621120   1.364   2.281   2.632 -0.3866  0.3797  0.1156
   28MOL   C54721121   1.446   2.247   2.742  0.2697 -0.1651  0.0956
   28MOL   C54821122   1.488   2.347   2.828 -0.8766 -0.5712 -0.5221
   28MOL   C54921123   1.562   2.309   2.955  0.2488 -0.6501  1.5765
   28MOL   O55021124   1.589   2.381   3.051 -0.1855 -0.0068 -0.2657
   28MOL   O55121125   1.582   2.176   2.961  0.3111  0.3671  0.4503
   28MOL   C55221126   1.438   2.485   2.808 -0.2345 -0.2444 -0.1414
   28MOL   C55321127   1.359   2.514   2.698 -0.0526  0.7381  0.8541
   28MOL   H55421128   1.265   2.800   2.551 -0.0040  1.0255  1.6085
   28MOL   H55521129   1.274   2.876   2.403 -0.3951  0.1878 -0.4857
   28MOL   H55621130   1.142   3.057   2.465  0.2120  0.0342 -0.0396
   28MOL   H55721131   1.233   3.013   2.608  0.8658 -0.3061 -1.4319
   28MOL   H55821132   1.051   2.925   2.726 -2.1622  2.8757  2.3161
   28MOL   H55921133   0.880   3.103   2.737 -1.2925 -0.5733 -0.6834
   28MOL   H56021134   0.955   3.174   2.585 -0.8658 -0.4392  0.9822
   28MOL   H56121135   0.888   2.966   2.469 -0.2797  0.4558  1.5460
   28MOL   H56221136   0.817   2.885   2.604 -0.3213  0.9869  0.3534
   28MOL   H56321137   0.992   2.704   2.600 -0.2932 -2.5397 -1.8100
   28MOL   H56421138   0.894   2.704   2.454 -1.6588  0.1807  0.6676
   28MOL   H56521139   1.036   2.825   2.337  0.1200 -0.4411 -0.3432
   28MOL   H56621140   1.196   2.629   2.284  1.3522 -0.6132  0.7827
   28MOL   H56721141   1.053   2.567   2.351  0.1851  0.3508  1.8986
   28MOL   H56821142   1.342   2.200   2.563 -1.3491  0.7287  0.0051
   28MOL   H56921143   1.469   2.143   2.760  0.7508  0.1345  1.2581
   28MOL   H57021144   1.471   2.554   2.885 -1.8749  1.1484 -0.6495
   28MOL   H57121145   1.308   2.609   2.709 -0.9688  0.3186  0.3069
   28MOL   C57221146   1.359   2.071   3.398 -0.1711 -0.2214  0.1676
   28MOL   C57321147   1.500   2.075   3.319  0.3077 -0.2669  0.5816
   28MOL   C57421148   1.468   2.096   3.171 -0.6722 -0.0539 -0.2799
   28MOL   C57521149   1.597   2.108   3.086 -0.0448 -0.2503 -0.0536
   28MOL   C57621150   1.373   1.989   3.112 -0.1444 -0.8696 -0.4927
   28MOL   C57721151   1.246   1.986   3.188  0.3196 -0.2782  0.4034
   28MOL   C57821152   1.267   1.970   3.334  0.0323 -0.5102 -0.4743
   28MOL   C57921153   1.147   1.952   3.426  1.5248 -0.2559 -0.1878
   28MOL   O58021154   1.075   2.069   3.456 -0.1004  0.4339 -0.5705
   28MOL   C58121155   0.971   2.106   3.382  0.4537  0.2996  0.7695
   28MOL   O58221156   0.907   2.030   3.298  0.3454 -0.1376  0.0996
   28MOL   C58321157   0.933   2.247   3.398  0.7301 -0.3341 -0.2962
   28MOL   C58421158   0.982   2.330   3.497  1.0393  0.5700 -1.1046
   28MOL   C58521159   0.941   2.466   3.502 -0.3068 -0.1356 -0.3673
   28MOL   C58621160   0.847   2.517   3.411  0.3890 -0.1334  0.6817
   28MOL   C58721161   0.788   2.655   3.421 -0.2995 -0.5092 -0.2684
   28MOL   O58821162   0.817   2.725   3.516  0.0676 -0.4524 -0.3061
   28MOL   O58921163   0.712   2.685   3.310  0.0907 -0.3672 -0.4369
   28MOL   C59021164   0.794   2.431   3.309 -0.0169 -0.5248  0.6737
   28MOL   C59121165   0.844   2.295   3.301  1.3215 -0.1898  0.5183
   28MOL   H59221166   1.301   2.164   3.391  0.3874 -0.0770 -3.0510
   28MOL   H59321167   1.381   2.055   3.504 -1.4806 -0.9844  0.3432
   28MOL   H59421168   1.569   1.995   3.345  0.8527  0.2483  0.7142
   28MOL   H59521169   1.551   2.161   3.362 -1.6247  0.5072  1.3739
   28MOL   H59621170   1.411   2.189   3.159 -2.2430 -1.1537 -1.5889
   28MOL   H59721171   1.626   2.003   3.074  1.8594  0.2598 -0.1521
   28MOL   H59821172   1.681   2.154   3.139  0.4550 -1.6079  0.3658
   28MOL   H59921173   1.416   1.890   3.120 -0.7613 -1.3341 -2.6530
   28MOL   H60021174   1.347   2.010   3.008  0.0885  0.7391 -0.2435
   28MOL   H60121175   1.182   2.072   3.169 -0.2023 -0.9487 -0.9548
   28MOL   H60221176   1.183   1.901   3.161 -1.7159  0.2815  3.2782
   28MOL   H60321177   1.304   1.868   3.348  1.2102  0.3013  2.5371
   28MOL   H60421178   1.178   1.911   3.522  0.6535  0.5951  0.4664
   28MOL   H60521179   1.080   1.878   3.382 -0.2539  1.3452 -0.2617
   28MOL   H60621180   1.052   2.288   3.568  0.7978  0.5246 -0.8936
   28MOL   H60721181   0.976   2.526   3.584  2.2008 -1.7640 -0.1839
   28MOL   H60821182   0.721   2.460   3.234  0.0262 -2.5045 -0.1741
   28MOL   H60921183   0.816   2.237   3.215  1.6874 -0.3180  0.4829
   28MOL   C61021184   0.391   2.724   3.030 -0.5405 -0.3044 -0.4346
   28MOL   C61121185   0.525   2.744   3.090 -0.1459 -0.1896 -0.3946
   28MOL   C61221186   0.511   2.786   3.241 -0.2341 -0.4580 -0.4326
   28MOL   C61321187   0.650   2.808   3.304  0.2103 -1.0981  0.2307
   28MOL   C61421188   0.422   2.916   3.239  0.1548  0.1762 -0.3827
   28MOL   C61521189   0.283   2.880   3.197  0.1381 -0.0689 -0.7592
   28MOL   C61621190   0.296   2.848   3.045  0.3199 -0.3030 -0.2608
   28MOL   C61721191   0.165   2.823   2.967 -0.5122  0.2069  0.0945
   28MOL   O61821192   0.070   2.917   3.006 -0.2219  0.2074  0.3728
   28MOL   C61921193   8.029   2.977   2.911 -0.1173  0.0588  0.2714
   28MOL   O62021194   0.003   2.961   2.785  0.4340 -0.0885 -0.2851
   28MOL   C62121195   7.939   3.084   2.966 -0.2517  0.2395  0.6904
   28MOL   C62221196   7.861   3.158   2.882 -0.4031 -0.3055  0.5413
   28MOL   C62321197   7.786   3.268   2.926 -0.0881  0.1623  0.8275
   28MOL   C62421198   7.795   3.304   3.064  0.3283 -0.5855 -0.0749
   28MOL   C62521199   7.724   3.422   3.122  0.8563 -0.0687 -0.1445
   28MOL   O62621200   7.710   3.442   3.247  0.2028 -0.6388  0.3096
   28MOL   O62721201   7.662   3.489   3.024  0.1829 -0.3239  0.0606
   28MOL   C62821202   7.871   3.226   3.151 -0.1185 -0.6348  0.3104
   28MOL   C62921203   7.942   3.114   3.104  0.5388 -0.0667 -0.3413
   28MOL   H63021204   0.337   2.643   3.079 -0.8526  1.3956  2.1459
   28MOL   H63121205   0.401   2.688   2.928  1.5088  0.7733 -0.6345
   28MOL   H63221206   0.564   2.831   3.036  1.5960 -0.1490  0.8614
   28MOL   H63321207   0.597   2.665   3.068 -0.2925 -0.2759 -0.5605
   28MOL   H63421208   0.460   2.704   3.290 -0.3433 -0.9016 -1.2889
   28MOL   H63521209   0.638   2.858   3.400  0.5801 -1.2483  0.3570
   28MOL   H63621210   0.712   2.877   3.246  0.8799 -1.4036  0.5740
   28MOL   H63721211   0.469   2.993   3.178 -0.4591 -0.4279 -1.6388
   28MOL   H63821212   0.402   2.943   3.343  2.1582  1.0633 -0.2091
   28MOL   H63921213   0.241   2.795   3.251 -2.4757  0.7033 -1.5323
   28MOL   H64021214   0.221   2.967   3.215  3.5598  2.2266  0.5732
   28MOL   H64121215   0.329   2.944   3.004 -0.2800  0.4639  1.0198
   28MOL   H64221216   0.120   2.725   2.980  0.1613 -0.1072  0.0956
   28MOL   H64321217   0.184   2.823   2.860  0.6100 -1.5357  0.2719
   28MOL   H64421218   7.861   3.127   2.778  0.7891 -1.0976  0.7585
   28MOL   H64521219   7.724   3.318   2.853 -2.2170 -2.3653  0.7975
   28MOL   H64621220   7.882   3.238   3.258 -1.1063 -3.5161  0.7630
   28MOL   H64721221   7.989   3.062   3.186 -2.0651  0.3400  1.4485
   28MOL   C64821222   7.253   3.413   2.883 -0.1085 -0.0782  0.1512
   28MOL   C64921223   7.382   3.419   2.968 -0.6019  0.4926 -0.2019
   28MOL   C65021224   7.452   3.561   2.958 -0.3044  0.4958  0.3486
   28MOL   C65121225   7.560   3.585   3.053 -0.0597  0.4448 -0.5083
   28MOL   C65221226   7.493   3.576   2.811 -0.0407 -0.4575 -0.6780
   28MOL   C65321227   7.366   3.559   2.710  0.5886  0.1761  0.3431
   28MOL   C65421228   7.279   3.437   2.738  0.2586 -0.0321 -1.1687
   28MOL   C65521229   7.149   3.436   2.655 -0.2186 -0.2038 -0.0854
   28MOL   O65621230   7.081   3.312   2.662  0.1823 -0.7326 -0.0065
   28MOL   C65721231   6.982   3.279   2.580 -0.4784 -0.4664  0.3394
   28MOL   O65821232   6.934   3.363   2.501  0.2678  0.9245  0.0819
   28MOL   C65921233   6.932   3.140   2.608 -1.0175 -0.2903  0.3760
   28MOL   C66021234   6.815   3.098   2.548  0.3256  0.1478 -0.5480
   28MOL   C66121235   6.772   2.965   2.563 -0.3445 -0.4083  0.1966
   28MOL   C66221236   6.833   2.876   2.650 -0.6465 -0.1358 -0.5272
   28MOL   C66321237   6.774   2.741   2.674 -0.0784 -1.0092 -0.1650
   28MOL   O66421238   6.663   2.710   2.632  0.2925  0.7078  0.3784
   28MOL   O66521239   6.854   2.657   2.744 -0.2607  0.4300  0.0163
   28MOL   C66621240   6.944   2.919   2.719  0.3289 -0.5770  0.4060
   28MOL   C66721241   6.996   3.051   2.699  0.4638 -0.0711  0.4177
   28MOL   H66821242   7.173   3.479   2.917  0.3332 -0.3092  1.6642
   28MOL   H66921243   7.215   3.313   2.905 -0.0633 -0.6300 -2.1787
   28MOL   H67021244   7.453   3.342   2.940  0.3662  1.1106  0.5346
   28MOL   H67121245   7.360   3.413   3.075  1.0562  1.8783  0.2299
   28MOL   H67221246   7.377   3.636   2.985  0.8303  1.4882  0.7617
   28MOL   H67321247   7.516   3.570   3.151 -1.5206 -1.5147 -1.4361
   28MOL   H67421248   7.616   3.679   3.048 -1.2897  1.1609 -1.1216
   28MOL   H67521249   7.566   3.501   2.778 -0.6365 -0.7670 -1.3266
   28MOL   H67621250   7.535   3.673   2.788 -1.9022  0.2823 -1.0895
   28MOL   H67721251   7.294   3.641   2.705 -0.6242 -0.9487 -1.2753
   28MOL   H67821252   7.402   3.554   2.607  3.2237  2.0150  1.1190
   28MOL   H67921253   7.341   3.352   2.708 -0.4983 -0.5386 -1.3229
   28MOL   H68021254   7.171   3.448   2.549  0.5428  0.2156  0.1192
   28MOL   H68121255   7.090   3.525   2.678  1.8750  1.3942 -0.6645
   28MOL   H68221256   6.771   3.172   2.483 -1.5371 -0.4489 -0.0070
   28MOL   H68321257   6.682   2.945   2.506  0.9270 -0.4870 -1.7920
   28MOL   H68421258   6.989   2.852   2.791 -0.4590 -0.2312  1.2234
   28MOL   H68521259   7.083   3.085   2.753  1.0225 -2.2856  0.9566
   28MOL   C68621260   7.152   2.377   2.910 -0.2146 -0.6926 -0.7597
   28MOL   C68721261   7.040   2.480   2.912 -0.9112  0.1410 -0.2010
   28MOL   C68821262   6.939   2.439   2.795  0.0098 -0.7967 -0.4871
   28MOL   C68921263   6.811   2.521   2.767  0.2792 -0.1010 -0.1975
   28MOL   C69021264   7.015   2.444   2.660 -0.1792  0.6992 -0.4001
   28MOL   C69121265   7.136   2.351   2.654  0.8123  0.5693  0.9330
   28MOL   C69221266   7.229   2.368   2.772 -0.0067  0.1258 -0.4392
   28MOL   C69321267   7.337   2.259   2.773 -0.0105 -0.3927 -0.1653
   28MOL   O69421268   7.418   2.253   2.657 -0.0843  0.5179  0.0179
   28MOL   C69521269   7.529   2.186   2.665 -0.1921 -0.0674  0.1618
   28MOL   O69621270   7.566   2.129   2.768 -0.1074 -0.5006  0.1697
   28MOL   C69721271   7.604   2.199   2.544  0.6045  0.0555  0.6326
   28MOL   C69821272   7.744   2.196   2.557  0.2492  0.3149 -0.4288
   28MOL   C69921273   7.824   2.234   2.443  0.4102  0.3829  0.0237
   28MOL   C70021274   7.759   2.268   2.323  0.1215  0.4309 -0.6034
   28MOL   C70121275   7.843   2.298   2.210  0.0671 -0.2791  0.7929
   28MOL   O70221276   7.968   2.278   2.209 -0.4260  0.3346  0.1597
   28MOL   O70321277   7.774   2.356   2.109  0.2699 -0.1608 -0.2739
   28MOL   C70421278   7.617   2.259   2.310  0.5266  0.5215  0.4060
   28MOL   C70521279   7.541   2.224   2.423 -0.1166 -0.7857 -0.3817
   28MOL   H70621280   7.115   2.277   2.935 -0.4927 -0.2025  0.8726
   28MOL   H70721281   7.228   2.398   2.985  0.0060  1.2907 -1.5081
   28MOL   H70821282   7.072   2.584   2.903 -1.7914  0.2689 -1.9652
   28MOL   H70921283   6.986   2.487   3.007  0.6140  2.5289  0.5290
   28MOL   H71021284   6.914   2.336   2.820  0.2358 -1.2888 -2.2047
   28MOL   H71121285   6.754   2.519   2.860 -2.8617 -2.4343 -2.0856
   28MOL   H71221286   6.751   2.480   2.686  1.6208 -0.9972 -0.7362
   28MOL   H71321287   7.043   2.544   2.628  1.7328  0.6747  1.1029
   28MOL   H71421288   6.947   2.405   2.584 -1.1290 -0.2671  0.9210
   28MOL   H71521289   7.097   2.249   2.646  0.2044  0.9658 -1.4169
   28MOL   H71621290   7.191   2.358   2.560 -0.4923  1.4601  0.2229
   28MOL   H71721291   7.277   2.463   2.750 -1.9098  0.5864 -2.7883
   28MOL   H71821292   7.298   2.160   2.796 -1.4728 -0.2720 -2.0387
   28MOL   H71921293   7.395   2.289   2.861  2.0628 -0.1632 -1.5765
   28MOL   H72021294   7.789   2.175   2.653 -0.5826  1.0680  0.1368
   28MOL   H72121295   7.930   2.230   2.458  0.4336  0.1519 -0.1946
   28MOL   H72221296   7.571   2.266   2.213 -1.5446 -2.2969  1.1283
   28MOL   H72321297   7.433   2.222   2.415 -0.3016  1.6502  0.7680
   28MOL   C72421298   7.732   2.562   1.657  0.0540 -0.7930 -0.3696
   28MOL   C72521299   7.820   2.481   1.752  0.8791  0.2372  0.0731
   28MOL   C72621300   7.753   2.447   1.882  0.4332  0.1238 -0.2065
   28MOL   C72721301   7.847   2.401   1.998 -0.4081 -0.2641  0.0808
   28MOL   C72821302   7.662   2.557   1.945  0.2043  0.4235  0.8573
   28MOL   C72921303   7.575   2.630   1.846  0.1984  0.4636  0.4224
   28MOL   C73021304   7.651   2.681   1.725 -0.0477  0.3170  0.1900
   28MOL   C73121305   7.561   2.765   1.626 -0.0676 -0.0533 -0.0114
   28MOL   O73221306   7.452   2.684   1.592 -0.3673  1.0981 -0.5755
   28MOL   C73321307   7.407   2.679   1.468 -0.7083  0.3284 -0.1821
   28MOL   O73421308   7.464   2.736   1.368 -0.6092  0.0672 -0.0160
   28MOL   C73521309   7.280   2.599   1.462  0.0587 -0.6676 -0.5161
   28MOL   C73621310   7.210   2.574   1.343 -0.2037 -0.4326 -0.5215
   28MOL   C73721311   7.093   2.497   1.341  0.5349 -0.3256  0.7375
   28MOL   C73821312   7.032   2.451   1.455  0.0872 -0.2512 -0.1728
   28MOL   C73921313   6.904   2.375   1.455 -0.0971  0.3655  0.0155
   28MOL   O74021314   6.848   2.321   1.362 -0.6864  0.0180  0.2605
   28MOL   O74121315   6.844   2.379   1.577  0.1475 -0.2185 -0.0598
   28MOL   C74221316   7.103   2.474   1.579 -0.1736  0.4601 -0.5670
   28MOL   C74321317   7.223   2.543   1.582 -0.5284  0.3356 -0.7345
   28MOL   H74421318   7.665   2.490   1.611  1.9580 -2.7595 -0.1510
   28MOL   H74521319   7.797   2.598   1.577  1.8620 -0.3175  1.2860
   28MOL   H74621320   7.915   2.531   1.772  0.7030  0.5482  0.1456
   28MOL   H74721321   7.840   2.393   1.692  1.4335  1.8360 -2.1785
   28MOL   H74821322   7.688   2.362   1.864  0.6800 -0.3456  1.0819
   28MOL   H74921323   7.923   2.472   2.028  1.0010 -1.1363 -1.3328
   28MOL   H75021324   7.906   2.323   1.950  2.1425  0.7033  1.6150
   28MOL   H75121325   7.728   2.633   1.987  2.4010 -0.9989  0.0815
   28MOL   H75221326   7.594   2.531   2.025  0.8291 -2.0443  0.6152
   28MOL   H75321327   7.506   2.555   1.808  0.9672  0.1482 -0.3566
   28MOL   H75421328   7.518   2.707   1.897 -0.1515 -0.2919  1.1719
   28MOL   H75521329   7.718   2.758   1.761  0.7044 -0.0244 -0.4557
   28MOL   H75621330   7.606   2.794   1.531 -0.5806  2.9211  0.6234
   28MOL   H75721331   7.523   2.854   1.674  1.5762  1.6658 -1.8141
   28MOL   H75821332   7.257   2.604   1.250  0.0345  0.6087 -0.0662
   28MOL   H75921333   7.055   2.469   1.243  0.5379  2.4071 -0.0805
   28MOL   H76021334   7.081   2.437   1.678  2.6858  0.4681  0.1025
   28MOL   H76121335   7.273   2.549   1.677 -1.2877 -1.9422 -0.1585
   28MOL   H76221336   6.760   2.335   1.576  1.2569 -2.4573  0.5799
   29MOL     C121337   6.137   3.807   1.136  0.2649 -0.4885 -0.2961
   29MOL     C221338   6.028   3.799   1.029  0.1710  0.5989 -0.7397
   29MOL     C321339   5.887   3.786   1.084  0.4732  0.2981 -0.1171
   29MOL     C421340   5.778   3.778   0.975  0.2956  0.3883  0.4676
   29MOL     C521341   5.886   3.660   1.172  0.1907  0.5266  0.0560
   29MOL     C621342   5.991   3.656   1.287 -0.4149 -0.2258  0.2175
   29MOL     C721343   6.135   3.678   1.225 -0.2684 -0.0484  0.1623
   29MOL     C821344   6.235   3.694   1.345  0.1008 -0.5891 -0.4196
   29MOL     O921345   6.366   3.691   1.296 -0.2106  0.6765  0.3921
   29MOL    C1021346   6.486   3.685   1.366 -0.3084 -0.2097  0.9330
   29MOL    O1121347   6.494   3.700   1.485  0.0525  0.0145  0.0457
   29MOL    C1221348   6.599   3.666   1.271 -0.0416 -0.2331 -0.3055
   29MOL    C1321349   6.729   3.661   1.319  0.5718  0.1080 -0.2944
   29MOL    C1421350   6.839   3.624   1.236 -0.3378 -0.3200  0.2246
   29MOL    C1521351   6.822   3.612   1.100 -0.3270 -0.4800 -0.0827
   29MOL    C1621352   6.938   3.585   1.009  0.5849  0.4117 -0.4982
   29MOL    O1721353   6.928   3.592   0.885  0.4415  0.0194  0.1002
   29MOL    O1821354   7.049   3.548   1.075  0.2429 -0.3907 -0.1931
   29MOL    C1921355   6.692   3.627   1.046 -0.5405  0.0172 -0.5363
   29MOL    C2021356   6.579   3.655   1.130 -0.2924  0.7829 -0.1962
   29MOL    H2121357   6.125   3.902   1.188  0.2774 -0.3542 -0.5345
   29MOL    H2221358   6.232   3.824   1.085 -0.6692  2.1221 -1.2376
   29MOL    H2321359   6.052   3.717   0.962 -1.0065 -1.0402  0.8133
   29MOL    H2421360   6.024   3.887   0.965 -0.0763  2.6967  2.0639
   29MOL    H2521361   5.844   3.869   1.139 -3.2462 -1.4881 -0.1605
   29MOL    H2621362   5.681   3.776   1.025 -1.4927 -0.1190 -2.8170
   29MOL    H2721363   5.779   3.679   0.931 -5.0772  0.5020 -0.3182
   29MOL    H2821364   5.901   3.571   1.111 -0.7835 -0.6071  1.4635
   29MOL    H2921365   5.787   3.645   1.214  0.8680  1.2050  1.9269
   29MOL    H3021366   5.969   3.734   1.361  1.2105 -1.8668  2.5257
   29MOL    H3121367   5.962   3.561   1.333 -1.1530 -0.3628 -0.5396
   29MOL    H3221368   6.160   3.588   1.169 -0.8537  0.5645 -1.0935
   29MOL    H3321369   6.220   3.602   1.401 -1.3029  0.2050  0.5509
   29MOL    H3421370   6.219   3.780   1.410  3.9364 -0.2632  0.2575
   29MOL    H3521371   6.744   3.667   1.426 -0.9231 -1.3378  0.0150
   29MOL    H3621372   6.937   3.611   1.279 -0.5017  0.9453  1.0178
   29MOL    H3721373   6.684   3.617   0.939 -1.1414  0.6503 -0.5566
   29MOL    H3821374   6.480   3.647   1.087 -0.0539  0.8067 -0.7420
   29MOL    H3921375   5.795   3.860   0.904 -3.3240 -0.5835 -1.6789
   29MOL    C4021376   7.447   3.606   1.255  0.7625 -0.5882 -0.6775
   29MOL    C4121377   7.326   3.533   1.201  0.1346  0.4808  0.6360
   29MOL    C4221378   7.286   3.597   1.068 -0.2072 -0.4423 -0.0399
   29MOL    C4321379   7.167   3.524   0.998  0.5467 -0.1065 -0.3016
   29MOL    C4421380   7.251   3.750   1.091  0.0017  0.1146 -0.4163
   29MOL    C4521381   7.361   3.827   1.167 -0.9339 -0.3821  0.3348
   29MOL    C4621382   7.411   3.755   1.297 -0.4258 -0.2668  0.7348
   29MOL    C4721383   7.523   3.832   1.362 -0.8321 -0.7346 -0.4408
   29MOL    O4821384   7.571   3.757   1.482  0.3964 -0.1197  0.3629
   29MOL    C4921385   7.684   3.687   1.472 -1.0787 -0.6303  0.5681
   29MOL    O5021386   7.758   3.695   1.376 -0.4564 -0.1733 -0.1836
   29MOL    C5121387   7.709   3.602   1.592  0.2820 -0.8403  0.3380
   29MOL    C5221388   7.820   3.514   1.590 -0.5814 -0.8988  0.7054
   29MOL    C5321389   7.851   3.438   1.700 -0.0475 -0.1266 -0.2783
   29MOL    C5421390   7.776   3.449   1.822  0.8686 -0.0913  0.8850
   29MOL    C5521391   7.804   3.379   1.942 -0.3439 -0.0000  0.2444
   29MOL    O5621392   7.726   3.368   2.032  0.7968 -0.0850 -0.3750
   29MOL    O5721393   7.925   3.323   1.937  0.0847 -0.3249  0.2846
   29MOL    C5821394   7.668   3.539   1.826  0.1762 -0.1835 -0.4356
   29MOL    C5921395   7.640   3.621   1.715 -0.4825  0.4468  0.3926
   29MOL    H6021396   7.529   3.618   1.184  1.1108 -1.3174 -0.4059
   29MOL    H6121397   7.481   3.549   1.341  0.8706 -0.1365 -0.4223
   29MOL    H6221398   7.243   3.515   1.269 -0.1058  1.7333  0.6792
   29MOL    H6321399   7.354   3.430   1.178  4.9870  1.7345  0.3387
   29MOL    H6421400   7.366   3.593   0.995 -0.4272 -2.3134 -0.2039
   29MOL    H6521401   7.186   3.419   0.972  1.7288  0.2308 -0.8373
   29MOL    H6621402   7.154   3.563   0.897  1.1116 -1.3661 -0.8840
   29MOL    H6721403   7.165   3.747   1.157  0.4272  0.7831  0.1704
   29MOL    H6821404   7.232   3.791   0.992  0.1329 -0.3631 -0.6395
   29MOL    H6921405   7.444   3.832   1.097 -1.2742 -1.0985 -0.1228
   29MOL    H7021406   7.319   3.927   1.185 -2.6805 -0.4116 -3.2627
   29MOL    H7121407   7.332   3.748   1.372 -1.3118 -1.7570 -0.3236
   29MOL    H7221408   7.480   3.926   1.396  1.1736  0.4829 -1.1639
   29MOL    H7321409   7.608   3.859   1.300 -0.5216  1.0297  0.7240
   29MOL    H7421410   7.865   3.496   1.493 -1.0437 -0.2590  0.3728
   29MOL    H7521411   7.943   3.382   1.698  0.5282  0.8773 -1.7787
   29MOL    H7621412   7.628   3.569   1.922  2.2767  0.7978  0.1481
   29MOL    H7721413   7.558   3.691   1.717  0.7472  1.9586 -0.8445
   29MOL    C7821414   7.897   2.907   2.044  0.2850  0.1059 -0.0846
   29MOL    C7921415   7.875   3.060   2.057 -0.3541 -0.3242 -0.1048
   29MOL    C8021416   8.014   3.139   2.050 -0.4928 -0.2366 -0.3505
   29MOL    C8121417   7.994   3.286   2.057 -0.0760 -0.7829 -0.1475
   29MOL    C8221418   0.081   3.089   2.160  0.1008  0.4490  0.2998
   29MOL    C8321419   0.096   2.938   2.168  0.1345 -0.5273 -0.2677
   29MOL    C8421420   7.989   2.864   2.165  0.5329  0.6085  0.0859
   29MOL    C8521421   8.014   2.715   2.159 -0.2080  0.4862  0.2115
   29MOL    O8621422   0.007   2.657   2.280  0.4294 -0.3599 -0.5434
   29MOL    C8721423   0.081   2.550   2.293  0.1155  0.2087 -0.5746
   29MOL    O8821424   0.145   2.495   2.202  0.1473  0.4306 -0.1225
   29MOL    C8921425   0.081   2.496   2.434  0.0800 -0.2897  0.7841
   29MOL    C9021426   0.160   2.385   2.472 -0.0075 -0.0678 -0.0777
   29MOL    C9121427   0.195   2.361   2.604 -0.2492 -0.2645 -0.2048
   29MOL    C9221428   0.133   2.444   2.707 -0.0891 -0.2720  0.1596
   29MOL    C9321429   0.164   2.424   2.853  0.0796  0.6545  0.3189
   29MOL    O9421430   0.094   2.478   2.941 -0.7062  0.0427 -0.3126
   29MOL    O9521431   0.264   2.334   2.876 -0.7179  0.1735 -0.6254
   29MOL    C9621432   0.056   2.549   2.670  0.2991  0.1362 -0.5889
   29MOL    C9721433   0.030   2.579   2.537  0.4995  0.3434 -0.6297
   29MOL    H9821434   7.926   2.881   1.942 -1.8647  1.5175 -1.1196
   29MOL    H9921435   7.799   2.861   2.053 -0.2439  0.9480 -1.2236
   29MOL   H10021436   7.829   3.058   2.156  0.0086 -0.5767  0.0615
   29MOL   H10121437   7.804   3.083   1.978  0.1944 -0.9590 -0.7936
   29MOL   H10221438   0.026   3.119   1.952  2.2190  0.8260  0.6082
   29MOL   H10321439   0.055   3.341   2.047 -0.8453  0.1822 -2.1700
   29MOL   H10421440   7.945   3.325   2.147  0.3374  1.6756 -0.9591
   29MOL   H10521441   0.049   3.109   2.262 -1.3274  1.1925 -0.2932
   29MOL   H10621442   0.175   3.143   2.151  0.1684  0.3404  0.3499
   29MOL   H10721443   0.165   2.900   2.092  0.9708 -2.4471  1.4074
   29MOL   H10821444   0.137   2.904   2.263 -1.4616  0.8327  0.9406
   29MOL   H10921445   7.939   2.873   2.262  0.8667 -1.5709  0.4841
   29MOL   H11021446   0.052   2.693   2.078 -0.3665 -0.3793  0.3086
   29MOL   H11121447   7.925   2.664   2.122  2.4250 -3.0392 -1.4933
   29MOL   H11221448   0.209   2.331   2.393 -1.1689  1.3059 -1.7907
   29MOL   H11321449   0.256   2.277   2.633 -1.3603 -1.2703 -0.7348
   29MOL   H11421450   0.017   2.612   2.748 -0.8807  0.7517 -1.6488
   29MOL   H11521451   8.003   2.670   2.526 -1.3913 -0.9046 -1.1681
   29MOL   C11621452   0.610   2.051   3.105  0.0863 -0.5331 -0.9641
   29MOL   C11721453   0.511   2.169   3.111  0.2012  0.1450  0.4175
   29MOL   C11821454   0.422   2.183   2.986  0.2626 -0.2659 -0.1240
   29MOL   C11921455   0.326   2.310   3.001  0.7314  0.9970 -0.3074
   29MOL   C12021456   0.520   2.192   2.861 -0.0423  0.3651  0.8441
   29MOL   C12121457   0.618   2.068   2.856 -0.4877 -0.3715  0.9990
   29MOL   C12221458   0.704   2.055   2.985  0.0375 -0.0042  0.2814
   29MOL   C12321459   0.807   1.942   2.973  0.3822 -0.4696  0.4699
   29MOL   O12421460   0.741   1.811   2.964  0.8583 -0.1716 -0.1104
   29MOL   C12521461   0.759   1.708   3.049  0.0862 -0.2905 -0.2424
   29MOL   O12621462   0.862   1.701   3.129  0.6269 -0.2611 -0.2861
   29MOL   C12721463   0.656   1.606   3.038  0.1813  0.0049  0.1031
   29MOL   C12821464   0.693   1.470   3.070  0.3813 -0.6529  0.2336
   29MOL   C12921465   0.593   1.370   3.069 -0.2683  0.1478 -0.4050
   29MOL   C13021466   0.459   1.407   3.053 -0.2392 -0.2820  0.3014
   29MOL   C13121467   0.353   1.308   3.085  0.2384  0.6068  0.2423
   29MOL   O13221468   0.233   1.338   3.097  0.3981  0.0561 -0.2040
   29MOL   O13321469   0.400   1.186   3.115 -0.0791  0.5975  0.4334
   29MOL   C13421470   0.423   1.538   3.014 -0.1071 -0.7078  0.5068
   29MOL   C13521471   0.521   1.635   3.014  0.2575 -0.1074  0.1520
   29MOL   H13621472   0.553   1.958   3.115 -1.6451  0.2930 -2.7314
   29MOL   H13721473   0.678   2.057   3.189 -1.1502 -0.6649  0.0597
   29MOL   H13821474   0.566   2.262   3.125  2.4691 -0.8934 -1.1977
   29MOL   H13921475   0.441   2.158   3.193  1.0023 -0.0885  1.0766
   29MOL   H14021476   0.355   2.100   2.964  0.3032 -0.4373  0.3912
   29MOL   H14121477   0.373   2.396   3.048  0.3579 -0.5686  3.0525
   29MOL   H14221478   0.245   2.281   3.068  0.9380  0.3411 -0.3437
   29MOL   H14321479   0.572   2.286   2.878 -1.2868  1.2534 -0.1834
   29MOL   H14421480   0.466   2.206   2.768 -1.3630 -0.6508  1.4406
   29MOL   H14521481   0.560   1.981   2.828  0.1521  0.3697 -2.8582
   29MOL   H14621482   0.680   2.087   2.768  0.9716 -1.0336  1.8572
   29MOL   H14721483   0.756   2.150   3.002 -1.5400  1.1942 -1.4520
   29MOL   H14821484   0.865   1.944   3.066  0.2678 -0.9747  0.5533
   29MOL   H14921485   0.876   1.957   2.890  0.9808  0.0172  1.0468
   29MOL   H15021486   0.796   1.445   3.089  0.6874 -1.4245 -2.2464
   29MOL   H15121487   0.614   1.270   3.102  1.5098 -0.0863 -2.1488
   29MOL   H15221488   0.319   1.556   2.993  0.0180 -0.3934  0.1525
   29MOL   H15321489   0.505   1.738   2.984  0.3885 -0.1169  0.0475
   29MOL   C15421490   0.276   0.736   3.299 -0.0122 -1.0403 -0.3212
   29MOL   C15521491   0.232   0.869   3.229  0.4905 -0.0426  0.2308
   29MOL   C15621492   0.358   0.956   3.208 -0.5955  0.4117  0.6365
   29MOL   C15721493   0.304   1.086   3.144  0.6755 -0.1969  0.4395
   29MOL   C15821494   0.447   0.985   3.338  0.0983 -0.5467  0.2183
   29MOL   C15921495   0.483   0.852   3.402 -0.1707 -0.1436  0.1470
   29MOL   C16021496   0.355   0.768   3.431 -0.1428  0.5481  0.5753
   29MOL   C16121497   0.393   0.648   3.515  0.1592  0.9062  0.1620
   29MOL   O16221498   0.438   0.678   3.645 -0.3760 -0.1163 -0.6452
   29MOL   C16321499   0.465   0.584   3.739 -0.0562  0.5423 -0.0076
   29MOL   O16421500   0.442   0.458   3.727  0.8453  0.2575 -0.7305
   29MOL   C16521501   0.534   0.636   3.855  0.0735 -0.1216 -0.0973
   29MOL   C16621502   0.606   0.760   3.844  0.0524  0.0046  0.3046
   29MOL   C16721503   0.685   0.816   3.945  1.0486  0.7850  0.1378
   29MOL   C16821504   0.676   0.758   4.070  0.7510 -0.4091 -0.4183
   29MOL   C16921505   0.741   0.818   4.187  0.4754 -0.1112 -0.3285
   29MOL   O17021506   0.789   0.932   4.186  0.4483 -0.4399 -0.7555
   29MOL   O17121507   0.744   0.738   4.295  0.5315 -0.0661 -0.0962
   29MOL   C17221508   0.615   0.629   4.087 -0.0826 -0.0069  0.2254
   29MOL   C17321509   0.548   0.566   3.981 -0.8081  0.2451 -1.0747
   29MOL   H17421510   0.330   0.662   3.240  1.9334 -0.1962  0.3594
   29MOL   H17521511   0.184   0.683   3.322 -0.3920  0.5935  2.1668
   29MOL   H17621512   0.155   0.915   3.289  1.6265  3.7160 -1.0255
   29MOL   H17721513   0.177   0.857   3.135  1.7314 -1.2434 -0.3764
   29MOL   H17821514   0.438   0.919   3.144 -1.6557  0.6397 -0.8287
   29MOL   H17921515   0.228   1.121   3.214  0.9733 -0.4334  0.8847
   29MOL   H18021516   0.250   1.060   3.053  0.5186  2.3183 -0.2039
   29MOL   H18121517   0.381   1.041   3.403 -0.9482  0.6255 -1.8052
   29MOL   H18221518   0.532   1.049   3.311  0.7850 -0.2206  3.0045
   29MOL   H18321519   0.561   0.801   3.346  0.6978  2.4525 -1.1215
   29MOL   H18421520   0.534   0.866   3.497  0.2762 -1.9979  0.2005
   29MOL   H18521521   0.284   0.829   3.487  0.5831  1.0105  0.9991
   29MOL   H18621522   0.465   0.578   3.471  1.0010  0.3851  2.2826
   29MOL   H18721523   0.307   0.581   3.523  0.9701 -0.1478  0.3057
   29MOL   H18821524   0.614   0.808   3.747  0.4148 -0.4626  0.0983
   29MOL   H18921525   0.738   0.906   3.921  0.0330  1.1983 -0.6139
   29MOL   H19021526   0.614   0.575   4.180 -2.2673 -2.2948 -1.0650
   29MOL   H19121527   0.495   0.473   3.997 -2.4295  1.4209  0.5851
   29MOL   C19221528   0.436   1.020   4.476  0.0151 -0.0937 -0.1976
   29MOL   C19321529   0.582   0.990   4.439 -1.1286 -0.2800  0.6077
   29MOL   C19421530   0.620   0.843   4.466  0.4953 -0.2671 -0.3046
   29MOL   C19521531   0.761   0.795   4.426 -0.4024 -0.1616  0.5641
   29MOL   C19621532   0.602   0.827   4.613  0.6474  0.5540 -0.6744
   29MOL   C19721533   0.460   0.845   4.665  0.6330 -0.0559 -0.2182
   29MOL   C19821534   0.409   0.984   4.625 -0.1081 -0.1475  0.0718
   29MOL   C19921535   0.258   0.990   4.663  0.1421  0.1754 -0.4167
   29MOL   O20021536   0.178   0.905   4.575 -0.0647 -0.2655  0.1349
   29MOL   C20121537   0.108   0.799   4.625  0.2119  0.0545  0.1063
   29MOL   O20221538   0.122   0.764   4.744 -0.3468  0.4612  0.3304
   29MOL   C20321539   0.025   0.730   4.522  0.3084 -0.1239  0.2625
   29MOL   C20421540   7.994   0.605   4.549 -0.3813  0.1366 -0.5305
   29MOL   C20521541   7.896   0.549   4.465  0.0397 -0.2243 -0.1478
   29MOL   C20621542   7.867   0.622   4.345  0.1097 -0.1343 -0.0199
   29MOL   C20721543   7.758   0.561   4.255 -0.3917 -0.6985  0.2098
   29MOL   O20821544   7.719   0.618   4.154  0.5505 -0.2252 -0.6729
   29MOL   O20921545   7.694   0.458   4.309 -0.0953 -0.1377 -0.0093
   29MOL   C21021546   7.932   0.742   4.313  0.7127 -0.7781 -0.6342
   29MOL   C21121547   8.025   0.791   4.402 -0.1480 -0.2426 -0.1211
   29MOL   H21221548   0.368   0.959   4.417 -1.3686  1.5764 -0.3619
   29MOL   H21321549   0.418   1.124   4.446  0.4247 -0.4149 -1.6021
   29MOL   H21421550   0.655   1.052   4.492  0.0965 -0.5478 -0.7443
   29MOL   H21521551   0.581   1.016   4.333 -0.6230  2.2631  1.1950
   29MOL   H21621552   0.537   0.786   4.424 -1.5007  0.5253  2.3755
   29MOL   H21721553   0.787   0.715   4.495  1.2572 -0.4373 -0.3619
   29MOL   H21821554   0.843   0.866   4.435  0.7826 -1.0601 -2.3522
   29MOL   H21921555   0.668   0.903   4.655  1.3915 -0.5748  0.2239
   29MOL   H22021556   0.628   0.726   4.643  1.9075  1.4251  1.2950
   29MOL   H22121557   0.397   0.771   4.615 -2.1976  0.4521  2.3870
   29MOL   H22221558   0.468   0.828   4.773  0.3712 -2.8477 -0.5967
   29MOL   H22321559   0.464   1.051   4.691 -0.5909  1.5871 -1.2467
   29MOL   H22421560   0.223   1.090   4.637 -1.0789 -0.6543 -2.0392
   29MOL   H22521561   0.244   0.970   4.769  1.7640 -1.6577 -0.5085
   29MOL   H22621562   8.026   0.551   4.637 -1.7345 -0.7676 -0.5802
   29MOL   H22721563   7.855   0.452   4.487 -2.5175  0.4453 -1.6732
   29MOL   H22821564   7.920   0.785   4.215 -1.3371 -0.2035 -0.1702
   29MOL   H22921565   0.035   0.887   4.377 -0.1977 -0.3502 -0.6185
   29MOL   C23021566   7.492   0.331   3.909 -0.9302  0.4270 -0.1795
   29MOL   C23121567   7.538   0.418   4.024  0.1364  0.0508 -1.2474
   29MOL   C23221568   7.528   0.347   4.158  0.1113 -0.2764  0.6244
   29MOL   C23321569   7.558   0.446   4.279  0.0161 -0.2024  0.3718
   29MOL   C23421570   7.376   0.307   4.171  0.6123 -0.1693  0.4324
   29MOL   C23521571   7.334   0.205   4.063 -0.2794  0.0366 -0.1847
   29MOL   C23621572   7.358   0.266   3.921  0.2320  0.2952 -0.0349
   29MOL   C23721573   7.326   0.176   3.805 -0.8294 -0.2128 -0.5935
   29MOL   O23821574   7.312   0.254   3.680  0.0999 -0.0670 -0.1706
   29MOL   C23921575   7.217   0.213   3.586  0.2208  0.2583 -0.4440
   29MOL   O24021576   7.148   0.112   3.596 -0.4140  0.3713 -0.2559
   29MOL   C24121577   7.206   0.317   3.479 -0.0588 -0.3279 -0.9897
   29MOL   C24221578   7.310   0.410   3.451  0.1351 -0.5740 -0.5919
   29MOL   C24321579   7.293   0.502   3.346 -0.2574 -0.5531  0.2643
   29MOL   C24421580   7.167   0.509   3.280  0.4092  0.8976  1.2379
   29MOL   C24521581   7.142   0.611   3.174  0.3825  0.7840 -0.7333
   29MOL   O24621582   7.242   0.657   3.110  0.1302 -0.5033  0.2537
   29MOL   O24721583   7.010   0.631   3.150  0.0790  0.4822 -0.2712
   29MOL   C24821584   7.061   0.420   3.319 -0.0156 -0.1094 -0.2718
   29MOL   C24921585   7.084   0.320   3.411 -0.2865  0.1900 -0.5016
   29MOL   H25021586   7.558   0.247   3.885  0.6695  1.6375 -0.1255
   29MOL   H25121587   7.498   0.397   3.823 -0.7069 -1.2228 -1.4660
   29MOL   H25221588   7.484   0.513   4.023 -0.4207 -0.2693 -1.7368
   29MOL   H25321589   7.643   0.436   4.003  0.6353 -1.3739 -0.0390
   29MOL   H25421590   7.587   0.256   4.159 -1.0957 -1.1167 -1.1076
   29MOL   H25521591   7.511   0.413   4.371 -0.9778  1.5677  0.5253
   29MOL   H25621592   7.508   0.540   4.259  0.9924  0.0013 -1.2013
   29MOL   H25721593   7.313   0.396   4.170 -0.1345 -0.7021 -0.6951
   29MOL   H25821594   7.349   0.270   4.270 -1.2340  1.7642  0.6920
   29MOL   H25921595   7.391   0.112   4.068  3.0036  1.8749 -1.2999
   29MOL   H26021596   7.229   0.181   4.080 -0.3569  0.9234  0.6432
   29MOL   H26121597   7.286   0.347   3.909 -2.2194 -1.9510 -0.9617
   29MOL   H26221598   7.237   0.120   3.832 -0.0329 -1.7313 -1.0007
   29MOL   H26321599   7.411   0.112   3.778 -1.0609 -0.2909 -1.1372
   29MOL   H26421600   7.407   0.392   3.494  0.0744  1.2452  0.3103
   29MOL   H26521601   7.368   0.573   3.316 -0.1661 -1.5302 -1.9062
   29MOL   H26621602   6.958   0.437   3.289  0.1949  1.8978  0.0515
   29MOL   H26721603   7.010   0.248   3.444 -0.4941 -0.1885 -1.7595
   29MOL   C26821604   6.596   0.569   3.047 -0.2250  0.5572 -0.4489
   29MOL   C26921605   6.744   0.559   3.064 -1.0383  0.3860  0.3790
   29MOL   C27021606   6.820   0.691   3.016  0.2618 -0.0396  0.0638
   29MOL   C27121607   6.973   0.689   3.030  0.3575 -0.7763  0.4312
   29MOL   C27221608   6.780   0.740   2.875  0.3804  0.5847  0.2850
   29MOL   C27321609   6.625   0.741   2.871  0.5667  0.5666  0.3884
   29MOL   C27421610   6.566   0.605   2.897 -0.0766  0.4919 -0.0753
   29MOL   C27521611   6.418   0.588   2.863 -0.1402 -0.2584  0.9263
   29MOL   O27621612   6.382   0.456   2.876 -0.0161 -0.2787 -0.8712
   29MOL   C27721613   6.404   0.362   2.786  0.3859 -0.1559  0.4349
   29MOL   O27821614   6.435   0.394   2.673  0.1781 -0.0288  0.0411
   29MOL   C27921615   6.376   0.224   2.831 -0.2496 -0.0780 -0.2476
   29MOL   C28021616   6.377   0.120   2.742 -0.2717 -0.1273  0.0977
   29MOL   C28121617   6.348   8.021   2.774 -0.1639  0.0850  0.2766
   29MOL   C28221618   6.325   7.989   2.911 -0.2478  0.2912  0.0652
   29MOL   C28321619   6.305   7.849   2.957  0.5377  0.0427  0.1986
   29MOL   O28421620   6.325   7.804   3.070  0.0588  0.2195  0.2528
   29MOL   O28521621   6.252   7.770   2.856 -0.0897 -0.1338 -0.4724
   29MOL   C28621622   6.340   0.057   3.012 -0.5885 -0.6100 -0.8462
   29MOL   C28721623   6.356   0.195   2.971 -0.5764 -0.8884 -0.4656
   29MOL   H28821624   6.562   0.648   3.114 -0.9966  1.8134 -2.2644
   29MOL   H28921625   6.541   0.480   3.078  1.4966  0.6742  3.0784
   29MOL   H29021626   6.787   0.466   3.026  2.0206 -0.1413  4.7553
   29MOL   H29121627   6.769   0.544   3.169 -1.8192  0.7185  0.6143
   29MOL   H29221628   6.781   0.769   3.080 -1.0366  0.8529 -1.7790
   29MOL   H29321629   7.002   0.794   3.033  0.8344 -0.8745 -0.4627
   29MOL   H29421630   7.027   0.657   2.941 -1.2893  1.9073 -1.6157
   29MOL   H29521631   6.817   0.678   2.794 -1.4409 -1.2525  0.8080
   29MOL   H29621632   6.814   0.843   2.864  2.0339  0.1140  0.9420
   29MOL   H29721633   6.583   0.809   2.945  0.3852 -0.5342  1.3170
   29MOL   H29821634   6.586   0.777   2.775  3.3639  1.8528 -0.3119
   29MOL   H29921635   6.621   0.537   2.832 -1.3111 -0.9451  0.3630
   29MOL   H30021636   6.420   0.628   2.762 -0.9631 -0.2051  0.9270
   29MOL   H30121637   6.353   0.653   2.921 -1.4805  0.7194 -1.5950
   29MOL   H30221638   6.398   0.140   2.638  1.0736 -2.1015 -0.0399
   29MOL   H30321639   6.339   7.955   2.689 -0.8796  0.9764 -0.3472
   29MOL   H30421640   6.331   0.040   3.118 -1.7183  0.0524 -0.8288
   29MOL   H30521641   6.364   0.276   3.042  0.7177 -0.2571 -1.3197
   29MOL   C30621642   6.017   7.345   2.731 -0.9563 -0.4205  0.2459
   29MOL   C30721643   6.062   7.444   2.830 -0.4734 -0.3652  0.1121
   29MOL   C30821644   6.148   7.559   2.771  0.0725  0.1474 -0.0615
   29MOL   C30921645   6.202   7.645   2.888  0.0038 -0.6329 -0.0664
   29MOL   C31021646   6.269   7.491   2.694  0.5301 -0.4193 -0.1530
   29MOL   C31121647   6.232   7.374   2.599  0.5387 -0.6158 -0.2641
   29MOL   C31221648   6.140   7.273   2.666  1.0919  0.3704 -0.0735
   29MOL   C31321649   6.086   7.167   2.566 -0.3480  0.2467  0.7350
   29MOL   O31421650   6.032   7.211   2.449  0.3982  0.3743  0.2845
   29MOL   C31521651   5.898   7.202   2.423 -0.1100 -1.0706 -0.8854
   29MOL   O31621652   5.819   7.143   2.498  0.4125  0.3483 -0.2145
   29MOL   C31721653   5.853   7.279   2.299  0.5119 -0.2922  0.4267
   29MOL   C31821654   5.943   7.328   2.202 -0.2084  0.1383  0.5966
   29MOL   C31921655   5.889   7.397   2.090 -0.0173 -0.4516 -0.5451
   29MOL   C32021656   5.747   7.408   2.072 -0.1361  0.1120 -0.0067
   29MOL   C32121657   5.694   7.463   1.948  0.4850 -0.7153 -1.0635
   29MOL   O32221658   5.759   7.457   1.838  0.0197  0.3545  0.1306
   29MOL   O32321659   5.577   7.536   1.959 -0.0120 -0.0090  0.3183
   29MOL   C32421660   5.662   7.348   2.162 -0.9081 -0.5815 -0.3832
   29MOL   C32521661   5.712   7.291   2.281  0.9237  0.8788  0.1686
   29MOL   H32621662   5.954   7.392   2.655  1.0167 -1.2336 -1.9349
   29MOL   H32721663   5.957   7.274   2.789 -1.1617 -0.8569 -0.5001
   29MOL   H32821664   6.127   7.396   2.903 -1.1084  1.5217  1.9539
   29MOL   H32921665   5.975   7.474   2.888 -1.6981 -0.5835 -1.5686
   29MOL   H33021666   6.092   7.621   2.702  0.5925  0.2865 -0.3610
   29MOL   H33121667   6.272   7.589   2.950  0.6335  0.6819  0.4168
   29MOL   H33221668   6.113   7.656   2.950  0.2817  0.9290  0.0711
   29MOL   H33321669   6.355   7.468   2.756  1.9674  2.2896 -1.0322
   29MOL   H33421670   6.303   7.576   2.635 -0.6145 -0.9126 -1.5565
   29MOL   H33521671   6.171   7.434   2.532  0.6705  0.9579  0.9838
   29MOL   H33621672   6.317   7.332   2.545  0.2925 -2.9072  1.0760
   29MOL   H33721673   6.187   7.212   2.743 -2.3321 -1.3295  0.7689
   29MOL   H33821674   6.020   7.107   2.629  0.0095 -1.3793 -0.3912
   29MOL   H33921675   6.164   7.096   2.538  0.0689  0.8928  0.2570
   29MOL   H34021676   6.050   7.325   2.218 -0.1639  0.7402  0.4552
   29MOL   H34121677   5.956   7.430   2.012  1.0107 -0.9377  0.1301
   29MOL   H34221678   5.554   7.354   2.152 -1.3685 -3.2354  2.1299
   29MOL   H34321679   5.649   7.237   2.351 -1.5936  0.0085 -2.6229
   29MOL   C34421680   5.145   7.468   2.003 -0.0947 -0.5523 -0.2396
   29MOL   C34521681   5.280   7.546   1.996 -0.2590  0.1120  0.2217
   29MOL   C34621682   5.346   7.524   1.858 -0.3610 -0.0553 -0.1380
   29MOL   C34721683   5.491   7.574   1.847  0.9525  0.4741  0.3224
   29MOL   C34821684   5.333   7.379   1.799 -0.1489 -0.6863 -0.5560
   29MOL   C34921685   5.199   7.310   1.826  0.3469  0.6431 -0.7834
   29MOL   C35021686   5.162   7.321   1.969  0.2313  0.3427 -0.1108
   29MOL   C35121687   5.040   7.242   2.017  0.2618  0.1743  0.4693
   29MOL   O35221688   5.083   7.138   2.107 -0.3528  0.1516  0.6271
   29MOL   C35321689   4.997   7.115   2.208 -0.2613  0.2269 -0.6842
   29MOL   O35421690   4.891   7.165   2.237 -0.6815 -0.2993 -0.0174
   29MOL   C35521691   5.059   7.010   2.297  0.1208 -0.1267  0.0620
   29MOL   C35621692   4.984   6.970   2.413 -0.1413  0.0999 -0.4447
   29MOL   C35721693   5.026   6.857   2.485 -0.7752 -0.3601 -0.1271
   29MOL   C35821694   5.146   6.793   2.449 -0.7412  0.3643 -0.6661
   29MOL   C35921695   5.178   6.671   2.529 -0.3179  0.1668 -0.2006
   29MOL   O36021696   5.100   6.606   2.598  0.4246  0.4468 -0.3374
   29MOL   O36121697   5.301   6.630   2.509 -0.1770 -0.0600  0.2966
   29MOL   C36221698   5.227   6.834   2.340  0.5566  0.0516  0.3827
   29MOL   C36321699   5.180   6.940   2.263  0.8693 -0.5015  1.2282
   29MOL   H36421700   5.073   7.505   1.931 -0.5197 -0.5838  0.1639
   29MOL   H36521701   5.103   7.491   2.101  0.4319  0.8887 -0.3460
   29MOL   H36621702   5.353   7.517   2.071 -1.4800 -0.1604  1.3249
   29MOL   H36721703   5.261   7.652   2.015 -2.4606 -0.4885  1.4805
   29MOL   H36821704   5.289   7.589   1.791  0.3747  1.0108  0.2481
   29MOL   H36921705   5.489   7.679   1.820 -1.0052  0.0388 -1.3694
   29MOL   H37021706   5.530   7.527   1.757  0.6711  0.6236  0.1234
   29MOL   H37121707   5.419   7.318   1.827  1.0339  0.2931 -2.0083
   29MOL   H37221708   5.329   7.398   1.692 -2.7848 -1.1544 -0.5550
   29MOL   H37321709   5.124   7.365   1.767 -0.5509  1.1300  0.7740
   29MOL   H37421710   5.206   7.208   1.788 -1.1598  0.6675 -1.1863
   29MOL   H37521711   5.237   7.285   2.040  0.4275  2.5840  0.8576
   29MOL   H37621712   5.013   7.185   1.928  1.8905 -2.2768  1.4950
   29MOL   H37721713   4.958   7.304   2.055 -3.0209 -3.7864  0.2554
   29MOL   H37821714   4.887   7.014   2.433  0.3257  0.8816  0.1151
   29MOL   H37921715   4.964   6.825   2.568 -2.3950  1.7869 -0.4578
   29MOL   H38021716   5.319   6.787   2.310  0.8296  0.3523  0.7473
   29MOL   H38121717   5.250   6.973   2.188 -0.3063 -0.2141  0.2458
   29MOL   C38221718   5.700   6.771   2.604  0.4962 -0.1708 -0.4161
   29MOL   C38321719   5.572   6.703   2.552  0.6343 -0.0829  0.2419
   29MOL   C38421720   5.487   6.638   2.666 -0.9283 -0.0505 -0.2937
   29MOL   C38521721   5.372   6.556   2.597 -0.2437 -0.1555 -0.1066
   29MOL   C38621722   5.574   6.545   2.750 -0.0920  0.0805 -0.6532
   29MOL   C38721723   5.699   6.626   2.807 -0.3378  0.4904 -0.6147
   29MOL   C38821724   5.781   6.671   2.679  0.1396 -0.0479 -0.6585
   29MOL   C38921725   5.914   6.734   2.713 -0.0990  0.1723 -0.2615
   29MOL   O39021726   5.889   6.846   2.801 -0.7742 -0.2562 -0.4934
   29MOL   C39121727   5.993   6.917   2.847  0.8209  0.6191 -0.3397
   29MOL   O39221728   6.109   6.887   2.812 -0.4564 -0.1342  0.6852
   29MOL   C39321729   5.964   7.033   2.932  0.8450  0.2103  0.3663
   29MOL   C39421730   6.069   7.104   2.994 -0.0966 -0.0489 -0.2049
   29MOL   C39521731   6.044   7.215   3.071 -0.5209 -0.6019  0.4219
   29MOL   C39621732   5.913   7.270   3.082 -0.3410  0.6961 -0.0048
   29MOL   C39721733   5.881   7.393   3.160 -0.8298 -0.1560  0.4050
   29MOL   O39821734   5.771   7.418   3.200  0.1357  0.6860 -0.2120
   29MOL   O39921735   5.990   7.471   3.184 -0.2865 -0.1078 -0.2084
   29MOL   C40021736   5.807   7.182   3.040  0.3388 -0.8932  0.2319
   29MOL   C40121737   5.829   7.073   2.961  0.0316  0.2127  0.3890
   29MOL   H40221738   5.680   6.858   2.666  0.6507 -1.0211  0.8540
   29MOL   H40321739   5.766   6.806   2.524  1.7271 -2.3527 -0.4062
   29MOL   H40421740   5.598   6.619   2.487 -0.6383 -0.7213  0.5506
   29MOL   H40521741   5.522   6.773   2.485 -0.7452 -0.0757  1.2736
   29MOL   H40621742   5.447   6.709   2.740 -0.1516  0.5446 -0.4362
   29MOL   H40721743   5.311   6.515   2.678  2.9058 -0.5435  2.1641
   29MOL   H40821744   5.417   6.475   2.540  2.1489 -0.0051  1.4957
   29MOL   H40921745   5.602   6.465   2.682 -1.7802  1.1811 -2.7159
   29MOL   H41021746   5.513   6.497   2.827  0.7001 -0.7109 -0.5112
   29MOL   H41121747   5.669   6.707   2.874 -2.4406  0.8771 -1.9581
   29MOL   H41221748   5.763   6.554   2.859 -1.1074  0.8632  0.8694
   29MOL   H41321749   5.806   6.584   2.618  1.3268  0.6605 -1.2149
   29MOL   H41421750   5.958   6.773   2.621  0.5157 -0.9533 -0.4521
   29MOL   H41521751   5.972   6.657   2.764 -0.0346 -0.6024 -1.5029
   29MOL   H41621752   6.173   7.075   2.984 -0.0920 -0.2921  0.5116
   29MOL   H41721753   6.129   7.257   3.123 -0.3776  0.1546 -0.4056
   29MOL   H41821754   5.706   7.213   3.061  0.0632  0.3697 -2.6203
   29MOL   H41921755   5.753   7.007   2.921  0.3963 -0.0860  0.1839
   29MOL   C42021756   6.230   7.638   3.531  0.6761  0.3538  0.1654
   29MOL   C42121757   6.106   7.587   3.458  0.4776  0.8546 -0.2372
   29MOL   C42221758   6.102   7.638   3.316  0.0563 -0.4513  0.1145
   29MOL   C42321759   5.975   7.601   3.243 -0.2532 -0.1482  0.0638
   29MOL   C42421760   6.107   7.789   3.323 -0.4953 -0.0243  0.6781
   29MOL   C42521761   6.237   7.836   3.390  0.5257 -0.4881  0.4775
   29MOL   C42621762   6.241   7.788   3.533 -0.3252 -0.7599 -0.6854
   29MOL   C42721763   6.363   7.836   3.617  0.0863  0.3869  0.2845
   29MOL   O42821764   6.347   7.826   3.759 -0.7129 -0.5533 -0.1592
   29MOL   C42921765   6.288   7.911   3.836 -0.3751 -0.3727 -0.2100
   29MOL   O43021766   6.239   8.012   3.790  0.0195 -0.2640  0.0372
   29MOL   C43121767   6.257   7.857   3.967 -0.1080  0.2972  0.2014
   29MOL   C43221768   6.323   7.750   4.025 -0.4615  0.4030  0.3478
   29MOL   C43321769   6.296   7.717   4.155  0.3241 -0.5673  0.2458
   29MOL   C43421770   6.186   7.775   4.221 -0.7059  0.4643  0.6032
   29MOL   C43521771   6.161   7.750   4.366  0.5772 -0.3448  0.4865
   29MOL   O43621772   6.089   7.823   4.436  0.5659  0.0736 -0.3069
   29MOL   O43721773   6.222   7.636   4.402 -0.4616 -0.2119 -0.4125
   29MOL   C43821774   6.107   7.876   4.151 -0.1026  0.2292  0.4666
   29MOL   C43921775   6.144   7.914   4.024  0.0873  0.1693  0.1428
   29MOL   H44021776   6.312   7.600   3.470  1.9852 -0.0173  2.1040
   29MOL   H44121777   6.235   7.610   3.636  0.2908 -2.0799 -0.4395
   29MOL   H44221778   6.022   7.623   3.517 -0.1823  2.6827 -2.2156
   29MOL   H44321779   6.092   7.480   3.446  1.4582  0.4076  2.2771
   29MOL   H44421780   6.189   7.606   3.258  0.4940  1.2827 -0.2157
   29MOL   H44521781   5.968   7.670   3.159 -1.2805 -0.0226  0.2454
   29MOL   H44621782   5.885   7.615   3.303  0.1501  1.3631  0.3279
   29MOL   H44721783   6.017   7.829   3.370  0.4669  1.3089  1.4026
   29MOL   H44821784   6.113   7.835   3.224  0.6953  1.2202  1.3036
   29MOL   H44921785   6.333   7.797   3.355  0.7360  0.4551  0.0042
   29MOL   H45021786   6.248   7.944   3.390 -0.4803 -0.3601  1.9178
   29MOL   H45121787   6.155   7.820   3.591  0.0226 -2.8828  1.0789
   29MOL   H45221788   6.385   7.942   3.598  0.4259  0.0017 -1.6185
   29MOL   H45321789   6.453   7.785   3.584 -0.9525 -2.4056  1.6296
   29MOL   H45421790   6.405   7.696   3.980  1.4607  0.9769  3.0142
   29MOL   H45521791   6.355   7.638   4.200  3.6321  0.5662 -1.9158
   29MOL   H45621792   6.021   7.923   4.196  0.1894  1.6045 -0.3783
   29MOL   H45721793   6.096   7.996   3.973  0.1987  0.5891  0.7103
   29MOL   C45821794   6.501   7.313   4.503  0.4053 -0.1867 -0.3892
   29MOL   C45921795   6.369   7.393   4.462 -0.8797  0.2953 -1.5146
   29MOL   C46021796   6.320   7.495   4.570  0.2095  0.2511  0.3567
   29MOL   C46121797   6.205   7.583   4.531 -0.0678 -0.4547 -0.8792
   29MOL   C46221798   6.294   7.416   4.700 -0.4457 -0.0786  0.0927
   29MOL   C46321799   6.424   7.338   4.747 -0.1801 -0.7026 -0.2226
   29MOL   C46421800   6.475   7.247   4.637 -0.7046 -0.0363  0.0024
   29MOL   C46521801   6.590   7.154   4.684 -0.3854  0.2510  0.5693
   29MOL   O46621802   6.541   7.023   4.724 -0.0401 -0.5075 -0.3188
   29MOL   C46721803   6.508   6.998   4.847 -0.1579 -0.2480 -0.2874
   29MOL   O46821804   6.516   7.083   4.937  0.0975 -0.0297  0.0361
   29MOL   C46921805   6.467   6.860   4.873  0.2563 -0.3559  0.0548
   29MOL   C47021806   6.449   6.819   5.007  0.5504 -0.1698  0.4791
   29MOL   C47121807   6.418   6.683   5.035  0.2663  0.1704  0.0999
   29MOL   C47221808   6.394   6.589   4.932  0.4117  0.4108  0.2615
   29MOL   C47321809   6.350   6.450   4.960  0.2762 -0.1509  0.3349
   29MOL   O47421810   6.367   6.355   4.883  0.3574 -0.5928  0.1954
   29MOL   O47521811   6.281   6.440   5.078 -0.4750 -0.4574  0.3698
   29MOL   C47621812   6.420   6.628   4.797  0.1054  0.1231 -0.3174
   29MOL   C47721813   6.456   6.762   4.771 -0.1210  0.6607 -0.7034
   29MOL   H47821814   6.592   7.373   4.497  0.3561 -0.0624  0.0705
   29MOL   H47921815   6.529   7.236   4.432  0.4829 -1.5996  1.1424
   29MOL   H48021816   6.292   7.318   4.442 -2.1964  1.1834  0.0843
   29MOL   H48121817   6.394   7.438   4.366  3.3691 -0.9614 -1.0805
   29MOL   H48221818   6.412   7.554   4.574  1.4834 -1.6390 -0.2249
   29MOL   H48321819   6.185   7.662   4.603  3.7086 -0.4786  0.3098
   29MOL   H48421820   6.115   7.522   4.529  0.1472 -0.8419  0.8230
   29MOL   H48521821   6.216   7.344   4.675  0.4480 -0.8337 -0.5528
   29MOL   H48621822   6.262   7.488   4.776 -0.0187 -1.2256  1.3922
   29MOL   H48721823   6.489   7.420   4.778 -0.5604 -0.1193 -0.9735
   29MOL   H48821824   6.400   7.285   4.840  0.7356  0.5674  0.7580
   29MOL   H48921825   6.390   7.185   4.606 -0.8097  0.0717  0.0776
   29MOL   H49021826   6.652   7.208   4.755 -0.6685 -1.0262  1.8185
   29MOL   H49121827   6.660   7.141   4.601  0.3210  1.1610  1.0165
   29MOL   H49221828   6.455   6.892   5.086  0.5163 -2.0441  2.2403
   29MOL   H49321829   6.404   6.656   5.138  1.3530 -0.3041  0.1304
   29MOL   H49421830   6.408   6.556   4.717 -0.5359  1.3002 -1.2986
   29MOL   H49521831   6.472   6.795   4.670  0.3886 -1.2749 -1.2739
   29MOL   C49621832   5.984   6.374   5.411  0.0325  0.3326  0.0599
   29MOL   C49721833   6.040   6.390   5.274 -0.4058  0.0425  0.4495
   29MOL   C49821834   6.176   6.314   5.265 -0.4306 -0.0382  0.4460
   29MOL   C49921835   6.246   6.305   5.123 -0.1194 -0.3263 -0.1070
   29MOL   C50021836   6.273   6.379   5.360  0.1866 -0.3653 -0.5258
   29MOL   C50121837   6.225   6.364   5.506 -0.0915 -0.1376 -0.3404
   29MOL   C50221838   6.085   6.435   5.514  0.4800  0.3915  1.4906
   29MOL   C50321839   6.035   6.458   5.659 -0.0895  0.4742  0.4392
   29MOL   O50421840   6.045   6.341   5.739 -0.9025  0.2548  0.1984
   29MOL   C50521841   6.131   6.326   5.844 -0.1255  0.4438  0.0567
   29MOL   O50621842   6.206   6.412   5.893  0.2481  0.6532 -0.0862
   29MOL   C50721843   6.121   6.184   5.894 -0.1620 -0.4152 -1.3122
   29MOL   C50821844   6.210   6.146   5.991 -0.9709 -0.2508 -0.2839
   29MOL   C50921845   6.197   6.020   6.041 -0.3892  0.6610 -0.6668
   29MOL   C51021846   6.108   5.924   5.996 -0.1384  0.2741 -0.4391
   29MOL   C51121847   6.116   5.786   6.052  0.9820 -0.1649  0.3824
   29MOL   O51221848   6.199   5.747   6.132 -0.0625 -0.1974 -0.2089
   29MOL   O51321849   6.032   5.696   5.988  0.2509 -0.2765 -0.3516
   29MOL   C51421850   6.015   5.962   5.900  0.8434 -0.5304 -0.1764
   29MOL   C51521851   6.012   6.095   5.859  0.9824  0.4155 -0.4533
   29MOL   H51621852   5.975   6.266   5.430 -1.5638  0.8418  2.4315
   29MOL   H51721853   5.879   6.402   5.418  0.0281 -0.1290  2.7043
   29MOL   H51821854   6.053   6.495   5.248  0.8378  0.1523  1.4606
   29MOL   H51921855   5.973   6.349   5.199  2.0138 -2.7073 -0.2771
   29MOL   H52021856   6.159   6.210   5.290  0.1140  0.0501  1.2057
   29MOL   H52121857   6.172   6.276   5.049 -0.5772 -1.0003  0.6166
   29MOL   H52221858   6.338   6.247   5.111  0.4138  0.7064 -1.1315
   29MOL   H52321859   6.289   6.486   5.343  0.1402 -0.4429 -1.0657
   29MOL   H52421860   6.373   6.338   5.351  0.0105 -1.1306  0.9003
   29MOL   H52521861   6.214   6.257   5.527  0.3871 -0.8114 -3.3634
   29MOL   H52621862   6.298   6.404   5.577 -2.7383  1.6650  1.4895
   29MOL   H52721863   6.092   6.537   5.476  1.5234 -0.0460  0.4748
   29MOL   H52821864   5.936   6.502   5.674 -0.8284 -1.2883  0.9587
   29MOL   H52921865   6.103   6.532   5.700  0.3650 -0.8426  2.1616
   29MOL   H53021866   6.284   6.211   6.034 -0.8698 -0.8498  0.4598
   29MOL   H53121867   6.264   5.984   6.117 -1.1098 -2.1370 -1.2855
   29MOL   H53221868   5.927   5.905   5.876 -1.4880  2.5314  0.7247
   29MOL   H53321869   5.937   6.125   5.787 -0.4857  0.9370  1.2554
   29MOL   C53421870   5.894   5.245   5.854  0.3722  0.1412 -0.0601
   29MOL   C53521871   5.955   5.335   5.958  0.4978 -0.1184 -1.2980
   29MOL   C53621872   5.935   5.485   5.930 -0.3151  0.6696 -0.1136
   29MOL   C53721873   6.020   5.564   6.038 -0.0475  0.8038 -0.3050
   29MOL   C53821874   5.990   5.511   5.790  0.2460  0.3268  0.0936
   29MOL   C53921875   5.928   5.418   5.676  0.2634 -0.5391  0.1370
   29MOL   C54021876   5.946   5.272   5.712  0.1956  0.0473 -0.1657
   29MOL   C54121877   5.887   5.180   5.601  0.3221  0.1097 -0.1060
   29MOL   O54221878   5.939   5.210   5.470  0.3892  0.7444  0.6257
   29MOL   C54321879   5.890   5.146   5.370  0.4474  0.4265  0.4563
   29MOL   O54421880   5.805   5.055   5.381 -0.2715 -0.5530  0.4997
   29MOL   C54521881   5.939   5.194   5.236 -0.3667  0.4576 -0.2913
   29MOL   C54621882   5.906   5.125   5.124 -0.2324  0.1071 -0.8324
   29MOL   C54721883   5.963   5.157   5.001 -0.4050 -0.3871 -0.4533
   29MOL   C54821884   6.055   5.261   4.989  0.3685  0.2481 -0.3351
   29MOL   C54921885   6.118   5.292   4.861 -0.0049 -0.1129  0.7402
   29MOL   O55021886   6.091   5.238   4.751 -0.3478 -0.2153 -0.2254
   29MOL   O55121887   6.210   5.388   4.875 -0.5621  0.5505 -0.2090
   29MOL   C55221888   6.082   5.345   5.103 -0.9237 -0.6676  0.0477
   29MOL   C55321889   6.027   5.308   5.225  0.5064 -0.0937 -1.3267
   29MOL   H55421890   5.785   5.240   5.856  0.4434 -1.6421  0.6721
   29MOL   H55521891   5.924   5.141   5.863  1.5454  0.4697 -0.1379
   29MOL   H55621892   6.057   5.301   5.972 -0.5770 -3.2578 -0.5288
   29MOL   H55721893   5.907   5.324   6.056 -0.7005  0.6885 -1.7868
   29MOL   H55821894   5.829   5.509   5.938 -0.1685  1.0656  0.6634
   29MOL   H55921895   6.119   5.519   6.042 -0.1624  0.6353  0.6923
   29MOL   H56021896   5.969   5.558   6.134  2.3554  1.6148  1.0544
   29MOL   H56121897   6.097   5.493   5.796  0.1444 -0.8088 -1.0584
   29MOL   H56221898   5.973   5.614   5.758 -0.8906  0.2593  0.4611
   29MOL   H56321899   5.823   5.437   5.655 -0.1593  0.2097  2.8411
   29MOL   H56421900   5.987   5.440   5.587 -2.5332  0.5935 -1.5059
   29MOL   H56521901   6.054   5.254   5.716  0.4899  1.0253 -2.5709
   29MOL   H56621902   5.779   5.170   5.597  0.4705 -1.1993 -1.0741
   29MOL   H56721903   5.931   5.083   5.625 -1.7888 -1.0052 -0.6508
   29MOL   H56821904   5.836   5.045   5.143 -1.3592  1.4183  0.6706
   29MOL   H56921905   5.935   5.097   4.916  0.5173  0.5087 -1.3990
   29MOL   H57021906   6.153   5.426   5.106 -0.2172 -1.3196  1.9140
   29MOL   H57121907   6.051   5.373   5.308 -0.7365 -0.7758 -0.4192
   29MOL   C57221908   6.594   5.644   4.714  0.1452  0.1251 -0.2424
   29MOL   C57321909   6.480   5.551   4.677  0.2967 -0.4051 -0.1363
   29MOL   C57421910   6.382   5.537   4.796  0.1046 -0.0403 -0.1991
   29MOL   C57521911   6.278   5.434   4.759 -0.4645 -0.2386  0.3870
   29MOL   C57621912   6.461   5.489   4.920 -0.2085 -0.5951  0.3547
   29MOL   C57721913   6.579   5.575   4.961 -0.3603  0.1842 -0.3141
   29MOL   C57821914   6.668   5.600   4.842 -0.9375  0.4357 -0.0200
   29MOL   C57921915   6.786   5.687   4.878 -0.5117  0.0983  1.1362
   29MOL   O58021916   6.899   5.654   4.793 -0.4617  0.4327 -0.2238
   29MOL   C58121917   7.016   5.709   4.824  0.3057  0.1330 -0.3923
   29MOL   O58221918   7.026   5.802   4.906 -0.2093  0.5107  0.1235
   29MOL   C58321919   7.131   5.638   4.762 -0.4495  0.5136  0.3684
   29MOL   C58421920   7.262   5.664   4.809  0.0286 -0.4630 -0.6863
   29MOL   C58521921   7.366   5.579   4.759 -0.7181 -0.1817  0.4762
   29MOL   C58621922   7.347   5.480   4.659  0.4275  0.1106  0.1184
   29MOL   C58721923   7.472   5.421   4.610 -0.0590 -0.0875 -0.7021
   29MOL   O58821924   7.584   5.449   4.648 -0.5509  0.0620 -0.0281
   29MOL   O58921925   7.448   5.315   4.528  0.0662 -0.0131  0.3979
   29MOL   C59021926   7.218   5.459   4.613 -0.4885  0.0110 -0.1523
   29MOL   C59121927   7.111   5.536   4.668 -0.5580  0.0047  0.1340
   29MOL   H59221928   6.548   5.741   4.734 -0.2252 -0.3425  1.2413
   29MOL   H59321929   6.672   5.654   4.638 -0.6677  1.9261 -0.8722
   29MOL   H59421930   6.534   5.460   4.652  1.6847 -0.3988  2.6280
   29MOL   H59521931   6.434   5.592   4.587 -0.0986  0.7750  0.5798
   29MOL   H59621932   6.323   5.626   4.814  0.2705  0.2760 -1.1875
   29MOL   H59721933   6.331   5.352   4.709 -1.2711 -0.5688  0.0596
   29MOL   H59821934   6.200   5.465   4.689 -0.5405 -2.1499 -0.4217
   29MOL   H59921935   6.489   5.385   4.903  1.7602 -0.2554  1.3738
   29MOL   H60021936   6.383   5.491   4.996  0.0365 -1.9139  0.6514
   29MOL   H60121937   6.533   5.667   4.996 -0.2355  0.0487  0.2080
   29MOL   H60221938   6.627   5.519   5.041  0.4889  0.7407 -0.4238
   29MOL   H60321939   6.716   5.504   4.823 -0.2615  0.7304  0.1497
   29MOL   H60421940   6.819   5.678   4.981  1.4821 -0.0003  0.5114
   29MOL   H60521941   6.753   5.788   4.857  0.6303  0.5250  1.3632
   29MOL   H60621942   7.287   5.734   4.888  1.1553  0.4959 -1.8691
   29MOL   H60721943   7.464   5.614   4.788 -2.1943  3.5764  1.1256
   29MOL   H60821944   7.194   5.387   4.537  0.8082 -0.4977 -0.0876
   29MOL   H60921945   7.009   5.520   4.637 -0.5334  1.0804 -0.5281
   29MOL   C61021946   7.439   5.356   4.101  0.0044  0.1041  0.3090
   29MOL   C61121947   7.441   5.291   4.233  0.4301 -0.4368 -0.4615
   29MOL   C61221948   7.568   5.322   4.320 -0.3364  0.0424  0.2257
   29MOL   C61321949   7.559   5.249   4.458  0.6165 -0.5937 -0.3248
   29MOL   C61421950   7.688   5.291   4.238  0.0724 -0.0600  0.0389
   29MOL   C61521951   7.697   5.365   4.104  0.0969 -0.3593  0.6043
   29MOL   C61621952   7.571   5.339   4.017  0.5618  0.2922  0.2051
   29MOL   C61721953   7.572   5.417   3.884 -0.4013  0.4881 -0.1799
   29MOL   O61821954   7.573   5.556   3.913  0.5415  0.7215 -0.7092
   29MOL   C61921955   7.550   5.637   3.806 -0.7100 -0.7609 -0.2854
   29MOL   O62021956   7.561   5.598   3.690  0.0840 -0.3661  0.2341
   29MOL   C62121957   7.532   5.779   3.835 -0.0367  0.4108  0.3526
   29MOL   C62221958   7.589   5.877   3.751  0.2156 -0.7787 -0.0467
   29MOL   C62321959   7.564   6.012   3.771 -0.0895  0.1930 -0.6149
   29MOL   C62421960   7.471   6.053   3.868  0.0636 -0.0550  0.0240
   29MOL   C62521961   7.419   6.183   3.886 -0.0585 -0.5076  0.5930
   29MOL   O62621962   7.320   6.199   3.967 -0.0857 -0.0558 -0.1496
   29MOL   O62721963   7.463   6.276   3.798 -0.1597 -0.3394  0.6003
   29MOL   C62821964   7.420   5.948   3.950 -0.1174  0.0378 -0.9121
   29MOL   C62921965   7.459   5.812   3.945  0.0588 -0.3470 -0.0448
   29MOL   H63021966   7.401   5.457   4.116 -2.1584 -0.6907  0.4288
   29MOL   H63121967   7.350   5.311   4.056  0.1333  0.2980 -0.1437
   29MOL   H63221968   7.448   5.182   4.224 -1.5208 -0.4135 -2.7695
   29MOL   H63321969   7.356   5.320   4.294  1.7826  0.5826  0.9663
   29MOL   H63421970   7.585   5.429   4.338 -1.5524  0.6427 -1.9892
   29MOL   H63521971   7.653   5.262   4.512 -0.0025  1.2743  0.3458
   29MOL   H63621972   7.540   5.143   4.440  0.4744 -0.5831 -0.2409
   29MOL   H63721973   7.717   5.186   4.231  1.6711  0.3097  0.8688
   29MOL   H63821974   7.770   5.322   4.304 -1.3457  0.0420  1.8041
   29MOL   H63921975   7.710   5.473   4.117  0.9147  0.0654 -3.1790
   29MOL   H64021976   7.791   5.341   4.055 -0.5570  1.0607 -1.4119
   29MOL   H64121977   7.572   5.234   3.986  0.1231  0.6897 -1.1566
   29MOL   H64221978   7.478   5.394   3.834  0.4231 -0.8394 -1.1500
   29MOL   H64321979   7.656   5.382   3.825 -1.1129  0.1682 -1.0140
   29MOL   H64421980   7.645   5.847   3.663  1.4071  0.2250  0.3652
   29MOL   H64521981   7.594   6.086   3.699  0.9322  2.4054  2.0052
   29MOL   H64621982   7.346   5.970   4.026  0.7246 -0.6927  0.1410
   29MOL   H64721983   7.414   5.737   4.008 -2.8254  0.6490 -0.8555
   29MOL   C64821984   7.165   6.417   3.516  0.8688  0.1117  0.3474
   29MOL   C64921985   7.299   6.397   3.581 -0.4967  0.1746  0.3257
   29MOL   C65021986   7.276   6.420   3.732  1.2217 -0.0099  0.1488
   29MOL   C65121987   7.409   6.409   3.803 -0.3085 -0.2667 -0.3312
   29MOL   C65221988   7.198   6.559   3.764  0.2064  0.5016  0.1219
   29MOL   C65321989   7.069   6.592   3.683  0.0015  0.2924  0.5496
   29MOL   C65421990   7.097   6.550   3.534 -0.3746 -0.1927 -0.1635
   29MOL   C65521991   6.963   6.550   3.446  0.0174  0.3968  0.4509
   29MOL   O65621992   6.907   6.679   3.444  0.3331 -0.5950 -0.3581
   29MOL   C65721993   6.885   6.744   3.327 -0.3924  0.0854 -0.2972
   29MOL   O65821994   6.898   6.693   3.214  0.0554  0.3076  0.2927
   29MOL   C65921995   6.854   6.888   3.355  0.6086 -0.6419  0.2381
   29MOL   C66021996   6.832   6.975   3.248  0.3136  0.3057 -0.5221
   29MOL   C66121997   6.805   7.111   3.269  0.5067  0.0968 -0.0426
   29MOL   C66221998   6.789   7.161   3.396  0.1505  0.0117 -0.4981
   29MOL   C66321999   6.769   7.308   3.405 -0.6353  0.6886  0.0185
   29MOL   O66422000   6.711   7.365   3.496 -0.3971 -0.1700 -0.2392
   29MOL   O66522001   6.826   7.377   3.301 -0.3732  0.3197 -0.0559
   29MOL   C66622002   6.807   7.078   3.508  0.0297 -0.6044  0.1426
   29MOL   C66722003   6.836   6.940   3.489 -0.5862 -0.3727  0.7094
   29MOL   H66822004   7.102   6.334   3.545 -0.7043  1.3238  0.4530
   29MOL   H66922005   7.176   6.385   3.412 -1.4271  0.3413  0.0230
   29MOL   H67022006   7.359   6.481   3.548 -1.6440  0.6805 -0.5180
   29MOL   H67122007   7.350   6.305   3.555 -2.1421 -0.9221  0.9084
   29MOL   H67222008   7.212   6.338   3.764 -0.0795  1.5189  1.5281
   29MOL   H67322009   7.409   6.448   3.905 -0.0138  1.3372 -0.9198
   29MOL   H67422010   7.479   6.483   3.764 -0.7248 -0.2755 -1.0977
   29MOL   H67522011   7.269   6.639   3.746 -1.1560  1.3282 -1.6971
   29MOL   H67622012   7.181   6.563   3.871 -2.7781  1.9769 -0.3369
   29MOL   H67722013   6.992   6.520   3.711 -0.6105  0.7701  0.1251
   29MOL   H67822014   7.025   6.691   3.689 -0.2065  0.2785 -0.6569
   29MOL   H67922015   7.174   6.613   3.489  0.4273 -0.9781  0.1055
   29MOL   H68022016   6.894   6.480   3.493  1.7178 -2.0051 -0.5491
   29MOL   H68122017   6.986   6.499   3.353  1.3741 -0.8411  1.4307
   29MOL   H68222018   6.833   6.933   3.148  1.0860 -0.2762 -0.2729
   29MOL   H68322019   6.787   7.175   3.185  3.0946  1.0054  0.0349
   29MOL   H68422020   6.802   7.121   3.607 -1.2839 -0.4883  0.0368
   29MOL   H68522021   6.842   6.877   3.576 -2.1694 -1.1432  0.2784
   29MOL   C68622022   7.080   7.711   3.501  0.0186  0.4241  0.9871
   29MOL   C68722023   6.950   7.630   3.480 -0.1695  0.2277  0.6406
   29MOL   C68822024   6.943   7.586   3.328 -0.5230  1.0498  0.6182
   29MOL   C68922025   6.808   7.515   3.300 -0.2891 -0.5570 -0.2229
   29MOL   C69022026   6.955   7.715   3.241 -0.0449  0.9083  0.1468
   29MOL   C69122027   7.096   7.776   3.247 -0.5175  0.4054 -0.4241
   29MOL   C69222028   7.108   7.826   3.397 -1.1863  0.5965  0.1494
   29MOL   C69322029   7.250   7.880   3.426  1.3010  0.8574  0.3359
   29MOL   O69422030   7.282   7.989   3.347  0.3246  0.3636  0.6005
   29MOL   C69522031   7.410   0.009   3.362 -0.0499  0.3610  0.2458
   29MOL   O69622032   7.485   8.006   3.457  0.1163 -0.0190  0.3035
   29MOL   C69722033   7.436   0.115   3.254  0.0012 -0.3463 -0.1437
   29MOL   C69822034   7.572   0.155   3.249 -0.4840 -0.7167 -0.8068
   29MOL   C69922035   7.605   0.252   3.156 -0.4735 -0.0846 -0.1363
   29MOL   C70022036   7.510   0.311   3.078  0.8732 -0.3890  0.3613
   29MOL   C70122037   7.557   0.418   2.986 -0.3602 -1.0383 -0.2519
   29MOL   O70222038   7.478   0.506   2.943  0.2386  0.1131 -0.0084
   29MOL   O70322039   7.683   0.396   2.941 -0.0508  0.3080 -0.9255
   29MOL   C70422040   7.370   0.277   3.089  0.0795 -0.2684  0.1083
   29MOL   C70522041   7.331   0.184   3.187  0.1378  0.4769 -0.1129
   29MOL   H70622042   7.170   7.653   3.521  1.7431  2.6605 -0.0002
   29MOL   H70722043   7.053   7.768   3.589 -1.5787 -0.9373  1.3950
   29MOL   H70822044   6.860   7.690   3.488  0.0077  0.6824 -0.5557
   29MOL   H70922045   6.936   7.548   3.550 -1.0097 -1.6201 -1.5963
   29MOL   H71022046   7.032   7.525   3.310 -0.6574  0.9372  0.3401
   29MOL   H71122047   6.774   7.532   3.198 -0.4896 -2.3427 -0.4540
   29MOL   H71222048   6.723   7.545   3.361 -1.4145 -0.7702 -1.6531
   29MOL   H71322049   6.878   7.783   3.277 -1.1875  0.2700 -1.0412
   29MOL   H71422050   6.934   7.705   3.134 -2.8460 -2.0401  0.8862
   29MOL   H71522051   7.174   7.700   3.237 -2.4448 -1.8438  1.2134
   29MOL   H71622052   7.110   7.859   3.178 -1.5101 -0.2652 -1.4381
   29MOL   H71722053   7.037   7.902   3.429 -1.5912  0.0722  0.5209
   29MOL   H71822054   7.320   7.800   3.401 -0.4297  0.4227 -3.3786
   29MOL   H71922055   7.267   7.909   3.530  1.0234 -1.9228  1.1956
   29MOL   H72022056   7.642   0.113   3.320 -0.9975 -1.7032 -0.8770
   29MOL   H72122057   7.706   0.289   3.143 -0.2242  0.2615  2.5623
   29MOL   H72222058   7.292   0.315   3.025 -0.0763 -2.2392 -0.8774
   29MOL   H72322059   7.228   0.153   3.189  0.6837 -1.6693 -2.4482
   29MOL   C72422060   7.646   0.167   2.582  0.2554  0.2183  0.0692
   29MOL   C72522061   7.704   0.245   2.710  0.5826 -0.0898 -0.2809
   29MOL   C72622062   7.674   0.396   2.701 -1.0364  0.0362 -0.0661
   29MOL   C72722063   7.733   0.466   2.828 -0.0602  0.1360 -0.5578
   29MOL   C72822064   7.719   0.451   2.564 -0.2719 -0.1087 -0.6676
   29MOL   C72922065   7.642   0.386   2.448  0.0991 -1.3177 -0.2871
   29MOL   C73022066   7.676   0.235   2.448  0.1325  0.5071  0.1061
   29MOL   C73122067   7.598   0.160   2.337  0.4967  0.7354 -0.4050
   29MOL   O73222068   7.635   0.024   2.337  0.3016  0.3270 -0.1129
   29MOL   C73322069   7.547   7.961   2.317 -0.4672  0.5537  0.1282
   29MOL   O73422070   7.429   7.983   2.305  0.3168 -0.2233  0.1935
   29MOL   C73522071   7.607   7.822   2.301  0.1891 -0.5191 -0.0433
   29MOL   C73622072   7.515   7.718   2.267 -0.0100  1.1215  0.0543
   29MOL   C73722073   7.563   7.584   2.257  0.1473 -0.7726  0.0750
   29MOL   C73822074   7.700   7.556   2.270  0.2973 -0.3190 -0.5150
   29MOL   C73922075   7.745   7.412   2.266  0.0258  0.4693  1.2658
   29MOL   O74022076   7.850   7.372   2.214 -0.6063  0.0302  1.0415
   29MOL   O74122077   7.658   7.337   2.332 -0.6131 -0.3700 -0.4751
   29MOL   C74222078   7.786   7.660   2.302 -0.0190 -1.2980 -0.5126
   29MOL   C74322079   7.741   7.791   2.316  0.2237  0.0737  0.3396
   29MOL   H74422080   7.538   0.150   2.592 -0.0955  1.3199 -1.6153
   29MOL   H74522081   7.691   0.068   2.588  0.9655  0.6267  1.6490
   29MOL   H74622082   7.811   0.230   2.727  0.4134 -0.1878  0.7151
   29MOL   H74722083   7.652   0.207   2.798 -0.4400 -1.6577 -1.5255
   29MOL   H74822084   7.566   0.385   2.702 -0.8499 -2.0072  0.8220
   29MOL   H74922085   7.694   0.567   2.841  0.4466  0.1536  0.9894
   29MOL   H75022086   7.842   0.470   2.831 -0.1044  0.6612  0.3999
   29MOL   H75122087   7.824   0.425   2.554  0.1504  1.1441  0.3518
   29MOL   H75222088   7.705   0.559   2.560  1.8010  0.1965 -0.0130
   29MOL   H75322089   7.537   0.405   2.469  0.9832  2.4115  1.0744
   29MOL   H75422090   7.675   0.419   2.350 -0.2153  1.6174  0.5536
   29MOL   H75522091   7.784   0.219   2.439  0.2495  1.3865 -0.1570
   29MOL   H75622092   7.633   0.208   2.245 -1.5196 -0.0754 -1.6242
   29MOL   H75722093   7.491   0.181   2.345  0.8395  2.2843  0.2313
   29MOL   H75822094   7.409   7.736   2.250 -0.4989  0.0847  1.8038
   29MOL   H75922095   7.492   7.504   2.242 -1.7137  1.0020 -0.7855
   29MOL   H76022096   7.891   7.643   2.316  0.5708  3.2992  1.7433
   29MOL   H76122097   7.820   7.865   2.327  1.1557 -0.9044  0.3129
   29MOL   H76222098   7.688   7.251   2.354 -1.1608 -0.2745  0.7119
   30MOL     C122099   0.819   5.609   4.852  0.8029 -0.4442  1.0191
   30MOL     C222100   0.847   5.453   4.846 -0.0320  0.6948  0.6336
   30MOL     C322101   0.836   5.396   4.987 -0.2265 -0.2865 -1.1857
   30MOL     C422102   0.855   5.242   5.001  0.0544  0.8605 -0.5611
   30MOL     C522103   0.926   5.468   5.089  0.4114  0.0664 -0.0416
   30MOL     C622104   0.882   5.614   5.100  0.6934  0.4305 -0.2113
   30MOL     C722105   0.892   5.683   4.967 -0.3682 -0.4710 -0.0902
   30MOL     C822106   0.840   5.830   4.978  0.1141  0.3183  0.0602
   30MOL     O922107   0.871   5.897   4.858  0.5591 -0.3440 -0.2573
   30MOL    C1022108   0.821   6.022   4.834  0.2119 -0.3292  0.1383
   30MOL    O1122109   0.742   6.083   4.913 -0.4161  0.0175 -0.4049
   30MOL    C1222110   0.874   6.080   4.705 -0.7502  0.5112  0.0588
   30MOL    C1322111   0.922   5.994   4.600 -0.2309 -0.5869 -0.5150
   30MOL    C1422112   0.980   6.055   4.483  0.0991 -0.6643  0.1574
   30MOL    C1522113   0.994   6.193   4.470  0.1541 -0.5456 -0.3430
   30MOL    C1622114   1.044   6.242   4.341  0.6428 -0.6658  0.0292
   30MOL    O1722115   1.105   6.171   4.257 -0.2062 -0.0556  0.5120
   30MOL    O1822116   1.010   6.373   4.326  0.1096  0.3287  0.3584
   30MOL    C1922117   0.941   6.273   4.572 -0.3012 -0.5509  0.2396
   30MOL    C2022118   0.886   6.216   4.691  0.9967 -0.0418  0.6450
   30MOL    H2122119   0.710   5.616   4.861  0.3728 -3.2139 -1.1566
   30MOL    H2222120   0.854   5.653   4.758 -0.6974 -1.6113 -0.1141
   30MOL    H2322121   0.951   5.433   4.823 -0.3057  0.4874 -0.4484
   30MOL    H2422122   0.777   5.402   4.779  1.3380 -2.0630  1.2239
   30MOL    H2522123   0.735   5.405   5.027  0.2479 -1.2376  0.3023
   30MOL    H2622124   0.957   5.214   4.974  0.2839  0.7368  0.4276
   30MOL    H2722125   0.767   5.195   4.957 -0.8488  2.3569 -0.3751
   30MOL    H2822126   1.030   5.466   5.056  0.0773 -1.6854 -1.0305
   30MOL    H2922127   0.919   5.422   5.187 -0.2113  1.9533  0.8314
   30MOL    H3022128   0.789   5.626   5.156  0.2722  1.0317 -1.0359
   30MOL    H3122129   0.965   5.655   5.158  0.5574 -0.0833  0.3475
   30MOL    H3222130   0.996   5.696   4.939 -0.2723  0.3820  0.6133
   30MOL    H3322131   0.874   5.892   5.062 -3.0595  4.0960 -1.2630
   30MOL    H3422132   0.732   5.815   4.981  0.1245 -0.0385 -1.1155
   30MOL    H3522133   0.898   5.888   4.599  0.2494 -0.7372  1.6204
   30MOL    H3622134   0.996   5.985   4.402  0.9302 -0.0127 -0.2402
   30MOL    H3722135   0.935   6.381   4.563 -2.2098 -0.5199  1.5452
   30MOL    H3822136   0.837   6.276   4.765 -1.9982 -2.6889  0.9545
   30MOL    H3922137   0.854   5.209   5.105 -0.0511  0.8723 -0.5591
   30MOL    C4022138   0.650   6.487   4.133 -0.1199  0.0776 -0.0451
   30MOL    C4122139   0.773   6.422   4.183 -0.4052  0.4685 -0.0391
   30MOL    C4222140   0.900   6.510   4.171  0.1828  0.0020  0.4041
   30MOL    C4322141   1.027   6.433   4.206  0.1836  0.1221  1.0944
   30MOL    C4422142   0.921   6.583   4.036 -0.2723 -0.3082  1.0203
   30MOL    C4522143   0.789   6.620   3.963  0.1365  0.2929 -0.0758
   30MOL    C4622144   0.668   6.521   3.982  0.6682 -0.2631  0.5200
   30MOL    C4722145   0.532   6.574   3.930  0.4685  0.0842 -0.0231
   30MOL    O4822146   0.416   6.510   3.977  0.0519  0.4328  0.1220
   30MOL    C4922147   0.299   6.549   3.914 -0.1595 -0.2506 -0.8646
   30MOL    O5022148   0.297   6.642   3.837  0.0326 -0.5355  0.5105
   30MOL    C5122149   0.185   6.459   3.952 -0.0984 -0.2470  0.6326
   30MOL    C5222150   0.067   6.477   3.877 -0.2125  0.7384  0.0550
   30MOL    C5322151   7.990   6.394   3.908  0.2421  0.3381 -0.4115
   30MOL    C5422152   7.999   6.298   4.011  0.1281 -0.1481 -0.1818
   30MOL    C5522153   7.871   6.217   4.033 -0.2128  0.2920  0.2658
   30MOL    O5622154   7.768   6.234   3.971  0.2439  0.3516  0.4500
   30MOL    O5722155   7.882   6.129   4.135 -0.3638 -0.1970  0.3921
   30MOL    C5822156   0.083   6.282   4.083 -0.2641 -0.1341 -0.2762
   30MOL    C5922157   0.189   6.369   4.059 -0.0946  0.6796 -0.0953
   30MOL    H6022158   0.626   6.575   4.193  0.4671  0.3786 -0.2409
   30MOL    H6122159   0.572   6.411   4.138  0.5143 -0.5176  1.2876
   30MOL    H6222160   0.795   6.342   4.112 -0.2095  0.5931 -0.1214
   30MOL    H6322161   0.763   6.376   4.281 -0.3737  1.0617  0.2419
   30MOL    H6422162   0.886   6.580   4.253 -0.1333 -0.8801  1.1161
   30MOL    H6522163   1.095   6.517   4.215  0.7120 -0.1536 -0.1080
   30MOL    H6622164   1.049   6.367   4.122  0.4064  1.7867 -0.1807
   30MOL    H6722165   0.973   6.521   3.963 -0.0657  0.8180  0.2094
   30MOL    H6822166   0.974   6.677   4.032 -1.5225  0.4538  1.8463
   30MOL    H6922167   0.762   6.718   4.002  2.2514  0.8355  0.0527
   30MOL    H7022168   0.813   6.635   3.857  0.0641 -1.8184 -0.4199
   30MOL    H7122169   0.698   6.430   3.930  0.5187 -0.4957  0.8424
   30MOL    H7222170   0.521   6.552   3.824 -2.1165  0.4681  0.1330
   30MOL    H7322171   0.513   6.679   3.948 -2.3792 -0.0153 -2.1421
   30MOL    H7422172   0.063   6.539   3.789  1.3775 -1.8567 -1.9233
   30MOL    H7522173   7.900   6.415   3.853  0.3560 -0.7203 -1.0220
   30MOL    H7622174   0.090   6.213   4.167 -0.5068 -1.4625 -1.3272
   30MOL    H7722175   0.271   6.368   4.128  0.1436 -0.1750 -0.3856
   30MOL    C7822176   8.028   5.728   4.245  0.0479  0.4641 -0.3228
   30MOL    C7922177   7.979   5.881   4.255  1.1222 -0.3774  0.4110
   30MOL    C8022178   7.842   5.900   4.181  0.2034  0.0494  0.0469
   30MOL    C8122179   7.782   6.040   4.188 -0.0066  0.7504  0.2608
   30MOL    C8222180   7.852   5.855   4.037 -0.0622  0.2619 -0.4723
   30MOL    C8322181   7.885   5.710   4.031 -0.2418 -0.1251 -0.3668
   30MOL    C8422182   8.020   5.681   4.099  0.0154  0.3122  0.9823
   30MOL    C8522183   0.032   5.537   4.088 -0.2841  0.1829  0.5362
   30MOL    O8622184   8.016   5.479   3.970 -0.8606 -0.2585  0.0663
   30MOL    C8722185   0.064   5.409   3.890 -0.7125 -0.3843 -0.0867
   30MOL    O8822186   0.186   5.391   3.907  0.2766  0.1987  0.2920
   30MOL    C8922187   8.023   5.341   3.779  0.0521 -0.0554  0.2304
   30MOL    C9022188   7.904   5.396   3.731 -0.6998 -0.1183  0.4941
   30MOL    C9122189   7.830   5.327   3.635 -0.0067  0.0159 -0.0722
   30MOL    C9222190   7.876   5.203   3.585 -0.3826  0.6190  0.1782
   30MOL    C9322191   7.790   5.121   3.496  0.5012  0.4095 -0.0598
   30MOL    O9422192   7.677   5.148   3.465 -0.3453 -0.3300  0.4536
   30MOL    O9522193   7.857   5.015   3.453  0.5901  0.7766  0.3123
   30MOL    C9622194   8.000   5.154   3.634  0.0933  0.3443 -0.3816
   30MOL    C9722195   0.039   5.216   3.732  0.2130 -0.2876  0.4534
   30MOL    H9822196   7.969   5.658   4.305  0.6328  2.1816  2.3192
   30MOL    H9922197   0.095   5.719   4.288 -0.8073 -1.0460  1.4176
   30MOL   H10022198   0.027   5.942   4.214  0.2337  0.3626 -0.2583
   30MOL   H10122199   7.954   5.896   4.360  0.4611 -1.7334  0.4635
   30MOL   H10222200   7.771   5.832   4.229 -0.8995  1.3176  0.2508
   30MOL   H10322201   7.739   6.071   4.283  0.3637  0.5460  0.4932
   30MOL   H10422202   7.699   6.059   4.120  0.1975  0.7688  0.0160
   30MOL   H10522203   7.916   5.929   3.989 -0.5214  1.4717  0.7381
   30MOL   H10622204   7.763   5.871   3.977  0.4505 -0.4281 -1.4297
   30MOL   H10722205   7.804   5.662   4.085  0.2564  0.8772  1.2860
   30MOL   H10822206   7.884   5.678   3.927 -1.1643 -1.1130 -0.0573
   30MOL   H10922207   0.050   5.748   4.039 -1.0341 -1.0584 -1.6953
   30MOL   H11022208   8.026   5.469   4.164  0.7075  1.5262  2.2593
   30MOL   H11122209   0.141   5.536   4.091 -0.2391  0.3213 -0.5657
   30MOL   H11222210   7.877   5.496   3.762 -0.6661  0.0639 -0.0592
   30MOL   H11322211   7.732   5.362   3.607 -1.1839  1.3127  5.2394
   30MOL   H11422212   0.013   5.061   3.600 -1.7954  0.0357 -2.2150
   30MOL   H11522213   0.133   5.178   3.768 -0.5839 -1.2216  1.5673
   30MOL   C11622214   7.912   4.640   3.141 -0.2941 -0.7441  0.2960
   30MOL   C11722215   7.805   4.720   3.215 -0.1260 -0.6443 -0.1051
   30MOL   C11822216   7.887   4.825   3.294 -0.3411  0.3869 -0.7471
   30MOL   C11922217   7.789   4.909   3.384 -0.1911 -0.2031  0.9373
   30MOL   C12022218   8.001   4.766   3.387  0.1797  0.1673  0.6936
   30MOL   C12122219   0.061   4.676   3.307  0.0711 -0.2819 -0.2193
   30MOL   C12222220   8.001   4.570   3.246  0.4456 -0.1762  0.0234
   30MOL   C12322221   0.051   4.443   3.199  0.3068 -0.2740  0.1989
   30MOL   O12422222   0.161   4.496   3.121  0.1635  0.2822 -0.2387
   30MOL   C12522223   0.235   4.412   3.047 -0.1886 -0.3646 -0.3727
   30MOL   O12622224   0.226   4.290   3.054 -0.2866 -0.5607  0.0152
   30MOL   C12722225   0.319   4.482   2.952 -0.1054  0.1969  0.2172
   30MOL   C12822226   0.406   4.404   2.877  0.3936 -0.1168  0.1729
   30MOL   C12922227   0.489   4.466   2.780  0.2491  0.1026 -0.7067
   30MOL   C13022228   0.485   4.606   2.758  0.0850  0.2844 -0.4855
   30MOL   C13122229   0.571   4.665   2.647 -0.1700  0.3586  0.1890
   30MOL   O13222230   0.630   4.595   2.563  0.5566 -0.3379  0.2222
   30MOL   O13322231   0.563   4.799   2.636  0.6317 -0.1157  0.2043
   30MOL   C13422232   0.395   4.683   2.829 -0.2410 -0.2746  0.2102
   30MOL   C13522233   0.310   4.620   2.921 -0.3319 -0.1922  0.0870
   30MOL   H13622234   7.973   4.698   3.072  0.5663  0.0458  1.6984
   30MOL   H13722235   7.850   4.569   3.086 -0.9105 -2.0093  2.5661
   30MOL   H13822236   7.760   4.653   3.289 -0.5817  2.3285  2.3861
   30MOL   H13922237   7.729   4.772   3.156  0.3694 -0.3852 -0.5169
   30MOL   H14022238   7.943   4.883   3.220  2.4789 -0.6964  0.4611
   30MOL   H14122239   7.739   4.835   3.446 -0.9387 -0.7744 -0.3340
   30MOL   H14222240   7.714   4.942   3.312  0.9582  0.2025 -0.1017
   30MOL   H14322241   7.953   4.713   3.469  0.9352  0.3877  1.2814
   30MOL   H14422242   0.017   4.847   3.441  1.7696 -0.4019  0.1777
   30MOL   H14522243   0.128   4.727   3.238  0.4762 -0.6389 -0.0928
   30MOL   H14622244   0.128   4.635   3.383  0.4637 -0.8758 -0.8764
   30MOL   H14722245   7.934   4.536   3.325  1.1925  2.0783  1.6576
   30MOL   H14822246   8.023   4.368   3.148 -2.3933  0.7471  1.7937
   30MOL   H14922247   0.108   4.393   3.277  0.9386 -0.6937 -0.5165
   30MOL   H15022248   0.417   4.300   2.904 -0.2372 -0.2735 -0.1743
   30MOL   H15122249   0.550   4.400   2.720  2.2823  1.8037 -0.5945
   30MOL   H15222250   0.376   4.784   2.797 -1.0600 -0.7148 -0.7230
   30MOL   H15322251   0.234   4.675   2.975 -1.7385 -2.8186  0.8658
   30MOL   C15422252   0.696   5.184   2.754  0.0662  0.0423 -0.7476
   30MOL   C15522253   0.691   5.038   2.703 -0.1900  0.0387  0.9375
   30MOL   C15622254   0.632   5.013   2.567 -0.3855 -0.1578 -0.3414
   30MOL   C15722255   0.634   4.861   2.537 -0.0799  0.0942  0.2976
   30MOL   C15822256   0.490   5.080   2.561  0.0976  0.0317 -0.7643
   30MOL   C15922257   0.509   5.223   2.587 -0.2097 -0.5252 -0.2239
   30MOL   C16022258   0.559   5.255   2.730 -0.1166 -0.0181  0.0635
   30MOL   C16122259   0.585   5.400   2.728 -0.2342 -0.2194 -0.3447
   30MOL   O16222260   0.653   5.434   2.846 -0.9353  0.0038  0.3423
   30MOL   C16322261   0.587   5.507   2.949 -0.2801  0.0553 -0.4790
   30MOL   O16422262   0.474   5.555   2.946  0.1080  0.4108  0.6762
   30MOL   C16522263   0.670   5.531   3.071 -0.3376 -0.6025 -0.2102
   30MOL   C16622264   0.635   5.633   3.167  0.8008  0.3807  0.1253
   30MOL   C16722265   0.727   5.656   3.275 -0.1621  0.4455  0.7616
   30MOL   C16822266   0.842   5.577   3.297 -0.3060  0.8581  0.1195
   30MOL   C16922267   0.923   5.592   3.417  0.5143  0.4357  0.3219
   30MOL   O17022268   0.881   5.648   3.520 -0.3065  0.2668 -0.2908
   30MOL   O17122269   1.042   5.535   3.407 -0.4228 -0.4727 -0.1148
   30MOL   C17222270   0.875   5.479   3.201  0.2859 -0.4307  0.1648
   30MOL   C17322271   0.790   5.461   3.086 -0.0622  0.6705 -0.5136
   30MOL   H17422272   0.780   5.228   2.700  0.3245 -2.2436 -2.2904
   30MOL   H17522273   0.729   5.195   2.857  1.4440  0.6296 -1.2456
   30MOL   H17622274   0.641   4.981   2.782 -1.3107 -0.0263  0.1876
   30MOL   H17722275   0.790   4.997   2.684 -1.6156 -3.1426 -0.0777
   30MOL   H17822276   0.681   5.067   2.486  0.8458  0.6056  0.8627
   30MOL   H17922277   0.736   4.823   2.545 -0.0034  0.0825 -0.7185
   30MOL   H18022278   0.591   4.848   2.438  1.0625 -0.3536 -0.1458
   30MOL   H18122279   0.423   5.030   2.631 -0.4891 -2.3456 -2.9396
   30MOL   H18222280   0.449   5.055   2.463  0.7834 -1.4446 -0.6904
   30MOL   H18322281   0.573   5.275   2.515  1.6284  0.2621  1.9148
   30MOL   H18422282   0.413   5.275   2.581 -0.2986 -0.1426  3.4195
   30MOL   H18522283   0.488   5.218   2.805  1.1221 -0.2425  1.1353
   30MOL   H18622284   0.497   5.463   2.722  0.3947  1.0836  2.6757
   30MOL   H18722285   0.650   5.440   2.650  1.9248 -0.7253  1.1328
   30MOL   H18822286   0.542   5.687   3.157  1.2971  1.5151  1.3658
   30MOL   H18922287   0.688   5.703   3.363  2.1813  2.2867  0.8739
   30MOL   H19022288   0.970   5.428   3.200 -0.7811 -2.4361 -1.0414
   30MOL   H19122289   0.811   5.379   3.019 -1.1754  0.2303 -0.3376
   30MOL   C19222290   1.472   5.370   3.592  0.2248 -0.1920  0.0277
   30MOL   C19322291   1.345   5.441   3.617 -0.5606  0.4629 -0.2639
   30MOL   C19422292   1.262   5.463   3.485  0.1482 -0.2174 -0.2370
   30MOL   C19522293   1.135   5.543   3.514  0.3955 -0.4631 -0.3270
   30MOL   C19622294   1.341   5.539   3.376 -0.4071 -0.2249 -0.0901
   30MOL   C19722295   1.476   5.463   3.349  0.6192 -0.7206  0.0416
   30MOL   C19822296   1.555   5.444   3.478  1.4943  0.2328 -0.7160
   30MOL   C19922297   1.681   5.364   3.441 -0.2092  0.3058 -0.5113
   30MOL   O20022298   1.767   5.432   3.347 -0.6986 -0.0051  0.8712
   30MOL   C20122299   1.857   5.362   3.269 -0.2358 -0.2107  0.4828
   30MOL   O20222300   1.886   5.249   3.289 -0.3403  0.0415 -0.4964
   30MOL   C20322301   1.925   5.451   3.167  0.6067  0.4951 -0.1540
   30MOL   C20422302   1.866   5.561   3.099 -0.4101 -0.0225  0.0467
   30MOL   C20522303   1.933   5.626   2.992 -0.5294 -0.2701 -0.4343
   30MOL   C20622304   2.060   5.581   2.950  0.0900 -0.1311 -0.4447
   30MOL   C20722305   2.120   5.649   2.835  0.0753  0.3616  0.0105
   30MOL   O20822306   2.052   5.684   2.732  0.0438 -0.3522  0.2868
   30MOL   O20922307   2.258   5.666   2.844 -0.8211  0.0655  0.0364
   30MOL   C21022308   2.125   5.483   3.023  0.1859  0.4357  0.3804
   30MOL   C21122309   2.061   5.420   3.131 -0.7258 -0.1108  0.0376
   30MOL   H21222310   1.458   5.263   3.574  1.8922 -0.2569 -1.0076
   30MOL   H21322311   1.531   5.360   3.683 -0.7521  0.2296  0.7104
   30MOL   H21422312   1.371   5.535   3.665  2.4366 -1.0292  1.1759
   30MOL   H21522313   1.290   5.385   3.692 -0.0562  0.1185 -0.1483
   30MOL   H21622314   1.240   5.364   3.445  0.2494 -1.0339  1.6603
   30MOL   H21722315   1.152   5.648   3.541 -0.9178 -0.1978 -0.5043
   30MOL   H21822316   1.080   5.508   3.601  0.5005 -0.4507 -0.2551
   30MOL   H21922317   1.389   5.634   3.401  0.5690 -1.1026  1.4339
   30MOL   H22022318   1.284   5.558   3.285 -0.1627 -2.2527 -0.6825
   30MOL   H22122319   1.466   5.362   3.309  3.2384 -1.7005  1.7193
   30MOL   H22222320   1.537   5.519   3.277 -0.3641 -0.6439 -0.7421
   30MOL   H22322321   1.578   5.548   3.501 -0.1850  0.6636 -0.8812
   30MOL   H22422322   1.664   5.263   3.404  0.6173  0.9547 -2.7640
   30MOL   H22522323   1.744   5.340   3.526 -0.1299  1.7805 -0.1301
   30MOL   H22622324   1.762   5.588   3.108 -0.2407  0.1640  1.6369
   30MOL   H22722325   1.891   5.704   2.931  0.2904 -1.0151 -1.9759
   30MOL   H22822326   2.226   5.456   2.997  0.0830  1.1162 -0.7424
   30MOL   H22922327   2.103   5.334   3.181  1.2976 -0.0359 -1.4575
   30MOL   C23022328   2.606   5.881   2.973 -0.1608 -0.6699 -0.7809
   30MOL   C23122329   2.464   5.847   2.940  0.2434  0.4942 -0.2606
   30MOL   C23222330   2.465   5.778   2.801  0.3590 -0.1878  0.2844
   30MOL   C23322331   2.321   5.747   2.756  0.5282  0.4718  0.0111
   30MOL   C23422332   2.519   5.863   2.689 -0.6291  0.1234 -0.1854
   30MOL   C23522333   2.669   5.906   2.720  0.2185 -0.3555 -0.3441
   30MOL   C23622334   2.678   5.960   2.866  0.2042  0.5270  0.0033
   30MOL   C23722335   2.818   5.973   2.909 -0.0920  0.1420  0.0765
   30MOL   O23822336   2.842   6.070   3.014 -0.5937  0.2342  0.5157
   30MOL   C23922337   2.970   6.088   3.062 -0.0990 -0.2443  0.6699
   30MOL   O24022338   3.067   6.027   3.029  0.1588 -0.0289 -0.1640
   30MOL   C24122339   2.969   6.192   3.167 -0.1910  0.8108 -0.1731
   30MOL   C24222340   2.856   6.226   3.240  0.1466  0.2252 -0.1588
   30MOL   C24322341   2.861   6.315   3.348  0.1606  0.2032  0.3338
   30MOL   C24422342   2.985   6.361   3.395  0.5063  0.7277  0.2100
   30MOL   C24522343   2.982   6.449   3.528 -0.2668  0.5967  0.6687
   30MOL   O24622344   2.878   6.468   3.595  0.0815 -0.2207 -0.2676
   30MOL   O24722345   3.102   6.501   3.557 -0.4677 -0.2955 -0.0247
   30MOL   C24822346   3.098   6.332   3.323 -0.1140 -0.5384  0.3870
   30MOL   C24922347   3.092   6.248   3.212 -0.1904 -0.0004 -0.1905
   30MOL   H25022348   2.659   5.788   2.994  1.5100  0.4668  0.2041
   30MOL   H25122349   2.601   5.933   3.069  0.9995 -2.6293  0.3719
   30MOL   H25222350   2.397   5.933   2.943  0.5783  0.7637 -0.3936
   30MOL   H25322351   2.423   5.779   3.014  0.4937  1.1699  0.5154
   30MOL   H25422352   2.528   5.690   2.813 -0.0094 -0.1301  3.0078
   30MOL   H25522353   2.296   5.704   2.658  1.5294  0.0738 -0.0856
   30MOL   H25622354   2.264   5.839   2.749 -1.4249 -0.4524  2.9457
   30MOL   H25722355   2.455   5.949   2.673 -1.0186 -0.3356 -1.0711
   30MOL   H25822356   2.523   5.792   2.606 -1.5448 -0.8109  0.5476
   30MOL   H25922357   2.749   5.837   2.695  0.7333  0.1901 -0.2194
   30MOL   H26022358   2.696   5.989   2.655  0.7777 -0.8265 -0.7144
   30MOL   H26122359   2.629   6.057   2.856 -0.4396  0.2106  0.0015
   30MOL   H26222360   2.890   5.991   2.830 -0.9236  4.0265  0.0995
   30MOL   H26322361   2.842   5.876   2.952 -1.0368 -0.0981  0.0774
   30MOL   H26422362   2.763   6.182   3.208  0.2389 -0.3177  0.2987
   30MOL   H26522363   2.772   6.334   3.405 -0.1240  2.0165 -0.6740
   30MOL   H26622364   3.191   6.374   3.358  0.2056 -1.4374  0.6361
   30MOL   H26722365   3.186   6.217   3.169 -0.2248  0.7243 -0.7910
   30MOL   C26822366   3.505   6.669   3.575  0.4044  0.3134  0.0397
   30MOL   C26922367   3.345   6.665   3.570  0.1385  0.2652  0.5891
   30MOL   C27022368   3.279   6.582   3.678  0.2910  0.3565 -0.3506
   30MOL   C27122369   3.129   6.580   3.671 -0.6569 -0.3400 -0.2851
   30MOL   C27222370   3.338   6.437   3.686  0.5874 -0.8512 -0.1428
   30MOL   C27322371   3.494   6.443   3.693  0.3109 -0.3120 -0.7373
   30MOL   C27422372   3.558   6.522   3.581  0.2211 -0.0200 -0.0778
   30MOL   C27522373   3.712   6.514   3.581  0.2072  0.1983  0.3098
   30MOL   O27622374   3.772   6.527   3.713 -0.6916  0.0007 -0.2984
   30MOL   C27722375   3.902   6.475   3.729  0.8729 -0.3515 -0.5711
   30MOL   O27822376   3.966   6.435   3.626 -0.4260 -0.3185  0.0422
   30MOL   C27922377   3.943   6.475   3.871 -0.6615 -0.3253 -0.4152
   30MOL   C28022378   3.859   6.535   3.971 -0.5460 -0.3255 -0.3042
   30MOL   C28122379   3.885   6.524   4.105 -0.1164  0.1561 -0.8091
   30MOL   C28222380   3.993   6.448   4.144  0.0436  0.0348 -1.1343
   30MOL   C28322381   4.021   6.441   4.286  0.1924  0.3842 -0.8447
   30MOL   O28422382   4.135   6.442   4.337 -0.2131 -0.0663 -0.0182
   30MOL   O28522383   3.903   6.420   4.353  0.6099 -0.1752  0.3729
   30MOL   C28622384   4.080   6.383   4.049  0.3816 -0.3347 -0.8500
   30MOL   C28722385   4.048   6.398   3.914  0.4192 -0.0424 -0.2013
   30MOL   H28822386   3.531   6.737   3.656  0.3157  1.1567 -0.6363
   30MOL   H28922387   3.538   6.711   3.480  0.7167 -0.3187 -0.1366
   30MOL   H29022388   3.317   6.632   3.469  0.9845  1.5081 -0.0579
   30MOL   H29122389   3.303   6.765   3.568 -0.1460  0.1433 -1.3318
   30MOL   H29222390   3.300   6.644   3.765  1.9810 -0.0297 -0.4646
   30MOL   H29322391   3.078   6.675   3.658 -1.3063 -0.7824 -1.0161
   30MOL   H29422392   3.091   6.541   3.766  0.2759 -2.2070 -0.6332
   30MOL   H29522393   3.302   6.379   3.601  0.4660 -0.8350 -0.1024
   30MOL   H29622394   3.306   6.386   3.777  1.2923 -1.1440 -0.0501
   30MOL   H29722395   3.527   6.483   3.789  0.0478  2.7241 -1.8585
   30MOL   H29822396   3.525   6.339   3.690 -1.2691 -0.9361  2.4425
   30MOL   H29922397   3.526   6.477   3.487  0.5470  2.0645 -1.2185
   30MOL   H30022398   3.750   6.586   3.508  1.4276 -0.7180  0.0484
   30MOL   H30122399   3.743   6.419   3.539 -2.6845 -0.0440 -1.4472
   30MOL   H30222400   3.768   6.585   3.943 -0.4035 -1.1668 -2.4208
   30MOL   H30322401   3.820   6.572   4.177 -0.4136  1.8511 -2.1787
   30MOL   H30422402   4.170   6.329   4.072  0.8211  0.7050 -0.0429
   30MOL   H30522403   4.111   6.344   3.845 -0.8780  0.3034 -1.6927
   30MOL   C30622404   3.990   6.031   4.571 -0.1579 -1.0019 -0.4598
   30MOL   C30722405   3.937   6.157   4.500  0.8729  0.1254 -0.4810
   30MOL   C30822406   3.983   6.290   4.559 -0.5072  0.4115  0.6933
   30MOL   C30922407   3.904   6.415   4.496 -0.9120  0.2841 -0.0673
   30MOL   C31022408   3.961   6.287   4.713  0.4489  0.1750  0.1162
   30MOL   C31122409   4.031   6.172   4.784 -0.4543 -0.2246  0.2556
   30MOL   C31222410   3.975   6.036   4.727  0.0881 -0.1770 -0.2212
   30MOL   C31322411   4.052   5.921   4.792 -0.2514 -0.4676  0.6607
   30MOL   O31422412   4.039   5.788   4.737  0.4489 -0.1845  0.1720
   30MOL   C31522413   3.935   5.706   4.774 -0.2948 -0.6204 -0.4961
   30MOL   O31622414   3.831   5.755   4.831  0.8337  0.0762  0.1708
   30MOL   C31722415   3.946   5.572   4.730 -0.5299  0.1695  0.5444
   30MOL   C31822416   3.842   5.481   4.767 -0.4092 -0.3588 -0.1806
   30MOL   C31922417   3.847   5.347   4.711 -0.1482  0.6377 -0.4559
   30MOL   C32022418   3.969   5.308   4.646  0.5281  0.2478 -0.2537
   30MOL   C32122419   3.986   5.168   4.598 -0.2487  0.2821 -0.6076
   30MOL   O32222420   4.083   5.144   4.519  0.8247  0.2234 -0.3059
   30MOL   O32322421   3.887   5.072   4.638  0.0922 -0.2620  0.8752
   30MOL   C32422422   4.071   5.402   4.615 -0.2255  0.6010  0.7490
   30MOL   C32522423   4.060   5.536   4.650 -0.3134  0.1763 -0.1705
   30MOL   H32622424   4.095   6.031   4.542 -0.3746 -0.9729 -1.2763
   30MOL   H32722425   3.956   5.934   4.532 -1.6988  0.4184 -2.7787
   30MOL   H32822426   3.828   6.152   4.504  0.9867 -2.2672  0.9973
   30MOL   H32922427   3.958   6.164   4.394  0.2627 -1.0337 -0.6948
   30MOL   H33022428   4.091   6.291   4.550 -0.4555 -1.2670  1.0780
   30MOL   H33122429   3.949   6.506   4.535 -3.2657  0.9397  1.1573
   30MOL   H33222430   3.802   6.420   4.533 -0.8267  0.9011  0.0813
   30MOL   H33322431   3.854   6.279   4.730  0.7292 -1.4556  1.3355
   30MOL   H33422432   3.988   6.385   4.752 -2.0713  0.5884  0.8775
   30MOL   H33522433   4.135   6.171   4.752 -0.0989  0.5725  1.3564
   30MOL   H33622434   4.030   6.176   4.893  2.2071  0.5110  0.2874
   30MOL   H33722435   3.868   6.038   4.751  0.4393  0.6300  1.3777
   30MOL   H33822436   4.027   5.923   4.898 -0.5116 -1.0949  0.6136
   30MOL   H33922437   4.160   5.936   4.783 -0.6336  1.5689 -0.7951
   30MOL   H34022438   3.748   5.511   4.812 -0.2510 -3.2202  2.1957
   30MOL   H34122439   3.769   5.276   4.734  1.3093 -1.3293 -1.5440
   30MOL   H34222440   4.161   5.370   4.565  1.1578  2.5654  1.8914
   30MOL   H34322441   4.135   5.606   4.617  1.1708 -1.7969 -1.0673
   30MOL   C34422442   3.659   4.707   4.788 -0.4385  0.2521  0.3961
   30MOL   C34522443   3.783   4.789   4.751 -0.3106  0.0923 -0.0451
   30MOL   C34622444   3.761   4.868   4.620  0.6376  0.3732  0.1929
   30MOL   C34722445   3.887   4.941   4.577 -0.5224  0.9869 -0.1255
   30MOL   C34822446   3.720   4.765   4.514  0.1598  0.2228 -0.1779
   30MOL   C34922447   3.603   4.673   4.552 -0.3254  0.8230  0.2919
   30MOL   C35022448   3.619   4.606   4.682  0.5118  0.4930  0.2654
   30MOL   C35122449   3.484   4.538   4.716  0.5142  1.2629  0.0663
   30MOL   O35222450   3.493   4.458   4.833 -0.1823 -0.3700 -0.5871
   30MOL   C35322451   3.381   4.411   4.888 -0.2727  0.2000  0.0936
   30MOL   O35422452   3.264   4.429   4.848  0.0858 -0.2125 -0.4248
   30MOL   C35522453   3.408   4.326   5.004 -0.0558  0.6903 -0.2840
   30MOL   C35622454   3.304   4.303   5.096 -0.6974 -0.0834  0.2197
   30MOL   C35722455   3.326   4.225   5.213  0.0995 -0.3366 -0.2265
   30MOL   C35822456   3.451   4.162   5.226 -0.3704 -0.4656 -1.0433
   30MOL   C35922457   3.466   4.073   5.348 -0.1317 -0.4061  0.9110
   30MOL   O36022458   3.385   4.086   5.440  0.0179 -0.2629 -0.2203
   30MOL   O36122459   3.581   4.007   5.352  0.4621  0.0116 -0.1508
   30MOL   C36222460   3.554   4.181   5.132  0.5505 -0.4939 -0.9547
   30MOL   C36322461   3.532   4.266   5.024 -0.0616 -0.3162 -0.1627
   30MOL   H36422462   3.576   4.774   4.812 -0.7573 -0.0426  0.1229
   30MOL   H36522463   3.677   4.653   4.881 -3.2168 -0.3753  0.6381
   30MOL   H36622464   3.866   4.718   4.744 -0.3097  0.3535 -3.1511
   30MOL   H36722465   3.812   4.850   4.836  1.4010  0.0993 -0.6130
   30MOL   H36822466   3.675   4.933   4.636 -0.4201 -1.2879  1.4888
   30MOL   H36922467   3.876   4.960   4.470 -2.2572  0.1732 -0.1019
   30MOL   H37022468   3.980   4.890   4.602 -2.0269 -2.0447 -0.4684
   30MOL   H37122469   3.804   4.702   4.484 -1.7866 -2.2002 -0.7169
   30MOL   H37222470   3.688   4.797   4.415 -1.8284 -1.4486 -0.1026
   30MOL   H37322471   3.504   4.717   4.553 -1.5601 -1.8445 -0.0790
   30MOL   H37422472   3.612   4.600   4.471 -1.0531  1.3647 -0.2799
   30MOL   H37522473   3.697   4.530   4.674  1.0164  0.9489  0.8206
   30MOL   H37622474   3.455   4.470   4.637 -0.3099  0.1816  1.2871
   30MOL   H37722475   3.408   4.615   4.733  0.0996  0.8287  0.1667
   30MOL   H37822476   3.209   4.347   5.071 -0.2849  0.7096  0.0511
   30MOL   H37922477   3.240   4.197   5.272  0.2772 -2.3978 -0.9206
   30MOL   H38022478   3.653   4.139   5.140  1.3777  1.6118  0.2022
   30MOL   H38122479   3.616   4.272   4.957  0.1048  1.7986  0.2283
   30MOL   C38222480   3.387   3.631   5.549  0.0768 -0.2394 -0.8708
   30MOL   C38322481   3.419   3.780   5.512 -0.5180  0.1548 -0.5718
   30MOL   C38422482   3.576   3.791   5.494  0.1337  0.2094 -0.5278
   30MOL   C38522483   3.621   3.942   5.478  0.0058 -0.3080  0.5705
   30MOL   C38622484   3.659   3.730   5.608 -0.3936  0.0838 -0.2724
   30MOL   C38722485   3.618   3.581   5.639  0.0526 -0.8005  0.3741
   30MOL   C38822486   3.471   3.569   5.661  0.3301 -0.5503  0.4684
   30MOL   C38922487   3.430   3.426   5.691 -0.1286  0.3360  0.3251
   30MOL   O39022488   3.316   3.418   5.772 -0.0840 -0.1098 -0.0441
   30MOL   C39122489   3.254   3.294   5.778  0.6654 -0.3533  0.3540
   30MOL   O39222490   3.296   3.183   5.739 -0.0942 -0.6125 -0.1906
   30MOL   C39322491   3.133   3.303   5.864  0.5146 -0.4057 -0.4157
   30MOL   C39422492   3.111   3.415   5.943  0.3826  0.5467 -0.0936
   30MOL   C39522493   3.016   3.409   6.043 -0.1950 -0.2127  0.1848
   30MOL   C39622494   2.933   3.298   6.060 -0.3443  0.4071 -0.8024
   30MOL   C39722495   2.837   3.291   6.177 -0.2441  0.8058 -0.2333
   30MOL   O39822496   2.849   3.365   6.267  0.3934 -0.2222 -0.7102
   30MOL   O39922497   2.756   3.186   6.182 -0.0280  0.0719 -0.5124
   30MOL   C40022498   2.954   3.186   5.978 -0.2552 -0.8520  0.0205
   30MOL   C40122499   3.056   3.187   5.881 -0.4371  0.6051 -0.1645
   30MOL   H40222500   3.387   3.570   5.459  0.9663 -1.7746  0.1614
   30MOL   H40322501   3.287   3.631   5.593  0.3742 -1.0596 -0.1807
   30MOL   H40422502   3.383   3.848   5.589 -0.2942 -0.4208  0.0496
   30MOL   H40522503   3.364   3.821   5.428 -2.0012 -1.0131 -0.2003
   30MOL   H40622504   3.597   3.740   5.401 -0.3136 -0.1331 -0.4406
   30MOL   H40722505   3.729   3.950   5.479 -0.1553  4.0792 -2.5394
   30MOL   H40822506   3.585   4.002   5.561 -2.1367 -0.7805  0.0241
   30MOL   H40922507   3.636   3.784   5.700  0.5494 -1.3131  0.7969
   30MOL   H41022508   3.766   3.728   5.588 -0.5833 -0.3393 -1.2608
   30MOL   H41122509   3.648   3.524   5.550  0.6924  1.3422 -0.8129
   30MOL   H41222510   3.668   3.542   5.728  3.8896  0.9498 -0.8862
   30MOL   H41322511   3.450   3.631   5.749 -0.2468 -2.2565  1.5598
   30MOL   H41422512   3.514   3.378   5.742  0.9307 -0.5955 -2.2084
   30MOL   H41522513   3.415   3.368   5.600 -1.3731 -1.6743  1.7790
   30MOL   H41622514   3.170   3.504   5.927  1.1035  0.4819  2.1393
   30MOL   H41722515   3.009   3.487   6.117  2.3566  1.1365 -0.8985
   30MOL   H41822516   2.896   3.101   6.009 -2.1397  0.6351  0.7170
   30MOL   H41922517   3.076   3.097   5.825 -1.9021  0.6743 -0.8079
   30MOL   C42022518   2.338   3.326   6.126  1.1870  0.4579 -0.5493
   30MOL   C42122519   2.484   3.316   6.176  0.4798 -0.4644 -0.3829
   30MOL   C42222520   2.517   3.178   6.234  0.5550 -0.3760  0.0422
   30MOL   C42322521   2.660   3.175   6.287 -0.5063  0.9526 -0.2149
   30MOL   C42422522   2.418   3.131   6.337  0.3057 -0.3537 -0.2010
   30MOL   C42522523   2.272   3.133   6.285 -0.2342  0.1489 -0.5498
   30MOL   C42622524   2.235   3.276   6.231  0.2518  0.2974  0.4700
   30MOL   C42722525   2.086   3.294   6.190 -0.2686 -0.4949  0.3693
   30MOL   O42822526   2.042   3.209   6.080 -0.0682  0.0469  0.1938
   30MOL   C42922527   2.033   3.266   5.953 -0.3419 -0.3962  0.0745
   30MOL   O43022528   2.056   3.389   5.936 -0.3321 -0.0398 -0.4181
   30MOL   C43122529   2.003   3.183   5.832  0.6364  0.4498  0.0783
   30MOL   C43222530   1.996   3.245   5.706  0.7297  0.1403  0.0159
   30MOL   C43322531   1.967   3.176   5.589 -0.8777  0.8785 -0.2437
   30MOL   C43422532   1.941   3.039   5.606  0.3887 -0.3450 -0.3702
   30MOL   C43522533   1.908   2.954   5.485  0.3355 -0.4805 -0.0404
   30MOL   O43622534   1.871   2.838   5.492  0.3877  0.7382 -0.5653
   30MOL   O43722535   1.908   3.014   5.364 -0.1847 -0.0002 -0.0510
   30MOL   C43822536   1.943   2.973   5.729 -0.3271  0.1133  0.1068
   30MOL   C43922537   1.967   3.050   5.846 -0.1333  0.0868  0.4259
   30MOL   H44022538   2.328   3.257   6.042 -0.6930  0.2454 -0.1625
   30MOL   H44122539   2.305   3.422   6.086 -0.5000  0.6481  1.2207
   30MOL   H44222540   2.510   3.397   6.244 -2.8068  0.8046 -0.5397
   30MOL   H44322541   2.540   3.336   6.084 -1.2969 -1.1062 -1.6367
   30MOL   H44422542   2.505   3.110   6.150 -2.5670  0.4113 -0.1895
   30MOL   H44522543   2.695   3.092   6.348 -1.3833  0.4010 -0.4561
   30MOL   H44622544   2.673   3.262   6.352 -0.7149  1.7686 -1.2331
   30MOL   H44722545   2.424   3.201   6.421  0.7511 -0.1925 -0.3661
   30MOL   H44822546   2.443   3.031   6.371  2.2598 -0.1948 -1.0960
   30MOL   H44922547   2.274   3.058   6.205  2.0165  0.5130 -0.8703
   30MOL   H45022548   2.202   3.092   6.358  1.9346 -1.1097  0.8973
   30MOL   H45122549   2.241   3.337   6.321 -2.6613 -0.2391  1.0920
   30MOL   H45222550   2.065   3.400   6.177 -1.8433 -0.8983 -0.4147
   30MOL   H45322551   2.032   3.267   6.280 -1.4460 -0.1694 -0.2374
   30MOL   H45422552   2.019   3.350   5.703 -0.2479  0.4348  1.6244
   30MOL   H45522553   1.966   3.225   5.493  0.1871  4.3800  1.4523
   30MOL   H45622554   1.923   2.867   5.734  2.2030 -0.4787 -1.5216
   30MOL   H45722555   1.970   3.003   5.943  0.3478 -0.6498  0.0597
   30MOL   C45822556   2.282   2.892   5.185  0.7139  0.0781 -0.3742
   30MOL   C45922557   2.150   2.962   5.218  0.0391  0.0597  0.2274
   30MOL   C46022558   2.030   2.864   5.208 -0.2602 -0.8751 -0.3884
   30MOL   C46122559   1.902   2.949   5.242 -0.3702  0.2867  0.0106
   30MOL   C46222560   2.023   2.815   5.064  0.0259  1.7415 -0.6322
   30MOL   C46322561   2.153   2.745   5.022 -1.1290 -0.7747  0.2849
   30MOL   C46422562   2.277   2.841   5.045  0.4300  0.4565 -0.7951
   30MOL   C46522563   2.395   2.757   5.021 -1.0231 -0.1432 -0.4925
   30MOL   O46622564   2.412   2.727   4.883 -0.0793  0.1605 -0.3171
   30MOL   C46722565   2.539   2.709   4.848  0.3412  0.4905 -0.2917
   30MOL   O46822566   2.645   2.739   4.913  0.2300  0.2312  0.2078
   30MOL   C46922567   2.550   2.630   4.717  0.0611 -0.6640  0.8315
   30MOL   C47022568   2.447   2.538   4.677 -0.0274  0.3914  0.6572
   30MOL   C47122569   2.454   2.478   4.549 -0.1670  0.8919  0.2912
   30MOL   C47222570   2.555   2.504   4.463 -0.5587  0.0580  0.3688
   30MOL   C47322571   2.565   2.430   4.334 -0.0777  0.0197 -0.0915
   30MOL   O47422572   2.488   2.339   4.304 -0.1535  0.0811 -0.0530
   30MOL   O47522573   2.654   2.470   4.252 -0.0528 -0.1387  0.4831
   30MOL   C47622574   2.664   2.573   4.515 -0.5385  0.1115  0.5070
   30MOL   C47722575   2.667   2.636   4.640  0.2481 -0.6847 -0.0530
   30MOL   H47822576   2.303   2.815   5.258 -2.1745  0.7836  1.2552
   30MOL   H47922577   2.372   2.953   5.200  0.2731  0.6963 -0.2096
   30MOL   H48022578   2.132   3.038   5.142 -0.4983  0.7974  1.0821
   30MOL   H48122579   2.163   3.004   5.317 -2.1799 -2.6183  1.7281
   30MOL   H48222580   2.031   2.781   5.278 -0.4170 -2.2006 -1.9449
   30MOL   H48322581   1.818   2.879   5.242  1.3167 -1.7964  0.0335
   30MOL   H48422582   1.895   3.022   5.161  1.3940  0.5944  0.1103
   30MOL   H48522583   2.005   2.889   4.986 -0.4753  2.1589 -0.1205
   30MOL   H48622584   1.943   2.741   5.057  2.4782 -0.9422 -1.0252
   30MOL   H48722585   2.170   2.651   5.074 -2.0335 -0.6529  0.8062
   30MOL   H48822586   2.142   2.716   4.917 -0.8800 -0.3705  0.1469
   30MOL   H48922587   2.262   2.925   4.978 -0.4354 -1.2639 -2.8219
   30MOL   H49022588   2.401   2.671   5.088  0.9849  1.6807  1.7443
   30MOL   H49122589   2.480   2.812   5.060 -1.0342  0.1013 -0.8170
   30MOL   H49222590   2.352   2.525   4.729 -0.2322  1.2343  0.4985
   30MOL   H49322591   2.382   2.402   4.525  1.2613  0.3355 -2.4619
   30MOL   H49422592   2.747   2.593   4.449 -1.0904  0.6988 -0.0161
   30MOL   H49522593   2.747   2.704   4.666  0.6673 -0.5742 -1.5625
   30MOL   C49622594   2.527   2.694   3.909 -0.6413 -0.1204  0.4710
   30MOL   C49722595   2.544   2.590   4.015 -0.2944  0.3230 -0.5023
   30MOL   C49822596   2.675   2.509   4.016 -0.1099 -0.0334  0.3693
   30MOL   C49922597   2.671   2.408   4.126  0.0182  0.0012  0.8568
   30MOL   C50022598   2.698   2.450   3.876  0.1780  0.5960 -0.4584
   30MOL   C50122599   2.660   2.543   3.757  0.4850 -0.3503  0.4624
   30MOL   C50222600   2.540   2.639   3.766  0.7041  0.6862  0.4330
   30MOL   C50322601   2.551   2.754   3.664 -0.4671  0.3636  0.4420
   30MOL   O50422602   2.541   2.694   3.532  0.2782  0.3844  0.7164
   30MOL   C50522603   2.553   2.773   3.422 -0.0843  0.1146  0.5130
   30MOL   O50622604   2.598   2.887   3.426  0.1961 -0.0960  0.3450
   30MOL   C50722605   2.498   2.702   3.303  0.1473 -0.0061  0.7291
   30MOL   C50822606   2.500   2.771   3.177  0.7532  0.3801 -0.3466
   30MOL   C50922607   2.445   2.711   3.064 -0.0997 -0.0031 -0.8047
   30MOL   C51022608   2.391   2.582   3.069  0.5620 -0.5785 -0.1789
   30MOL   C51122609   2.333   2.532   2.941 -0.2183 -0.8250  0.1797
   30MOL   O51222610   2.313   2.414   2.924  0.0067 -0.7476 -0.4094
   30MOL   O51322611   2.302   2.632   2.853  0.5276 -0.1798 -0.0324
   30MOL   C51422612   2.410   2.511   3.191  0.5537  0.2727  0.4016
   30MOL   C51522613   2.462   2.565   3.305  0.6629 -0.2001 -0.1328
   30MOL   H51622614   2.614   2.757   3.927 -0.5494 -0.2588  0.5112
   30MOL   H51722615   2.437   2.756   3.910 -1.0148 -0.5508 -2.3969
   30MOL   H51822616   2.462   2.518   4.008  0.8151 -0.7864 -2.6169
   30MOL   H51922617   2.526   2.630   4.115 -0.2709  0.8600 -0.7074
   30MOL   H52022618   2.745   2.587   4.044 -0.1428  0.6262 -1.3000
   30MOL   H52122619   2.752   2.335   4.129  0.2600  0.2924  1.6594
   30MOL   H52222620   2.583   2.349   4.102  0.3021  1.3239 -3.9355
   30MOL   H52322621   2.635   2.362   3.869 -0.4802  1.0285 -0.0235
   30MOL   H52422622   2.801   2.413   3.873  0.2203  0.6524  0.1846
   30MOL   H52522623   2.742   2.610   3.729 -0.7649  0.1122 -2.2250
   30MOL   H52622624   2.664   2.481   3.668  1.0461 -0.2735  0.4290
   30MOL   H52722625   2.440   2.596   3.752  0.5127  0.7419  1.5668
   30MOL   H52822626   2.646   2.804   3.682 -0.1501 -0.4906  1.1152
   30MOL   H52922627   2.479   2.835   3.678  0.1587  1.2307 -1.2164
   30MOL   H53022628   2.526   2.876   3.182  1.0416  0.2209  2.2533
   30MOL   H53122629   2.445   2.781   2.982 -0.5431 -0.7433 -1.4436
   30MOL   H53222630   2.381   2.407   3.203 -1.1597  0.6709 -0.2027
   30MOL   H53322631   2.478   2.514   3.398 -3.4309  0.1238  0.8458
   30MOL   C53422632   2.288   2.964   2.585 -0.8397 -0.7905 -0.2565
   30MOL   C53522633   2.244   2.869   2.695 -0.3781  0.0941  0.1997
   30MOL   C53622634   2.257   2.727   2.640  0.2655 -0.3378 -0.0031
   30MOL   C53722635   2.225   2.614   2.738  0.2681  0.3157 -0.2667
   30MOL   C53822636   2.161   2.717   2.520  0.1286  0.0844 -0.4867
   30MOL   C53922637   2.196   2.821   2.412 -0.6192  0.3581 -0.0664
   30MOL   C54022638   2.191   2.963   2.459  0.1426 -0.2538  0.0361
   30MOL   C54122639   2.242   3.067   2.361 -0.0397  0.1954 -0.5118
   30MOL   O54222640   2.141   3.081   2.261 -0.2520  0.0300  0.0137
   30MOL   C54322641   2.173   3.179   2.184  0.7324  0.9256 -0.4353
   30MOL   O54422642   2.283   3.228   2.175  0.8518  0.0362  0.3429
   30MOL   C54522643   2.052   3.212   2.096 -0.5646  0.0681  0.3846
   30MOL   C54622644   1.925   3.160   2.121  0.3072  0.2846  0.1115
   30MOL   C54722645   1.817   3.205   2.046 -0.7691  0.0884 -0.0996
   30MOL   C54822646   1.833   3.292   1.939  0.0897 -0.9518 -0.1861
   30MOL   C54922647   1.707   3.329   1.862 -0.6494 -0.0376  0.2434
   30MOL   O55022648   1.594   3.302   1.904  0.3796  0.3099  0.1819
   30MOL   O55122649   1.742   3.387   1.750  0.4499  0.2926  0.1108
   30MOL   C55222650   1.966   3.345   1.913  0.0645  0.5245  0.4772
   30MOL   C55322651   2.072   3.310   1.996  0.2290 -0.1850 -0.1909
   30MOL   H55422652   2.392   2.959   2.552 -0.4180  1.3319  0.7049
   30MOL   H55522653   2.263   3.064   2.619 -0.5200 -0.8722  0.2247
   30MOL   H55622654   2.143   2.889   2.731 -0.8292 -0.0239 -0.9992
   30MOL   H55722655   2.306   2.886   2.784  0.5976 -0.8737 -0.2785
   30MOL   H55822656   2.354   2.717   2.592 -0.3718  0.2656 -1.4421
   30MOL   H55922657   2.253   2.517   2.698 -0.2894 -0.1564  0.4757
   30MOL   H56022658   2.118   2.603   2.752  0.3964 -0.9293 -0.1667
   30MOL   H56122659   2.058   2.731   2.552  0.6071 -0.7251  1.4827
   30MOL   H56222660   2.170   2.617   2.477  2.9712 -1.3247  3.0921
   30MOL   H56322661   2.290   2.804   2.360  0.2153  4.3057 -0.0646
   30MOL   H56422662   2.121   2.794   2.338  0.3130 -1.9622 -0.2118
   30MOL   H56522663   2.093   2.988   2.499  0.6684  3.0367 -0.6028
   30MOL   H56622664   2.336   3.037   2.315 -0.2098 -0.0731 -0.6876
   30MOL   H56722665   2.273   3.158   2.413 -1.3593 -1.2880  3.0409
   30MOL   H56822666   1.915   3.082   2.195 -0.3812 -0.1962 -0.4845
   30MOL   H56922667   1.721   3.165   2.075 -0.5578 -0.5303 -0.2402
   30MOL   H57022668   1.976   3.427   1.842  0.5099  1.7463  1.9240
   30MOL   H57122669   2.171   3.353   2.002 -0.8930  2.4036  0.3852
   30MOL   C57222670   1.731   3.825   1.714  0.2051 -0.1839 -0.0521
   30MOL   C57322671   1.717   3.676   1.744  0.2244 -0.0972  0.4514
   30MOL   C57422672   1.653   3.587   1.637 -0.0561 -0.3235 -0.1692
   30MOL   C57522673   1.633   3.442   1.677 -0.0989  0.6148 -0.0601
   30MOL   C57622674   1.519   3.644   1.578 -0.0946 -0.0224  0.2125
   30MOL   C57722675   1.535   3.796   1.549  0.5729  0.0522 -0.0962
   30MOL   C57822676   1.589   3.877   1.669 -0.3773 -0.2428  0.0613
   30MOL   C57922677   1.595   4.035   1.653 -0.3371  0.1200  0.0648
   30MOL   O58022678   1.679   4.079   1.545  0.0094  0.3974 -0.1655
   30MOL   C58122679   1.635   4.178   1.465  0.7935  0.1994 -0.1496
   30MOL   O58222680   1.532   4.246   1.485  0.0656  0.5563  0.5594
   30MOL   C58322681   1.727   4.195   1.351 -0.3771 -0.1091 -0.1436
   30MOL   C58422682   1.858   4.135   1.353  0.2590  0.7416  0.2824
   30MOL   C58522683   1.945   4.147   1.242  0.4734 -0.4332 -0.5850
   30MOL   C58622684   1.910   4.238   1.139  0.2751  0.2882  0.6007
   30MOL   C58722685   2.006   4.243   1.025 -0.0396 -0.4389 -0.0501
   30MOL   O58822686   2.090   4.158   1.002  0.1188 -0.5208 -0.1564
   30MOL   O58922687   1.995   4.357   0.954 -0.0704  0.3474 -0.0257
   30MOL   C59022688   1.788   4.302   1.142  0.3344 -0.0827 -0.0859
   30MOL   C59122689   1.689   4.274   1.243  0.1118 -0.3636 -0.5062
   30MOL   H59222690   1.806   3.856   1.641  1.1918  0.1113  1.0618
   30MOL   H59322691   1.763   3.872   1.807  0.6085  1.0861 -0.8173
   30MOL   H59422692   1.651   3.672   1.831  1.8847  1.1563  1.8246
   30MOL   H59522693   1.815   3.635   1.767 -0.1984 -1.7640 -0.6663
   30MOL   H59622694   1.731   3.586   1.560  1.7073 -0.5686  1.5758
   30MOL   H59722695   1.626   3.381   1.587 -2.6452  1.4217 -0.4275
   30MOL   H59822696   1.537   3.442   1.727  0.7713 -0.8346  1.6703
   30MOL   H59922697   1.431   3.639   1.643  0.7305 -0.2864  1.3331
   30MOL   H60022698   1.486   3.596   1.486 -0.0378 -0.6126  0.4929
   30MOL   H60122699   1.603   3.798   1.463  0.3910 -3.2945 -0.3904
   30MOL   H60222700   1.434   3.827   1.521  0.1846 -1.3292 -0.2762
   30MOL   H60322701   1.530   3.848   1.756 -0.4496 -1.2438 -0.3215
   30MOL   H60422702   1.626   4.077   1.749 -0.2081 -0.9371  0.4836
   30MOL   H60522703   1.491   4.066   1.642 -0.5288 -1.6451 -3.7184
   30MOL   H60622704   1.892   4.067   1.430 -2.3473 -0.0574  0.7695
   30MOL   H60722705   2.035   4.087   1.244  0.7829 -0.0807 -2.5140
   30MOL   H60822706   1.769   4.372   1.062 -1.0366  0.5349  0.7532
   30MOL   H60922707   1.598   4.333   1.246 -0.5620 -1.3617 -1.0150
   30MOL   C61022708   2.223   4.652   0.604  0.0939 -0.8972 -0.0861
   30MOL   C61122709   2.196   4.508   0.665 -0.8673  0.1163  0.0292
   30MOL   C61222710   2.100   4.515   0.786  0.3736 -0.1164  0.9492
   30MOL   C61322711   2.076   4.372   0.832 -0.3030  0.4850  0.4250
   30MOL   C61422712   2.155   4.604   0.899  0.5841  0.8183 -0.1155
   30MOL   C61522713   2.178   4.754   0.841  0.4286  0.0201  0.0340
   30MOL   C61622714   2.266   4.755   0.716  0.0191  0.2298 -0.1423
   30MOL   C61722715   2.278   4.895   0.657 -0.0778 -0.5681  0.3395
   30MOL   O61822716   2.399   4.892   0.579 -0.8695 -0.3395 -0.6724
   30MOL   C61922717   2.412   4.963   0.471 -0.0266  0.4298  0.9076
   30MOL   O62022718   2.321   5.033   0.429  0.2011 -0.6295  0.2820
   30MOL   C62122719   2.538   4.936   0.397 -0.0616  0.0314  0.2208
   30MOL   C62222720   2.543   4.981   0.260  0.7764  0.4606  0.1064
   30MOL   C62322721   2.655   4.953   0.178  0.4006  0.5501 -0.1111
   30MOL   C62422722   2.763   4.882   0.229 -0.2826  0.2687 -0.0872
   30MOL   C62522723   2.881   4.858   0.155 -0.2572  0.3610 -0.6235
   30MOL   O62622724   2.899   4.886   0.036  0.8378 -0.0361  0.3246
   30MOL   O62722725   2.968   4.787   0.215 -0.4656 -0.0078 -0.2665
   30MOL   C62822726   2.754   4.830   0.361  0.4358  0.4411 -0.4528
   30MOL   C62922727   2.649   4.859   0.449 -0.4768 -0.0272  0.5899
   30MOL   H63022728   2.145   4.691   0.538 -0.6316 -1.1296  0.6360
   30MOL   H63122729   2.309   4.634   0.539 -0.4615 -0.3886 -0.9690
   30MOL   H63222730   2.287   4.460   0.699 -1.5769 -2.0735 -1.0786
   30MOL   H63322731   2.162   4.446   0.583  0.5792  0.5550 -0.9177
   30MOL   H63422732   2.003   4.552   0.755 -0.3041 -0.9423  2.0631
   30MOL   H63522733   2.172   4.326   0.853 -1.0979 -2.7868 -2.6128
   30MOL   H63622734   2.023   4.317   0.754  0.3539  1.3013 -0.6057
   30MOL   H63722735   2.257   4.575   0.926  1.3435  0.9405 -2.6803
   30MOL   H63822736   2.096   4.602   0.990  0.2568 -1.1199 -0.3575
   30MOL   H63922737   2.080   4.797   0.822  1.6048  2.3391 -0.9686
   30MOL   H64022738   2.225   4.818   0.915  2.5889 -0.9608 -0.4629
   30MOL   H64122739   2.365   4.725   0.748  0.6627  1.8469 -0.5448
   30MOL   H64222740   2.279   4.963   0.743  2.3274 -2.0966  1.5828
   30MOL   H64322741   2.185   4.916   0.605 -0.5673  1.6795  2.0131
   30MOL   H64422742   2.462   5.038   0.216  1.4612 -0.5179 -2.5136
   30MOL   H64522743   2.656   4.970   0.071  0.5547  0.6240 -0.0966
   30MOL   H64622744   2.831   4.772   0.409  0.2307  0.3977 -0.1721
   30MOL   H64722745   2.634   4.807   0.542  1.5139 -1.6470  0.0221
   30MOL   C64822746   3.354   4.476   0.276  1.3941  0.3587 -0.6135
   30MOL   C64922747   3.291   4.605   0.216 -0.0412 -0.3911 -0.6471
   30MOL   C65022748   3.138   4.618   0.241  0.4440  0.9451 -0.7419
   30MOL   C65122749   3.084   4.739   0.160 -0.2568  0.5035  0.2895
   30MOL   C65222750   3.059   4.481   0.217 -0.3828  0.0374  0.2062
   30MOL   C65322751   3.129   4.359   0.278 -0.0700 -0.7013  0.1802
   30MOL   C65422752   3.275   4.357   0.224  0.3719 -0.4595  0.4122
   30MOL   C65522753   3.349   4.224   0.267 -0.1735  0.5229  0.1463
   30MOL   O65622754   3.461   4.213   0.179  1.0067  0.4853  0.0594
   30MOL   C65722755   3.524   4.095   0.168  0.0302 -0.6208 -0.0598
   30MOL   O65822756   3.502   3.994   0.240  0.2356 -0.2732  0.5224
   30MOL   C65922757   3.648   4.093   0.084  0.4219 -0.0168  0.7513
   30MOL   C66022758   3.703   4.213   0.041  0.2902  0.2917  0.5560
   30MOL   C66122759   3.803   4.214   7.971  0.4987  0.3183  0.3819
   30MOL   C66222760   3.860   4.092   7.920  0.0801 -0.2944 -0.2947
   30MOL   C66322761   3.959   4.096   7.818 -0.5744 -0.1197 -0.2996
   30MOL   O66422762   4.015   3.992   7.771  0.2321  0.1637 -0.4095
   30MOL   O66522763   3.991   4.223   7.771  0.3803 -0.1941  0.0170
   30MOL   C66622764   3.813   3.974   7.973  0.5287 -0.4334  0.1063
   30MOL   C66722765   3.704   3.973   0.036 -0.6483 -0.0161 -0.9141
   30MOL   H66822766   3.341   4.483   0.384  0.4128  0.2872 -0.7259
   30MOL   H66922767   3.459   4.461   0.249  1.5080  0.5988 -0.3136
   30MOL   H67022768   3.289   4.586   0.109  0.5105  0.6339 -0.8470
   30MOL   H67122769   3.341   4.701   0.231  0.0023 -0.3511 -1.0452
   30MOL   H67222770   3.121   4.624   0.348  2.4473  0.3993 -0.3713
   30MOL   H67322771   3.060   4.710   0.058 -1.3393 -0.6533  0.8672
   30MOL   H67422772   3.166   4.811   0.161 -0.7987  1.1209  0.4636
   30MOL   H67522773   3.017   4.469   0.117 -0.6698 -0.9672  0.4376
   30MOL   H67622774   2.967   4.495   0.274  0.9208 -0.8655  2.5837
   30MOL   H67722775   3.143   4.370   0.386 -1.5340 -0.0500  0.3191
   30MOL   H67822776   3.064   4.274   0.258 -0.7749 -0.4940  1.4956
   30MOL   H67922777   3.261   4.352   0.116  1.2924  2.0524  0.1619
   30MOL   H68022778   3.290   4.132   0.255 -1.1474  1.3782 -1.9181
   30MOL   H68122779   3.376   4.237   0.372  0.4684 -0.0381  0.0528
   30MOL   H68222780   3.655   4.297   0.089  1.3437  1.3849 -0.2598
   30MOL   H68322781   3.834   4.309   7.929 -0.2417  1.5774  2.5963
   30MOL   H68422782   3.861   3.882   7.941  0.1945 -0.0698 -1.4901
   30MOL   H68522783   3.670   3.876   0.070 -0.7817  1.3189  2.9651
   30MOL   C68622784   3.852   4.521   7.503  1.1008 -0.7411 -0.0198
   30MOL   C68722785   3.881   4.380   7.546 -0.0135  0.2219  0.1804
   30MOL   C68822786   4.021   4.374   7.609  0.2688  0.7638  0.5160
   30MOL   C68922787   4.065   4.238   7.651  0.5293 -0.0220  0.0299
   30MOL   C69022788   4.120   4.433   7.515  0.3595 -0.2588  0.0132
   30MOL   C69122789   4.091   4.572   7.475 -0.3257  0.6250 -0.2466
   30MOL   C69222790   3.958   4.572   7.403  0.0078  0.5590  0.5141
   30MOL   C69322791   3.935   4.696   7.328  0.7581 -0.0424  0.2880
   30MOL   O69422792   3.864   4.673   7.208 -0.1034 -0.1717  0.3483
   30MOL   C69522793   3.850   4.775   7.117 -0.5356  0.1509  0.0936
   30MOL   O69622794   3.907   4.879   7.131 -0.5027 -0.3801 -0.3489
   30MOL   C69722795   3.765   4.742   7.004  0.1765  0.1883 -0.4926
   30MOL   C69822796   3.755   4.831   6.892  0.7265  0.3460  0.2450
   30MOL   C69922797   3.687   4.792   6.776  0.1821  0.6360 -0.1329
   30MOL   C70022798   3.602   4.679   6.774  0.6551 -0.4368  0.3908
   30MOL   C70122799   3.523   4.650   6.655 -0.0225 -0.2330 -0.0393
   30MOL   O70222800   3.521   4.725   6.555 -0.4768 -0.0299 -0.3046
   30MOL   O70322801   3.460   4.537   6.664 -0.1573  0.0859 -0.5690
   30MOL   C70422802   3.611   4.588   6.885 -0.6486  0.7142  0.5034
   30MOL   C70522803   3.697   4.617   6.995 -0.4248  0.0302  0.1721
   30MOL   H70622804   3.825   4.584   7.588  1.7475 -0.1099 -0.2760
   30MOL   H70722805   3.755   4.526   7.454  1.3093  2.5266 -0.1788
   30MOL   H70822806   3.869   4.319   7.456 -2.5835  2.3098 -0.9410
   30MOL   H70922807   3.806   4.337   7.612 -0.7826 -1.1035 -1.5178
   30MOL   H71022808   4.018   4.452   7.685  1.9363  1.5414 -0.1866
   30MOL   H71122809   4.171   4.222   7.670  1.1120  2.0887 -1.2997
   30MOL   H71222810   4.023   4.162   7.586 -2.0200  0.2385  1.2682
   30MOL   H71322811   4.139   4.364   7.433  3.6781  1.4156 -0.7316
   30MOL   H71422812   4.215   4.429   7.570 -0.8292  1.8156  2.3303
   30MOL   H71522813   4.087   4.621   7.572 -0.9832  2.5076 -1.1872
   30MOL   H71622814   4.162   4.629   7.414  1.2006  0.1390  1.0408
   30MOL   H71722815   3.961   4.494   7.327 -3.1630  0.9305 -0.0530
   30MOL   H71822816   4.028   4.746   7.300  0.1450 -0.3404 -2.4040
   30MOL   H71922817   3.868   4.759   7.387 -1.4189 -0.1522 -2.0159
   30MOL   H72022818   3.816   4.919   6.888 -0.2917  1.0192 -0.5182
   30MOL   H72122819   3.695   4.855   6.688 -0.3043 -1.5882 -1.8304
   30MOL   H72222820   3.556   4.495   6.893  1.9736 -0.6188  4.1703
   30MOL   H72322821   3.705   4.544   7.074 -2.2375 -1.2169 -0.7525
   30MOL   C72422822   3.086   4.382   6.817 -0.4212 -0.4626 -0.0333
   30MOL   C72522823   3.190   4.472   6.740  0.0104 -0.2423 -0.1079
   30MOL   C72622824   3.279   4.397   6.639  0.1793 -0.3926 -0.1754
   30MOL   C72722825   3.369   4.496   6.557  0.1789 -0.3343 -0.3549
   30MOL   C72822826   3.348   4.283   6.705 -0.3388  0.2228 -0.6142
   30MOL   C72922827   3.251   4.190   6.776  0.0073  0.3976  0.0492
   30MOL   C73022828   3.163   4.260   6.879 -0.1308 -0.2904 -0.4483
   30MOL   C73122829   3.074   4.149   6.946 -0.0524 -0.0191 -0.9562
   30MOL   O73222830   3.029   4.194   7.069 -0.6509 -0.1495  0.0264
   30MOL   C73322831   2.938   4.116   7.136  0.4142  0.0819  0.0030
   30MOL   O73422832   2.896   4.008   7.086  0.0099 -0.0522 -0.3992
   30MOL   C73522833   2.901   4.168   7.270 -0.1702  0.1294  0.3094
   30MOL   C73622834   2.936   4.303   7.315  0.2645  0.0800 -0.0311
   30MOL   C73722835   2.904   4.349   7.441 -0.6203  0.8160  0.6646
   30MOL   C73822836   2.821   4.273   7.525 -0.0345 -0.4097  0.1935
   30MOL   C73922837   2.779   4.317   7.657 -0.1486 -0.3472  0.2368
   30MOL   O74022838   2.749   4.245   7.757 -0.0299  1.1468 -0.3164
   30MOL   O74122839   2.764   4.451   7.665 -0.1302  0.0945 -0.2765
   30MOL   C74222840   2.788   4.146   7.483  0.3264 -0.3190 -0.1326
   30MOL   C74322841   2.819   4.089   7.358  0.2955  0.2380 -0.1104
   30MOL   H74422842   3.012   4.344   6.746 -0.2481 -1.4460  0.3073
   30MOL   H74522843   3.042   4.442   6.896 -0.2752  2.4221 -2.0736
   30MOL   H74622844   3.252   4.532   6.807  0.3590 -0.4358 -0.2562
   30MOL   H74722845   3.130   4.550   6.693  0.6799 -0.3453 -1.1438
   30MOL   H74822846   3.217   4.348   6.564 -1.3283 -0.6119  1.1920
   30MOL   H74922847   3.322   4.581   6.509  0.3755  0.2095  0.4050
   30MOL   H75022848   3.422   4.437   6.482 -0.8954  0.0355 -1.4114
   30MOL   H75122849   3.423   4.312   6.778 -1.9020  0.5491  0.8857
   30MOL   H75222850   3.404   4.217   6.638 -0.0284 -1.0644  0.8774
   30MOL   H75322851   3.184   4.138   6.708 -0.2182  0.2632  0.3732
   30MOL   H75422852   3.290   4.103   6.830  0.1405  0.7281  0.4899
   30MOL   H75522853   3.235   4.302   6.949 -1.7439  0.3119  0.8946
   30MOL   H75622854   3.120   4.051   6.957 -2.1589 -0.7336  1.9047
   30MOL   H75722855   2.983   4.133   6.887 -0.3107 -2.2890 -0.0022
   30MOL   H75822856   2.987   4.376   7.255 -0.9360  4.8501  4.4288
   30MOL   H75922857   2.939   4.445   7.475 -1.2573  1.4342 -0.4042
   30MOL   H76022858   2.721   4.094   7.551  0.3760 -1.3777 -0.8793
   30MOL   H76122859   2.799   3.985   7.338  0.0951  0.1560  0.5135
   30MOL   H76222860   2.729   4.469   7.751  2.1571  3.0005  0.1289
   31MOL     C122861   6.762   1.014   0.706  0.2999  0.5174 -0.0898
   31MOL     C222862   6.902   1.084   0.706 -0.2535  0.0309  0.5286
   31MOL     C322863   6.928   1.167   0.830 -0.2562  0.2620 -1.4434
   31MOL     C422864   7.059   1.246   0.837  0.1845  0.9460  0.0274
   31MOL     C522865   6.814   1.270   0.850 -0.0910 -0.1643 -0.3170
   31MOL     C622866   6.676   1.204   0.854 -0.3603  0.5107  0.2144
   31MOL     C722867   6.652   1.121   0.728  0.2854  0.1074  0.4892
   31MOL     C822868   6.510   1.073   0.716 -0.0093 -0.2009  0.1594
   31MOL     O922869   6.510   0.971   0.811  0.5133 -0.1429 -0.3443
   31MOL    C1022870   6.406   0.948   0.892 -0.2156  0.6372 -0.0405
   31MOL    O1122871   6.291   0.973   0.860  0.2001 -0.3759  0.1327
   31MOL    C1222872   6.448   0.888   1.026 -0.1060 -0.0187  0.1623
   31MOL    C1322873   6.578   0.837   1.045  0.2113 -0.0359 -0.3644
   31MOL    C1422874   6.622   0.815   1.178 -0.3900 -0.4821  0.8272
   31MOL    C1522875   6.536   0.820   1.284  0.1966  0.5677  0.0514
   31MOL    C1622876   6.577   0.782   1.426  0.1675 -0.7364  0.0097
   31MOL    O1722877   6.500   0.754   1.514 -0.8561  0.6114 -0.7049
   31MOL    O1822878   6.715   0.782   1.441  0.0260  0.0805  0.3375
   31MOL    C1922879   6.401   0.852   1.263  0.6839 -1.0512  0.6313
   31MOL    C2022880   6.357   0.898   1.136  0.4875 -0.7576  0.3200
   31MOL    H2122881   6.751   0.946   0.790 -0.1795  0.7660  0.0503
   31MOL    H2222882   6.758   0.950   0.618 -1.5545 -0.2017  0.5057
   31MOL    H2322883   6.905   1.145   0.616 -0.3155  0.4867  0.8376
   31MOL    H2422884   6.991   1.024   0.685 -0.6912 -0.8396  1.1178
   31MOL    H2522885   6.928   1.099   0.915  3.5877 -0.1397 -1.6573
   31MOL    H2622886   7.140   1.176   0.817 -1.1159 -0.3968 -0.6398
   31MOL    H2722887   7.074   1.288   0.936  0.7747  0.4080  0.1665
   31MOL    H2822888   6.827   1.344   0.770 -2.9841 -0.4092 -1.0651
   31MOL    H2922889   6.835   1.329   0.939 -0.7505 -0.2504 -0.1040
   31MOL    H3022890   6.681   1.132   0.937 -0.3413  0.2474 -0.0152
   31MOL    H3122891   6.597   1.279   0.858 -0.9005 -0.0498  0.1420
   31MOL    H3222892   6.655   1.187   0.640 -0.8597  0.0887  0.4334
   31MOL    H3322893   6.487   1.022   0.622 -1.5245  0.3980  0.2050
   31MOL    H3422894   6.434   1.149   0.730  1.0632  0.9339 -0.0390
   31MOL    H3522895   6.643   0.819   0.961 -2.8851 -1.5126 -2.5619
   31MOL    H3622896   6.724   0.785   1.200 -0.3607 -2.5227 -1.8654
   31MOL    H3722897   6.328   0.852   1.343  0.2669 -0.0430  0.2570
   31MOL    H3822898   6.262   0.948   1.119  0.8418 -0.3717 -0.5559
   31MOL    H3922899   7.046   1.323   0.760 -0.5850  0.6425 -0.1467
   31MOL    C4022900   7.106   0.976   1.545  0.3508 -0.2135  0.9910
   31MOL    C4122901   6.957   0.950   1.538  0.0450 -0.4718 -0.2143
   31MOL    C4222902   6.925   0.801   1.569 -0.6721  0.5371  0.2562
   31MOL    C4322903   6.775   0.768   1.567  0.6887  0.1471 -0.8382
   31MOL    C4422904   7.013   0.720   1.467  0.7290  0.0188  0.1617
   31MOL    C4522905   7.162   0.745   1.478 -0.4436 -0.3890 -0.3050
   31MOL    C4622906   7.189   0.894   1.451  1.1453 -0.6186  0.0908
   31MOL    C4722907   7.340   0.928   1.469 -0.0742  0.2105  0.1930
   31MOL    O4822908   7.411   0.864   1.372  0.2388  0.4521  0.3758
   31MOL    C4922909   7.547   0.875   1.372 -0.0759  0.5211 -0.8635
   31MOL    O5022910   7.607   0.945   1.448  0.2456 -0.4844 -0.6471
   31MOL    C5122911   7.599   0.802   1.258  0.2194 -0.2368 -0.1442
   31MOL    C5222912   7.714   0.847   1.199 -0.3805  0.2925  0.4112
   31MOL    C5322913   7.770   0.781   1.084 -0.7334  0.2543 -0.2584
   31MOL    C5422914   7.700   0.671   1.026  0.1025  0.1776 -0.3445
   31MOL    C5522915   7.747   0.627   0.895 -0.1046 -0.3963 -0.4448
   31MOL    O5622916   7.804   0.711   0.826 -0.4677  0.5278  0.1784
   31MOL    O5722917   7.715   0.504   0.862  0.9688 -0.2416 -0.3135
   31MOL    C5822918   7.590   0.616   1.097  0.2113  0.5550  0.4702
   31MOL    C5922919   7.540   0.683   1.210  0.6258 -1.5817 -0.1582
   31MOL    H6022920   7.144   0.954   1.645  1.7783 -1.5995  0.1733
   31MOL    H6122921   7.122   1.083   1.531 -2.0277  0.0853  0.4899
   31MOL    H6222922   6.921   0.984   1.441 -0.2803 -0.7201 -0.1800
   31MOL    H6322923   6.905   1.020   1.604  0.2433  1.8125 -2.4041
   31MOL    H6422924   6.959   0.774   1.669  2.0038 -3.0045 -1.4824
   31MOL    H6522925   6.720   0.832   1.637 -1.0895 -2.1996 -0.0024
   31MOL    H6622926   6.759   0.665   1.601 -0.2270  0.9452  1.2145
   31MOL    H6722927   6.992   0.733   1.361  0.8914  0.7651  0.2190
   31MOL    H6822928   6.993   0.615   1.487 -1.9535  0.2345 -1.1773
   31MOL    H6922929   7.203   0.717   1.575 -0.1135  0.3232 -0.2357
   31MOL    H7022930   7.209   0.679   1.405 -0.4913 -1.3585  0.5418
   31MOL    H7122931   7.153   0.918   1.351  0.7585 -0.5731  0.2429
   31MOL    H7222932   7.366   0.907   1.573 -1.6402  0.5641  0.6687
   31MOL    H7322933   7.348   1.036   1.464 -1.7217  0.3556  0.1957
   31MOL    H7422934   7.732   0.947   1.235  0.2163  0.0738  0.7073
   31MOL    H7522935   7.853   0.826   1.032 -0.8903 -0.5401 -1.2200
   31MOL    H7622936   7.535   0.532   1.058  1.6875 -0.7500  1.1210
   31MOL    H7722937   7.459   0.638   1.265  0.5052 -0.4980  0.5618
   31MOL    C7822938   7.463   0.182   0.683 -0.2881 -0.1297 -0.1826
   31MOL    C7922939   7.594   0.244   0.745  0.1927 -0.4575  0.2704
   31MOL    C8022940   7.636   0.370   0.675 -0.3828  0.0641  0.2924
   31MOL    C8122941   7.760   0.434   0.745  0.0023 -0.3450  0.5378
   31MOL    C8222942   7.660   0.341   0.533  0.0764  0.0613 -0.5433
   31MOL    C8322943   7.530   0.295   0.465  0.2900  0.1478 -0.0186
   31MOL    C8422944   7.479   0.160   0.533 -0.8395  0.2875 -0.1533
   31MOL    C8522945   7.347   0.117   0.476  0.2350 -0.3871 -0.0552
   31MOL    O8622946   7.246   0.220   0.480 -0.3334  0.3165  0.3881
   31MOL    C8722947   7.129   0.208   0.411 -0.1741  0.3205 -0.4768
   31MOL    O8822948   7.113   0.127   0.320  0.5937 -0.3482 -0.7870
   31MOL    C8922949   7.026   0.310   0.448  0.0286  0.0822  0.3295
   31MOL    C9022950   6.902   0.313   0.377 -1.0095 -0.0442  0.5135
   31MOL    C9122951   6.801   0.410   0.417  0.2758  0.3549  0.0138
   31MOL    C9222952   6.824   0.497   0.525 -0.5057 -0.4101 -1.0204
   31MOL    C9322953   6.711   0.576   0.580 -0.0732 -0.5688 -0.0266
   31MOL    O9422954   6.695   0.594   0.703 -0.0677  0.4282  0.0980
   31MOL    O9522955   6.626   0.621   0.492 -0.2839  0.6804 -0.2871
   31MOL    C9622956   6.945   0.492   0.592  0.0397 -0.1023  0.1365
   31MOL    C9722957   7.043   0.401   0.552  0.0068 -0.0113 -0.5947
   31MOL    H9822958   7.384   0.255   0.705 -0.0752  0.0953 -0.1629
   31MOL    H9922959   7.434   0.090   0.733 -1.6039  0.3086 -0.1092
   31MOL   H10022960   7.670   0.166   0.744  3.1886  2.3687 -0.6158
   31MOL   H10122961   7.576   0.266   0.850  2.0348  0.9159  0.3320
   31MOL   H10222962   7.552   0.440   0.683  0.3073  0.7962  1.1754
   31MOL   H10322963   7.798   0.509   0.676 -4.6447  3.1178  1.4901
   31MOL   H10422964   7.829   0.351   0.758  3.2586  2.2233  0.3342
   31MOL   H10522965   7.735   0.265   0.509  1.2618  1.5337 -1.5580
   31MOL   H10622966   7.703   0.432   0.493  1.1340  0.4893  1.4589
   31MOL   H10722967   7.457   0.374   0.484 -0.7303 -0.7070 -0.3519
   31MOL   H10822968   7.544   0.270   0.360  0.6618  0.8847 -0.1493
   31MOL   H10922969   7.546   0.076   0.518  1.0359  1.5821  0.7195
   31MOL   H11022970   7.303   0.031   0.526 -0.3015 -0.3473 -0.4571
   31MOL   H11122971   7.360   0.093   0.370  0.7598  0.4439 -0.1877
   31MOL   H11222972   6.898   0.241   0.296  0.7897 -0.5389  0.8391
   31MOL   H11322973   6.710   0.407   0.359  0.2949 -1.7212  0.0343
   31MOL   H11422974   6.966   0.561   0.672 -1.7661  0.8550 -0.1972
   31MOL   H11522975   7.136   0.414   0.606 -0.6331 -0.3118  0.5885
   31MOL   C11622976   6.474   0.968   0.234  0.2816 -0.1882  0.1092
   31MOL   C11722977   6.545   0.879   0.338  0.4669 -0.3832 -0.1666
   31MOL   C11822978   6.455   0.770   0.401  0.1052  0.8072 -0.1641
   31MOL   C11922979   6.513   0.702   0.525  0.2192 -0.0841 -0.5454
   31MOL   C12022980   6.319   0.832   0.441  0.4301 -1.0759 -0.0870
   31MOL   C12122981   6.258   0.914   0.325  0.1594  0.4197  0.5049
   31MOL   C12222982   6.350   1.028   0.286 -0.5007  0.6466  0.6962
   31MOL   C12322983   6.284   1.124   0.187  0.3298  0.0315  0.7610
   31MOL   O12422984   6.178   1.203   0.247  0.4185  0.6140 -0.4278
   31MOL   C12522985   6.058   1.150   0.224 -0.8352  1.2921 -0.7274
   31MOL   O12622986   6.024   1.072   0.135  0.8213  0.3761 -0.1995
   31MOL   C12722987   5.971   1.217   0.319 -0.6857 -0.0868 -0.6188
   31MOL   C12822988   5.842   1.256   0.272  0.9299 -0.9125 -0.5809
   31MOL   C12922989   5.746   1.307   0.359 -0.3396 -0.4864  0.4596
   31MOL   C13022990   5.769   1.319   0.493 -0.3960 -0.1599  0.0739
   31MOL   C13122991   5.663   1.362   0.583  0.0266 -0.3209  0.5756
   31MOL   O13222992   5.552   1.397   0.536 -0.4826 -0.0708  0.1234
   31MOL   O13322993   5.691   1.353   0.718  0.8688 -0.5462 -0.4053
   31MOL   C13422994   5.898   1.286   0.542 -0.1230  0.0282  0.3108
   31MOL   C13522995   6.001   1.239   0.455 -0.0683 -0.1880  0.4809
   31MOL   H13622996   6.462   0.916   0.139  0.5624 -0.8598  0.4415
   31MOL   H13722997   6.548   1.047   0.218  1.4286 -1.2185  0.1805
   31MOL   H13822998   6.587   0.945   0.414  0.4316  1.3892 -1.6588
   31MOL   H13922999   6.627   0.822   0.296  0.2590 -0.0973 -0.9595
   31MOL   H14023000   6.433   0.691   0.330  0.2664  0.9125 -0.3298
   31MOL   H14123001   6.436   0.632   0.560  0.1915 -0.0594 -0.5561
   31MOL   H14223002   6.539   0.777   0.600 -0.8971  0.5787 -0.8106
   31MOL   H14323003   6.318   0.898   0.528 -1.4277 -2.4136  0.9315
   31MOL   H14423004   6.252   0.748   0.459  0.0277 -0.0983  3.3360
   31MOL   H14523005   6.238   0.852   0.238 -0.1560 -0.0824  0.9304
   31MOL   H14623006   6.164   0.950   0.367 -1.7755 -2.1869 -1.3775
   31MOL   H14723007   6.361   1.087   0.376  0.2185 -0.8142  1.5755
   31MOL   H14823008   6.247   1.076   0.097  0.1817 -2.9458  2.3619
   31MOL   H14923009   6.360   1.186   0.138 -1.0748 -0.1135 -1.6770
   31MOL   H15023010   5.813   1.242   0.169  0.5607 -0.4417 -0.5430
   31MOL   H15123011   5.647   1.323   0.318  0.1165  2.4487  0.3810
   31MOL   H15223012   5.923   1.290   0.647  2.1034  2.1182 -0.2323
   31MOL   H15323013   6.097   1.206   0.489  0.6579  0.4534 -0.9046
   31MOL   C15423014   5.508   1.669   1.044  0.4152 -0.0620  0.4457
   31MOL   C15523015   5.511   1.525   0.992 -0.4338  0.3294  0.7084
   31MOL   C15623016   5.596   1.508   0.871 -0.5004 -0.2012  0.3052
   31MOL   C15723017   5.590   1.360   0.810  0.4174 -0.2708 -0.0819
   31MOL   C15823018   5.534   1.608   0.767  0.1833  0.4739  0.3108
   31MOL   C15923019   5.530   1.756   0.801 -0.9150 -0.2661  0.6619
   31MOL   C16023020   5.460   1.772   0.934 -1.0776  0.3235  1.0990
   31MOL   C16123021   5.479   1.919   0.988 -0.0976 -0.6438  0.4785
   31MOL   O16223022   5.438   1.931   1.122 -0.1894 -0.5539  0.2807
   31MOL   C16323023   5.428   2.053   1.178  0.1846 -0.5410  0.9845
   31MOL   O16423024   5.441   2.156   1.111 -0.0311  0.1823  0.2492
   31MOL   C16523025   5.416   2.045   1.326 -0.2218  0.3510 -0.5006
   31MOL   C16623026   5.404   1.917   1.384 -0.0511  0.2181 -0.1406
   31MOL   C16723027   5.389   1.911   1.524 -0.7645  0.4162  0.6103
   31MOL   C16823028   5.388   2.030   1.601 -0.0825  0.3580  0.1281
   31MOL   C16923029   5.376   2.023   1.750 -0.1270 -0.3234 -0.1036
   31MOL   O17023030   5.352   1.922   1.817 -0.0094 -0.0273  0.1033
   31MOL   O17123031   5.386   2.146   1.807  0.4966  0.0926 -0.1181
   31MOL   C17223032   5.409   2.153   1.538  0.2923 -1.2803  0.1571
   31MOL   C17323033   5.414   2.163   1.398  0.4895  0.1052 -0.2074
   31MOL   H17423034   5.601   1.707   1.086  0.4638  1.4814 -1.0076
   31MOL   H17523035   5.440   1.680   1.128 -0.6002  1.3932 -0.5515
   31MOL   H17623036   5.414   1.480   0.973 -0.7161  1.4302 -0.4624
   31MOL   H17723037   5.558   1.465   1.070  0.9299  0.4550  0.0026
   31MOL   H17823038   5.696   1.541   0.896 -0.6537 -1.3253  2.5827
   31MOL   H17923039   5.495   1.335   0.762  1.7233 -1.9425 -1.8250
   31MOL   H18023040   5.593   1.289   0.892 -1.8571  0.4240  0.6420
   31MOL   H18123041   5.436   1.572   0.735 -0.6311  2.1714  0.8453
   31MOL   H18223042   5.589   1.592   0.674  0.7233  0.2061  0.6768
   31MOL   H18323043   5.635   1.784   0.810 -0.2156 -1.9707 -1.5194
   31MOL   H18423044   5.495   1.821   0.721  2.5843  0.0598 -0.6990
   31MOL   H18523045   5.353   1.757   0.915 -0.7227  0.0381 -0.7954
   31MOL   H18623046   5.419   1.988   0.929  0.8825  0.2810  0.5549
   31MOL   H18723047   5.583   1.950   0.989 -0.5096  0.8270 -0.3165
   31MOL   H18823048   5.408   1.821   1.334  0.9190 -1.3666  2.8764
   31MOL   H18923049   5.376   1.812   1.566 -1.9315 -0.1267 -0.9647
   31MOL   H19023050   5.399   2.244   1.595 -0.3394 -2.1729  1.4975
   31MOL   H19123051   5.428   2.257   1.347  0.8271  0.0799 -0.1604
   31MOL   C19223052   5.705   2.330   2.038  0.5361  0.6110  0.8113
   31MOL   C19323053   5.578   2.295   1.955  0.5043 -0.2956  0.5589
   31MOL   C19423054   5.490   2.190   2.023 -0.7382 -0.0029 -0.2317
   31MOL   C19523055   5.355   2.169   1.947 -0.5382  0.2860 -0.1950
   31MOL   C19623056   5.571   2.063   2.045 -0.3852  0.1735 -0.0829
   31MOL   C19723057   5.688   2.099   2.137 -0.6380  0.3993  0.0529
   31MOL   C19823058   5.779   2.206   2.085  0.3788 -0.5672 -0.1280
   31MOL   C19923059   5.901   2.227   2.175  0.5768 -0.2211 -0.5189
   31MOL   O20023060   6.006   2.285   2.093  0.0496  0.2723 -0.0652
   31MOL   C20123061   6.100   2.366   2.153  0.2770 -0.2912 -0.1471
   31MOL   O20223062   6.097   2.387   2.274 -0.3422  0.4626 -0.5637
   31MOL   C20323063   6.211   2.413   2.053  0.1101 -0.1364 -0.2532
   31MOL   C20423064   6.216   2.369   1.923 -0.7295 -0.7426 -0.1599
   31MOL   C20523065   6.329   2.407   1.846 -0.0260  0.2921 -0.4755
   31MOL   C20623066   6.436   2.484   1.899  0.7234 -0.5485 -0.3394
   31MOL   C20723067   6.550   2.508   1.809 -0.5800  0.3451  0.1197
   31MOL   O20823068   6.554   2.455   1.697 -0.2590  0.2194  0.0185
   31MOL   O20923069   6.648   2.571   1.865 -0.2276 -0.2091 -0.1901
   31MOL   C21023070   6.429   2.531   2.035  0.5031 -0.1281  0.0084
   31MOL   C21123071   6.311   2.501   2.103 -0.2961  0.3522 -0.1391
   31MOL   H21223072   5.672   2.380   2.129  0.2067  1.7614  0.0812
   31MOL   H21323073   5.771   2.404   1.991 -0.2686  0.3016 -0.8420
   31MOL   H21423074   5.608   2.264   1.855 -0.0912  1.9608 -0.3606
   31MOL   H21523075   5.531   2.392   1.939  1.6013  0.0072 -0.9136
   31MOL   H21623076   5.451   2.223   2.120 -0.6253  1.9575 -0.8409
   31MOL   H21723077   5.295   2.259   1.955 -0.2005  0.3286  2.0896
   31MOL   H21823078   5.293   2.092   1.993 -0.0114 -0.9466 -1.5153
   31MOL   H21923079   5.614   2.039   1.947 -1.7622 -1.7333 -0.2581
   31MOL   H22023080   5.509   1.982   2.083  1.6904 -0.4995  1.9587
   31MOL   H22123081   5.651   2.128   2.236 -0.5746 -0.6657  0.3970
   31MOL   H22223082   5.735   2.001   2.146 -0.1142  0.7747  1.6414
   31MOL   H22323083   5.809   2.160   1.991 -0.5161  0.6440 -1.0230
   31MOL   H22423084   5.937   2.130   2.210 -0.0043  0.7184  2.8435
   31MOL   H22523085   5.882   2.294   2.258  2.8066  0.2411 -0.3454
   31MOL   H22623086   6.145   2.300   1.880 -1.4464  0.7809 -1.4447
   31MOL   H22723087   6.334   2.379   1.741 -1.2809  3.2440 -1.3772
   31MOL   H22823088   6.507   2.592   2.078  0.9152 -0.6514  0.0166
   31MOL   H22923089   6.292   2.529   2.206  0.0924 -0.6282  0.2016
   31MOL   C23023090   6.757   3.000   1.710 -0.5932  0.2020 -0.0501
   31MOL   C23123091   6.711   2.851   1.729 -0.0421  0.0207 -0.4129
   31MOL   C23223092   6.801   2.761   1.812 -0.0324 -0.1598 -0.2920
   31MOL   C23323093   6.767   2.610   1.788  0.3483 -0.1370  0.0239
   31MOL   C23423094   6.945   2.774   1.758  0.0241  0.5064 -0.3250
   31MOL   C23523095   6.996   2.918   1.763 -0.3494 -0.3267  0.1310
   31MOL   C23623096   6.909   3.014   1.671  0.2764  0.3975 -0.1796
   31MOL   C23723097   6.951   3.165   1.678  0.1573  0.5377 -0.5014
   31MOL   O23823098   6.868   3.230   1.590  0.1814  0.2263  0.0849
   31MOL   C23923099   6.908   3.277   1.477  0.1770 -0.1534  0.7024
   31MOL   O24023100   7.025   3.310   1.454 -0.7217  0.1470 -0.5356
   31MOL   C24123101   6.791   3.286   1.382  0.4438  0.1822  0.1707
   31MOL   C24223102   6.659   3.302   1.429  0.3488  0.6828  0.1399
   31MOL   C24323103   6.552   3.322   1.338  0.1057  0.1937  0.9032
   31MOL   C24423104   6.570   3.315   1.199 -0.2827  0.4505 -0.1875
   31MOL   C24523105   6.459   3.330   1.109 -0.7792 -0.0934  0.7992
   31MOL   O24623106   6.348   3.375   1.146 -0.1373  0.1887 -0.5657
   31MOL   O24723107   6.498   3.300   0.979  0.2197 -0.1508  0.5358
   31MOL   C24823108   6.699   3.287   1.154  0.5729  0.3916  0.1098
   31MOL   C24923109   6.807   3.270   1.244  0.0847  0.6706  0.3030
   31MOL   H25023110   6.741   3.051   1.805 -1.6994  1.7843 -1.0608
   31MOL   H25123111   6.699   3.057   1.638 -0.2410 -0.7839 -1.1232
   31MOL   H25223112   6.689   2.811   1.630 -0.2170  0.0810 -0.3983
   31MOL   H25323113   6.610   2.853   1.770 -0.0429 -0.0137 -0.4133
   31MOL   H25423114   6.801   2.794   1.915 -3.2163 -0.7391 -0.0356
   31MOL   H25523115   6.850   2.547   1.820  0.7030 -0.1905 -0.9887
   31MOL   H25623116   6.756   2.596   1.681 -1.7795 -2.2405  0.4649
   31MOL   H25723117   6.951   2.730   1.658 -0.0173 -2.3603  0.8794
   31MOL   H25823118   7.010   2.705   1.812 -0.8692 -0.7880 -0.8765
   31MOL   H25923119   7.003   2.965   1.862 -0.2313 -0.4222  0.1690
   31MOL   H26023120   7.096   2.927   1.719 -0.0713 -2.7372  0.1723
   31MOL   H26123121   6.918   2.983   1.567  0.7388 -2.7868  0.7746
   31MOL   H26223122   7.056   3.189   1.662 -0.2629  1.3919 -2.1418
   31MOL   H26323123   6.924   3.197   1.779  0.4909 -0.1799 -0.1822
   31MOL   H26423124   6.635   3.292   1.534 -0.1591 -0.5360 -0.0849
   31MOL   H26523125   6.452   3.348   1.369  0.1249  2.4440 -0.8004
   31MOL   H26623126   6.730   3.303   1.052 -1.9598  3.1380 -0.3127
   31MOL   H26723127   6.908   3.261   1.207  0.1473  3.9881 -0.5603
   31MOL   C26823128   6.484   2.934   0.780 -0.0201  0.1820 -0.3460
   31MOL   C26923129   6.511   3.086   0.787  0.1861  0.5632  0.1667
   31MOL   C27023130   6.377   3.155   0.836  0.4969 -0.5965 -0.1588
   31MOL   C27123131   6.400   3.313   0.879  0.2275  0.2882 -0.1562
   31MOL   C27223132   6.263   3.135   0.736  0.7809 -0.0918  0.0743
   31MOL   C27323133   6.240   2.983   0.714  0.1927 -0.9912  0.5106
   31MOL   C27423134   6.368   2.904   0.684  0.5167  0.2068 -0.2557
   31MOL   C27523135   6.351   2.754   0.641 -0.7953 -0.3182  0.1447
   31MOL   O27623136   6.462   2.725   0.556 -0.8714  0.4967 -0.4698
   31MOL   C27723137   6.458   2.627   0.470  0.3976  1.1131  0.6412
   31MOL   O27823138   6.362   2.548   0.457  0.0381  0.0768  0.4080
   31MOL   C27923139   6.580   2.625   0.392 -0.0676  0.3435 -0.4118
   31MOL   C28023140   6.591   2.562   0.269  0.0699  0.5106  0.7358
   31MOL   C28123141   6.708   2.566   0.187  0.9826 -0.4232 -0.3964
   31MOL   C28223142   6.819   2.629   0.238 -0.5996 -0.3257  0.4110
   31MOL   C28323143   6.946   2.629   0.160 -0.6571 -0.1083  0.2741
   31MOL   O28423144   7.046   2.678   0.210 -0.7174 -0.3082 -0.6100
   31MOL   O28523145   6.945   2.577   0.041  0.1852 -0.7108 -0.1813
   31MOL   C28623146   6.816   2.691   0.363 -0.2925  0.6224  1.1547
   31MOL   C28723147   6.699   2.686   0.438 -0.4703 -0.5672 -0.3676
   31MOL   H28823148   6.459   2.902   0.882  0.2022 -0.6930 -0.5647
   31MOL   H28923149   6.573   2.880   0.748  0.4406  0.9880 -0.4281
   31MOL   H29023150   6.556   3.137   0.702 -0.2772  0.0444 -0.3967
   31MOL   H29123151   6.591   3.114   0.856  0.9915  2.8414 -1.6613
   31MOL   H29223152   6.342   3.109   0.929  0.0518  1.4193  0.6909
   31MOL   H29323153   6.309   3.364   0.910  0.8833  0.6322  1.2504
   31MOL   H29423154   6.446   3.362   0.793  2.6135 -0.1629  0.8218
   31MOL   H29523155   6.292   3.180   0.642  1.6841  0.7592  0.7477
   31MOL   H29623156   6.164   3.160   0.775 -0.3387  0.6545 -3.0959
   31MOL   H29723157   6.185   2.940   0.798  0.0948 -1.7797  0.0464
   31MOL   H29823158   6.171   2.980   0.630  2.6211 -0.1043 -1.6061
   31MOL   H29923159   6.397   2.961   0.596  1.0681  0.4599  0.0822
   31MOL   H30023160   6.261   2.742   0.581 -0.8017 -0.7859  0.2521
   31MOL   H30123161   6.340   2.689   0.727  1.3214 -1.2930 -0.2940
   31MOL   H30223162   6.508   2.510   0.225  1.2143 -0.7513  0.0352
   31MOL   H30323163   6.700   2.512   0.093  2.1287  0.1439 -0.8246
   31MOL   H30423164   6.901   2.741   0.407  1.3076  0.3631 -1.5491
   31MOL   H30523165   6.701   2.737   0.533  0.3287 -2.3517  0.5744
   31MOL   C30623166   7.127   2.172   7.904  0.4225  0.8637 -0.1362
   31MOL   C30723167   7.166   2.325   7.918 -0.3594 -0.5447 -0.9354
   31MOL   C30823168   7.044   2.399   7.964 -0.3874  0.1851  0.4598
   31MOL   C30923169   7.055   2.555   7.989  0.0094 -0.0607 -1.5818
   31MOL   C31023170   6.913   2.372   7.878  0.0228  0.1631 -0.1561
   31MOL   C31123171   6.883   2.217   7.864 -0.1353 -0.1628  0.1637
   31MOL   C31223172   7.008   2.140   7.811 -0.0209  0.2510  0.9290
   31MOL   C31323173   6.970   1.992   7.780 -0.4851 -0.4830  0.1405
   31MOL   O31423174   6.878   1.928   7.868 -0.1726 -0.0783 -0.2648
   31MOL   C31523175   6.922   1.887   7.988  0.4635  0.7314 -1.0484
   31MOL   O31623176   7.044   1.891   8.020 -0.0146 -0.1500  0.4887
   31MOL   C31723177   6.811   1.841   0.046  0.3445  1.0426 -0.0540
   31MOL   C31823178   6.825   1.795   0.176 -0.2332 -0.2000 -0.3381
   31MOL   C31923179   6.716   1.762   0.258 -0.1358  0.3955 -0.0124
   31MOL   C32023180   6.580   1.756   0.210  0.1222 -0.0972 -0.2459
   31MOL   C32123181   6.473   1.706   0.298  0.0946  0.0132 -0.4613
   31MOL   O32223182   6.484   1.704   0.425  0.3233 -0.5824  0.4169
   31MOL   O32323183   6.364   1.651   0.225  0.3435 -0.5871  0.0068
   31MOL   C32423184   6.566   1.797   0.078  0.6973  1.3644  0.1783
   31MOL   C32523185   6.674   1.835   8.030  0.2491 -0.1429 -0.0992
   31MOL   H32623186   7.118   2.142   8.009  0.2882  3.3728  0.6245
   31MOL   H32723187   7.220   2.137   7.859 -0.1434 -1.5119  0.4651
   31MOL   H32823188   7.194   2.370   7.822 -0.0668 -0.1722 -0.6807
   31MOL   H32923189   7.253   2.331   7.984 -1.3707 -0.1002  0.3938
   31MOL   H33023190   7.029   2.357   0.032  0.7331  0.5033  0.7586
   31MOL   H33123191   7.061   2.618   7.900  1.1138  0.7186 -0.9653
   31MOL   H33223192   7.154   2.568   0.002 -0.9484 -1.2183  0.9484
   31MOL   H33323193   6.920   2.430   7.786 -0.0038 -1.7963 -1.4221
   31MOL   H33423194   6.828   2.420   7.926  1.1341  4.6450 -2.4002
   31MOL   H33523195   6.847   2.180   7.960 -0.4759 -0.8296 -0.2140
   31MOL   H33623196   6.799   2.193   7.797  0.5851 -3.5267  0.3868
   31MOL   H33723197   7.038   2.186   7.717 -0.5355  0.4411  0.8591
   31MOL   H33823198   7.065   1.938   7.787 -0.1531  0.2501  1.5116
   31MOL   H33923199   6.940   1.981   7.676 -0.6437 -0.2189  0.1586
   31MOL   H34023200   6.927   1.806   0.211  0.0215 -2.3610 -0.3468
   31MOL   H34123201   6.728   1.741   0.363 -0.5012  1.2064  0.1895
   31MOL   H34223202   6.468   1.788   0.035  0.6557 -1.3547  0.7597
   31MOL   H34323203   6.658   1.879   7.933  0.5758 -0.4230 -0.2811
   31MOL   C34423204   5.969   1.846   0.374  0.0000 -0.2506 -0.0619
   31MOL   C34523205   6.100   1.774   0.379 -0.6609  0.3894 -0.2912
   31MOL   C34623206   6.120   1.660   0.276 -0.6855 -0.0684  0.6141
   31MOL   C34723207   6.257   1.598   0.298  0.0148 -0.1115 -0.3956
   31MOL   C34823208   6.006   1.553   0.289  0.4527 -0.9658 -0.1715
   31MOL   C34923209   5.862   1.619   0.292  0.5398 -0.6534 -0.3217
   31MOL   C35023210   5.851   1.747   0.392  0.3948 -0.0009 -0.2048
   31MOL   C35123211   5.709   1.801   0.400  0.3498  1.0520 -0.0045
   31MOL   O35223212   5.653   1.872   0.292 -0.4072 -0.2361  0.4150
   31MOL   C35323213   5.517   1.877   0.277 -0.3808 -0.0896 -0.3606
   31MOL   O35423214   5.437   1.824   0.354  0.1007  0.0911 -0.1863
   31MOL   C35523215   5.471   1.967   0.165 -0.3926  0.1563  0.3781
   31MOL   C35623216   5.569   2.026   0.077  0.3096 -0.0054  0.3593
   31MOL   C35723217   5.524   2.097   7.994  0.2487  0.1843 -0.1732
   31MOL   C35823218   5.383   2.125   7.966  0.1827  0.3375  0.1224
   31MOL   C35923219   5.339   2.188   7.841 -0.3856 -0.7314 -0.4012
   31MOL   O36023220   5.218   2.205   7.811 -0.4029 -0.3454 -0.1586
   31MOL   O36123221   5.441   2.224   7.762  0.5218 -0.0208  0.4368
   31MOL   C36223222   5.289   2.074   0.030  0.3206  0.6087  0.2987
   31MOL   C36323223   5.334   1.997   0.142  0.2834 -0.3948  0.1429
   31MOL   H36423224   5.965   1.891   0.275  0.1428  2.6271  1.2049
   31MOL   H36523225   5.965   1.934   0.439  0.4610 -0.5045  0.3181
   31MOL   H36623226   6.111   1.739   0.482 -0.2062  0.5751 -0.2741
   31MOL   H36723227   6.176   1.852   0.367 -0.2811 -0.1039 -1.1598
   31MOL   H36823228   6.121   1.690   0.171  4.6504 -1.2290  0.2039
   31MOL   H36923229   6.242   1.502   0.248 -0.1590 -0.7970  0.9400
   31MOL   H37023230   6.279   1.574   0.402 -1.1778  0.4626 -0.0110
   31MOL   H37123231   6.008   1.500   0.385  0.1573  0.0225  0.3822
   31MOL   H37223232   6.006   1.483   0.206  1.6489 -2.1695  0.8113
   31MOL   H37323233   5.815   1.646   0.198 -0.1401  0.7594  0.4107
   31MOL   H37423234   5.791   1.544   0.326  0.3609  0.7766  2.6109
   31MOL   H37523235   5.862   1.703   0.491 -0.8434 -0.0991 -0.1004
   31MOL   H37623236   5.714   1.873   0.482 -0.0269 -0.7543  1.6483
   31MOL   H37723237   5.636   1.727   0.431  0.5319  1.4375  1.3772
   31MOL   H37823238   5.674   1.999   0.078  0.2545 -0.2107  0.7172
   31MOL   H37923239   5.594   2.134   7.920  0.2645  0.1837 -0.1588
   31MOL   H38023240   5.185   2.105   0.026 -0.0512 -0.4824  1.2615
   31MOL   H38123241   5.255   1.962   0.206 -0.0975  0.3243  0.0678
   31MOL   C38223242   5.797   2.289   7.508 -0.4471 -0.0632  0.8963
   31MOL   C38323243   5.680   2.317   7.602  0.9083 -0.2396 -0.0225
   31MOL   C38423244   5.538   2.273   7.545  0.5938  0.3973 -0.1072
   31MOL   C38523245   5.417   2.296   7.640 -0.0989  0.3136 -0.2437
   31MOL   C38623246   5.513   2.336   7.411 -0.1141  0.4134 -0.2057
   31MOL   C38723247   5.628   2.301   7.316 -0.7580 -0.1604 -0.4521
   31MOL   C38823248   5.773   2.346   7.363  0.4378  0.7272  0.4230
   31MOL   C38923249   5.882   2.301   7.271  0.9792 -0.1710 -0.7032
   31MOL   O39023250   5.871   2.368   7.139  0.1439 -0.0500 -0.6130
   31MOL   C39123251   5.924   2.497   7.125 -0.7205  0.1331  0.8998
   31MOL   O39223252   5.986   2.553   7.213  0.2440 -1.0498  0.1436
   31MOL   C39323253   5.900   2.557   6.990 -0.8355  0.3725  0.4477
   31MOL   C39423254   5.943   2.688   6.952 -0.1680 -0.0673  0.1348
   31MOL   C39523255   5.929   2.737   6.823  0.1608 -0.3993 -0.7331
   31MOL   C39623256   5.877   2.656   6.724  0.5888 -0.9233  0.3303
   31MOL   C39723257   5.866   2.710   6.584  0.1609  0.6210  0.4415
   31MOL   O39823258   5.923   2.816   6.549  0.4598 -0.2526 -0.3298
   31MOL   O39923259   5.785   2.637   6.509  0.1295  0.3319  0.9112
   31MOL   C40023260   5.835   2.529   6.759  0.4797  0.2831 -0.2475
   31MOL   C40123261   5.840   2.480   6.886 -0.3728  0.5119 -0.0013
   31MOL   H40223262   5.818   2.182   7.510 -0.9073 -0.1774 -0.2027
   31MOL   H40323263   5.887   2.333   7.551 -1.4047 -0.2252  3.1199
   31MOL   H40423264   5.687   2.418   7.641  0.4891 -0.5566  0.8660
   31MOL   H40523265   5.696   2.266   7.697  1.9957  1.3211  0.6503
   31MOL   H40623266   5.545   2.165   7.533 -0.0046  0.3694 -0.2204
   31MOL   H40723267   5.332   2.262   7.580 -0.6070  1.4293 -0.1822
   31MOL   H40823268   5.403   2.402   7.662  0.5875  0.4764 -0.5783
   31MOL   H40923269   5.511   2.445   7.417  2.4591  0.6167 -2.1806
   31MOL   H41023270   5.415   2.301   7.379 -0.1254  0.6131 -0.3975
   31MOL   H41123271   5.635   2.197   7.284 -0.0585 -0.1957 -0.1907
   31MOL   H41223272   5.608   2.362   7.228 -0.2359  0.3368 -0.2248
   31MOL   H41323273   5.792   2.453   7.360 -1.8021  1.1410 -0.1076
   31MOL   H41423274   5.858   2.195   7.257  1.4703  0.0146 -3.2704
   31MOL   H41523275   5.979   2.298   7.320  1.1193 -0.5356 -0.9945
   31MOL   H41623276   5.990   2.740   7.034 -0.6984 -0.4549  0.6914
   31MOL   H41723277   5.965   2.836   6.799 -0.3465  0.6988  2.7699
   31MOL   H41823278   5.791   2.467   6.682 -0.0047  1.6550 -1.1004
   31MOL   H41923279   5.807   2.378   6.899  1.2550 -0.1281 -0.6911
   31MOL   C42023280   5.361   2.723   6.545  0.0492  0.9953 -1.0042
   31MOL   C42123281   5.480   2.659   6.459 -0.3934 -0.4191  0.0691
   31MOL   C42223282   5.589   2.762   6.452  0.4585  0.7076  0.0845
   31MOL   C42323283   5.715   2.699   6.398  0.3036 -0.0498  0.0943
   31MOL   C42423284   5.549   2.889   6.375  0.7776  0.8100  0.2669
   31MOL   C42523285   5.420   2.945   6.452 -0.0708  0.2200 -0.3113
   31MOL   C42623286   5.305   2.852   6.497  0.4594 -0.1388 -0.1973
   31MOL   C42723287   5.212   2.924   6.599  0.2459 -0.8731 -0.2183
   31MOL   O42823288   5.105   2.840   6.626  0.0901  0.3187  0.5651
   31MOL   C42923289   4.976   2.884   6.596 -0.0777 -0.8813  0.4296
   31MOL   O43023290   4.951   2.998   6.548 -0.1904  0.4553 -0.5866
   31MOL   C43123291   4.866   2.780   6.631  0.4227 -0.9374 -0.3094
   31MOL   C43223292   4.731   2.810   6.610 -0.7593  0.2121  0.3666
   31MOL   C43323293   4.634   2.708   6.640  0.1247  0.5734  0.0107
   31MOL   C43423294   4.675   2.580   6.687  0.1534  0.3170  0.0826
   31MOL   C43523295   4.573   2.484   6.745 -0.2908  0.3211 -0.2404
   31MOL   O43623296   4.452   2.502   6.742  0.0297  0.7818  0.6126
   31MOL   O43723297   4.630   2.372   6.800 -0.4590  0.5577 -0.5046
   31MOL   C43823298   4.817   2.559   6.703  0.3692 -0.4644  0.2346
   31MOL   C43923299   4.911   2.652   6.663 -0.3696 -0.1506 -0.4650
   31MOL   H44023300   5.387   2.739   6.649  1.0870  1.7507 -1.3673
   31MOL   H44123301   5.285   2.645   6.547  0.8383  0.1895  3.7192
   31MOL   H44223302   5.440   2.621   6.366  0.0237  0.3780 -0.4381
   31MOL   H44323303   5.504   2.566   6.511  0.6122 -0.4875 -0.4897
   31MOL   H44423304   5.602   2.786   6.557 -1.4908 -1.6005  0.8827
   31MOL   H44523305   5.770   2.772   6.339  2.0775  0.0819  1.8737
   31MOL   H44623306   5.700   2.609   6.337  0.3648 -0.2112  0.3163
   31MOL   H44723307   5.535   2.873   6.269 -1.0825 -0.8006  0.7262
   31MOL   H44823308   5.628   2.964   6.375  0.9389  0.6490  1.3851
   31MOL   H44923309   5.457   2.990   6.544  0.4102  2.0785 -1.4018
   31MOL   H45023310   5.380   3.031   6.400  2.1883  1.2753 -0.3679
   31MOL   H45123311   5.241   2.823   6.414 -1.1196  1.9629  0.2151
   31MOL   H45223312   5.176   3.025   6.580 -2.1852 -1.7201 -0.3883
   31MOL   H45323313   5.267   2.940   6.692  4.0029  0.5487 -2.5815
   31MOL   H45423314   4.701   2.908   6.574  1.7684  0.7630 -0.2874
   31MOL   H45523315   4.530   2.728   6.621 -0.2754 -0.1380  1.4067
   31MOL   H45623316   4.844   2.466   6.750  0.7169  1.4589  4.0305
   31MOL   H45723317   5.011   2.612   6.670 -0.4333  0.1035  3.1788
   31MOL   C45823318   4.406   1.953   6.671 -0.2705  0.2468 -0.0479
   31MOL   C45923319   4.434   2.058   6.786 -0.1149  0.1541 -0.0009
   31MOL   C46023320   4.531   2.166   6.734  0.6619 -0.4677  0.1423
   31MOL   C46123321   4.545   2.265   6.842 -0.1238 -0.2748  0.4549
   31MOL   C46223322   4.672   2.105   6.700 -0.1396  0.0747  0.1922
   31MOL   C46323323   4.652   1.997   6.598 -0.7042 -0.3931 -0.8714
   31MOL   C46423324   4.547   1.891   6.633 -1.1906  0.5096  0.8163
   31MOL   C46523325   4.537   1.783   6.527 -0.7339  0.0093 -0.2759
   31MOL   O46623326   4.664   1.733   6.488  0.1856  0.4828 -0.1727
   31MOL   C46723327   4.689   1.663   6.374 -0.1510 -0.1539 -0.8292
   31MOL   O46823328   4.606   1.601   6.311 -0.1135  0.0818  0.1062
   31MOL   C46923329   4.833   1.673   6.338 -0.4041  0.4281 -0.0816
   31MOL   C47023330   4.924   1.771   6.383 -0.2361 -0.5340  0.4033
   31MOL   C47123331   5.059   1.779   6.335 -0.2007  0.1187 -0.3704
   31MOL   C47223332   5.101   1.689   6.235 -0.1146 -0.0727  0.4478
   31MOL   C47323333   5.238   1.702   6.188 -0.5034  0.1324 -0.2446
   31MOL   O47423334   5.313   1.796   6.229  0.4680  0.5910  0.4013
   31MOL   O47523335   5.280   1.612   6.091  0.4974 -0.7043 -0.2732
   31MOL   C47623336   5.014   1.587   6.190 -0.6896 -0.0227  0.3153
   31MOL   C47723337   4.883   1.579   6.243 -0.1367  0.0724 -0.0383
   31MOL   H47823338   4.359   2.003   6.586 -0.8075 -0.1983 -0.0227
   31MOL   H47923339   4.345   1.868   6.702  1.3378 -0.2943  1.7009
   31MOL   H48023340   4.480   2.007   6.870 -1.9946  3.7073  3.3137
   31MOL   H48123341   4.345   2.101   6.832  0.2191  0.3500  0.4650
   31MOL   H48223342   4.483   2.209   6.646  2.3923  0.6578 -0.2679
   31MOL   H48323343   4.596   2.219   6.927  0.3341  0.5902  0.6555
   31MOL   H48423344   4.448   2.295   6.881  0.2994  0.4726  0.9493
   31MOL   H48523345   4.726   2.068   6.787  0.8129 -2.4422 -1.3936
   31MOL   H48623346   4.738   2.173   6.646 -0.4305 -0.8458 -1.3648
   31MOL   H48723347   4.629   2.040   6.500  1.7998  1.2355 -0.7969
   31MOL   H48823348   4.749   1.950   6.581 -0.6220 -0.4978 -0.1094
   31MOL   H48923349   4.585   1.847   6.725 -0.9492  3.2377  2.0619
   31MOL   H49023350   4.477   1.821   6.444 -2.7939 -1.2364  0.6074
   31MOL   H49123351   4.479   1.700   6.567 -1.0884  0.8828  1.0496
   31MOL   H49223352   4.897   1.833   6.468 -0.7522 -0.2527  0.0350
   31MOL   H49323353   5.130   1.854   6.366  1.1503 -1.1553 -0.3282
   31MOL   H49423354   5.034   1.515   6.112  2.1289 -1.4714  2.3012
   31MOL   H49523355   4.815   1.503   6.206 -0.0591  1.0451 -2.2847
   31MOL   C49623356   5.508   1.225   6.041  0.2844  0.3373 -0.8707
   31MOL   C49723357   5.469   1.362   6.094  0.2979 -0.0012 -0.1903
   31MOL   C49823358   5.449   1.472   5.984 -0.4452 -0.0662 -0.0843
   31MOL   C49923359   5.413   1.607   6.063 -0.0736 -0.0056  0.0792
   31MOL   C50023360   5.574   1.483   5.900 -0.7456  0.4844  0.6931
   31MOL   C50123361   5.609   1.348   5.838 -0.5508  0.1753  0.0717
   31MOL   C50223362   5.626   1.236   5.945  0.3928 -0.1404  0.8218
   31MOL   C50323363   5.644   1.104   5.873 -0.0644  0.5618 -0.3325
   31MOL   O50423364   5.768   1.096   5.807  0.0161 -0.2262 -0.2901
   31MOL   C50523365   5.787   1.012   5.703 -0.5337 -0.0009 -0.3074
   31MOL   O50623366   5.697   0.954   5.650 -0.4185 -0.0063  0.0938
   31MOL   C50723367   5.928   1.011   5.659 -0.3783 -0.7414  0.2621
   31MOL   C50823368   5.979   0.901   5.581  0.1873 -0.2396  0.0022
   31MOL   C50923369   6.112   0.893   5.535 -0.2170  0.2470 -0.7476
   31MOL   C51023370   6.206   0.998   5.579 -0.0560 -0.5208  0.1005
   31MOL   C51123371   6.346   0.994   5.529  0.1324  0.3464 -0.7975
   31MOL   O51223372   6.381   0.903   5.458 -0.3682  0.4470  0.3011
   31MOL   O51323373   6.429   1.091   5.566  0.0342  0.5558 -0.2994
   31MOL   C51423374   6.161   1.100   5.669  0.3667 -0.0352  0.2599
   31MOL   C51523375   6.022   1.115   5.694 -0.3381  0.5118  0.4401
   31MOL   H51623376   5.420   1.181   5.994 -0.0842 -1.4346  1.3445
   31MOL   H51723377   5.529   1.157   6.124  1.8615 -0.4235 -1.8703
   31MOL   H51823378   5.538   1.396   6.171 -1.9060 -0.7575  2.1986
   31MOL   H51923379   5.378   1.352   6.154  0.6063 -1.8327 -0.0061
   31MOL   H52023380   5.376   1.444   5.908  0.2911  0.3461 -0.9640
   31MOL   H52123381   5.442   1.691   5.999 -1.2367 -2.1583 -3.4026
   31MOL   H52223382   5.470   1.609   6.156 -0.1062  0.2040  0.0938
   31MOL   H52323383   5.662   1.504   5.961  0.3932 -0.6272 -0.5373
   31MOL   H52423384   5.545   1.560   5.830  0.3341  0.9927  0.8009
   31MOL   H52523385   5.526   1.319   5.773 -1.6331  0.2856  1.3543
   31MOL   H52623386   5.690   1.356   5.767 -0.5645  0.7897  0.1191
   31MOL   H52723387   5.715   1.250   6.005  1.3378  1.5115 -0.9238
   31MOL   H52823388   5.555   1.076   5.817 -0.7641 -0.2434  1.1458
   31MOL   H52923389   5.648   1.026   5.948 -1.4975  1.8645  1.1330
   31MOL   H53023390   5.905   0.827   5.553 -0.4495  0.1920  0.5197
   31MOL   H53123391   6.152   0.813   5.473 -0.5400 -0.6434  0.1866
   31MOL   H53223392   6.233   1.168   5.712 -0.6811  1.1979  0.0957
   31MOL   H53323393   5.988   1.202   5.749  0.9709  0.8891  0.6575
   31MOL   C53423394   6.529   1.294   5.185  0.4311  0.2535  0.7787
   31MOL   C53523395   6.509   1.175   5.283 -0.3711  0.1511 -0.0510
   31MOL   C53623396   6.586   1.197   5.413 -0.2973 -0.0561  0.3905
   31MOL   C53723397   6.567   1.091   5.526  0.3752  0.2674 -0.1021
   31MOL   C53823398   6.730   1.227   5.380  0.6191  0.4365 -0.3085
   31MOL   C53923399   6.754   1.341   5.281  0.0785 -0.1374 -0.3517
   31MOL   C54023400   6.681   1.312   5.147 -0.1872 -0.0922  0.0591
   31MOL   C54123401   6.696   1.426   5.040  0.2808  0.5107 -0.6711
   31MOL   O54223402   6.636   1.383   4.917  0.3060 -0.3952  0.0354
   31MOL   C54323403   6.550   1.474   4.857 -0.4585  0.6509  0.5150
   31MOL   O54423404   6.524   1.591   4.902  0.0008 -0.1339 -0.1422
   31MOL   C54523405   6.480   1.411   4.736 -0.2798  0.1755  0.3983
   31MOL   C54623406   6.472   1.270   4.709  0.0771  0.2517 -1.0591
   31MOL   C54723407   6.386   1.216   4.613 -0.2485 -0.1971 -0.0800
   31MOL   C54823408   6.301   1.298   4.536  0.8717  0.5649  0.5560
   31MOL   C54923409   6.202   1.232   4.441  0.2492 -0.1044 -0.0308
   31MOL   O55023410   6.198   1.111   4.421  0.4926  0.6137  0.1405
   31MOL   O55123411   6.127   1.324   4.382  0.2114 -0.4211  0.4196
   31MOL   C55223412   6.313   1.434   4.551  0.1113 -0.0153 -0.3716
   31MOL   C55323413   6.402   1.493   4.649 -0.2039 -0.4673 -0.4995
   31MOL   H55423414   6.476   1.386   5.212  0.1414  0.0518  0.8911
   31MOL   H55523415   6.483   1.256   5.094  1.8431  2.1726 -0.8171
   31MOL   H55623416   6.544   1.081   5.242  0.5742 -0.3523  1.8444
   31MOL   H55723417   6.402   1.163   5.300 -0.4764  2.5272  1.3096
   31MOL   H55823418   6.555   1.298   5.440  1.5553  0.9276 -1.0363
   31MOL   H55923419   6.637   1.115   5.606  0.5087 -2.1998  0.5443
   31MOL   H56023420   6.603   0.999   5.481  0.0406 -0.3865  0.9701
   31MOL   H56123421   6.779   1.138   5.340 -0.0520 -0.4423  0.7971
   31MOL   H56223422   6.775   1.238   5.478 -0.4434  0.9267  0.1343
   31MOL   H56323423   6.718   1.430   5.332  1.3647 -0.1038  0.5242
   31MOL   H56423424   6.861   1.357   5.267  0.0476  2.4172  1.8490
   31MOL   H56523425   6.715   1.214   5.114  1.5899  1.2387 -2.1674
   31MOL   H56623426   6.800   1.454   5.025 -0.2173  2.5226 -0.4445
   31MOL   H56723427   6.649   1.513   5.084 -0.2629  0.9520 -2.0817
   31MOL   H56823428   6.533   1.202   4.767  2.0577  1.2640 -1.8763
   31MOL   H56923429   6.396   1.110   4.595  1.1104  0.3694 -2.9436
   31MOL   H57023430   6.250   1.504   4.497  0.8869  0.0869 -1.1493
   31MOL   H57123431   6.413   1.601   4.643 -0.2545 -0.4113  0.3926
   31MOL   C57223432   5.907   1.629   4.117 -0.1240  0.7283  0.5995
   31MOL   C57323433   5.930   1.523   4.224 -0.4946  0.5147 -0.5110
   31MOL   C57423434   6.020   1.414   4.171  0.1156  0.3473  0.6747
   31MOL   C57523435   6.046   1.296   4.267  0.1119 -0.0380  0.0210
   31MOL   C57623436   5.978   1.365   4.026 -0.1425  0.4554  0.2465
   31MOL   C57723437   5.938   1.475   3.924 -0.2002 -0.6851 -0.4613
   31MOL   C57823438   5.845   1.572   3.990 -0.7245  1.2209 -0.4664
   31MOL   C57923439   5.809   1.683   3.888  0.2250  0.3734 -0.9048
   31MOL   O58023440   5.736   1.637   3.776 -0.1495 -0.0730 -0.1151
   31MOL   C58123441   5.697   1.720   3.681  0.2549 -0.4831 -0.0212
   31MOL   O58223442   5.748   1.829   3.669  0.4526 -0.6527 -0.2260
   31MOL   C58323443   5.589   1.656   3.598  0.0005  0.2162 -0.2958
   31MOL   C58423444   5.547   1.528   3.626  0.0116  0.5982 -0.0872
   31MOL   C58523445   5.440   1.477   3.559 -0.2304 -0.2044  1.0946
   31MOL   C58623446   5.374   1.545   3.454 -0.0782 -0.3721  0.2932
   31MOL   C58723447   5.243   1.486   3.403  0.4520  0.3914 -0.2448
   31MOL   O58823448   5.206   1.375   3.433  0.0630 -0.8897 -0.6522
   31MOL   O58923449   5.174   1.571   3.321  0.2129 -0.0300  0.3072
   31MOL   C59023450   5.425   1.671   3.415 -0.5424 -0.6345  0.2513
   31MOL   C59123451   5.527   1.734   3.495 -0.5598  0.0366 -0.6921
   31MOL   H59223452   5.999   1.681   4.089 -0.4234  0.3070 -1.2118
   31MOL   H59323453   5.851   1.715   4.154 -0.4519  0.5200  0.5879
   31MOL   H59423454   5.839   1.475   4.259 -0.8654  1.4543 -0.1593
   31MOL   H59523455   5.968   1.565   4.316 -0.8541 -1.6246  0.6385
   31MOL   H59623456   6.120   1.458   4.165  1.1654 -1.6996  2.3908
   31MOL   H59723457   6.089   1.212   4.212 -0.1456 -1.2022  1.5425
   31MOL   H59823458   5.947   1.270   4.305  0.4890  0.1529  1.1639
   31MOL   H59923459   5.880   1.317   4.037  0.8417 -1.5296  0.6894
   31MOL   H60023460   6.044   1.294   3.976  0.1700 -0.3664  1.7740
   31MOL   H60123461   6.034   1.520   3.900  0.8948 -3.3415 -1.2994
   31MOL   H60223462   5.889   1.438   3.834 -0.8138  1.3366 -0.9764
   31MOL   H60323463   5.757   1.517   4.025  1.3121 -2.2655 -0.5335
   31MOL   H60423464   5.897   1.728   3.843  2.4143 -1.2697  1.5888
   31MOL   H60523465   5.752   1.760   3.939  0.0839  1.0559 -2.1003
   31MOL   H60623466   5.588   1.466   3.704 -0.5443 -0.8725 -0.9530
   31MOL   H60723467   5.411   1.378   3.591  2.7615 -1.5333 -0.1366
   31MOL   H60823468   5.381   1.721   3.330  1.6577  1.3093  0.2196
   31MOL   H60923469   5.564   1.831   3.466 -1.7050  0.6117 -0.2802
   31MOL   C61023470   4.886   1.869   3.250 -0.4040  0.1631  0.4624
   31MOL   C61123471   4.930   1.737   3.314  0.0220  0.0645  0.7250
   31MOL   C61223472   4.981   1.641   3.203 -0.4604  0.7190  0.3068
   31MOL   C61323473   5.061   1.518   3.249  0.3402  0.4127 -0.1403
   31MOL   C61423474   4.863   1.598   3.114  0.2648 -0.2393  0.1987
   31MOL   C61523475   4.801   1.727   3.057 -0.3819 -0.5038  0.1554
   31MOL   C61623476   4.767   1.841   3.154  0.0937 -0.2799 -0.1835
   31MOL   C61723477   4.717   1.973   3.089 -0.0556 -0.9026  0.1634
   31MOL   O61823478   4.574   1.982   3.108  0.0781 -0.0964  0.1695
   31MOL   C61923479   4.487   1.931   3.017  0.4327  0.2518  0.3482
   31MOL   O62023480   4.522   1.895   2.902  0.0309  0.2867  0.0554
   31MOL   C62123481   4.346   1.927   3.069  0.7214  0.0992  0.5110
   31MOL   C62223482   4.317   1.959   3.201 -0.6695 -0.8080  0.7307
   31MOL   C62323483   4.188   1.927   3.259  0.1126 -0.2783  0.0123
   31MOL   C62423484   4.087   1.868   3.187 -0.2652 -0.5625  0.2603
   31MOL   C62523485   3.960   1.825   3.257  0.8839  0.0039  1.0170
   31MOL   O62623486   3.941   1.833   3.376  0.0873 -0.6485 -0.4127
   31MOL   O62723487   3.869   1.767   3.175  0.2562 -0.1835 -0.2210
   31MOL   C62823488   4.114   1.834   3.053  0.0495  0.1426 -0.2432
   31MOL   C62923489   4.239   1.867   2.996  0.3236  0.4947 -0.7163
   31MOL   H63023490   4.962   1.907   3.182  1.1659 -1.1066  1.4928
   31MOL   H63123491   4.867   1.951   3.319  0.4265 -0.4517  1.4304
   31MOL   H63223492   4.854   1.687   3.374 -0.3325  0.9397  1.0109
   31MOL   H63323493   5.016   1.758   3.379 -0.5066  1.0897  1.1044
   31MOL   H63423494   5.053   1.689   3.138  2.0100 -4.6592 -1.2398
   31MOL   H63523495   5.095   1.471   3.156 -0.1527 -1.4543  0.5938
   31MOL   H63623496   5.006   1.446   3.309  1.1981 -1.0003 -0.9922
   31MOL   H63723497   4.784   1.553   3.173  0.0077  0.1850  0.1862
   31MOL   H63823498   4.896   1.530   3.035  0.2290  0.3860 -0.3621
   31MOL   H63923499   4.870   1.761   2.980 -0.7462  0.6655  0.3414
   31MOL   H64023500   4.709   1.695   3.007  0.1631  0.1753 -1.3097
   31MOL   H64123501   4.684   1.810   3.217 -2.4776 -0.4340 -3.5016
   31MOL   H64223502   4.742   1.979   2.984 -1.7786  0.6032 -0.1848
   31MOL   H64323503   4.763   2.051   3.150 -0.0701 -1.5362  1.0071
   31MOL   H64423504   4.390   1.991   3.274 -0.3712  2.4612 -0.9055
   31MOL   H64523505   4.172   1.946   3.364 -0.5152  0.4771 -0.2094
   31MOL   H64623506   4.041   1.781   2.994  0.4914 -0.5036 -0.2078
   31MOL   H64723507   4.253   1.833   2.895  0.8915  0.5899 -0.6678
   31MOL   C64823508   3.515   1.976   3.326 -0.1630  0.1415 -0.4602
   31MOL   C64923509   3.646   1.902   3.314  0.2162  0.0955 -0.3181
   31MOL   C65023510   3.628   1.777   3.229 -0.1518 -0.8581  0.1821
   31MOL   C65123511   3.762   1.698   3.219  0.3303 -0.0638 -0.2315
   31MOL   C65223512   3.522   1.687   3.289  0.0734  0.4020 -0.1802
   31MOL   C65323513   3.394   1.761   3.309 -0.6659 -0.6221  1.2806
   31MOL   C65423514   3.401   1.888   3.389  0.1879 -1.2403 -0.0099
   31MOL   C65523515   3.259   1.943   3.413 -0.0430 -0.3999 -0.0785
   31MOL   O65623516   3.265   2.075   3.469  0.0150  0.4780 -0.4004
   31MOL   C65723517   3.271   2.090   3.609 -0.6121 -0.4284  0.7244
   31MOL   O65823518   3.240   2.003   3.693 -0.1395 -0.3486 -0.2224
   31MOL   C65923519   3.336   2.223   3.640 -0.8488 -0.8838  0.2897
   31MOL   C66023520   3.331   2.263   3.775  0.0359  1.0472 -0.0936
   31MOL   C66123521   3.401   2.371   3.828 -0.0406  0.2711 -0.4136
   31MOL   C66223522   3.472   2.451   3.740  0.0949 -0.3989 -0.2935
   31MOL   C66323523   3.532   2.572   3.797 -0.4217 -0.1671  0.2061
   31MOL   O66423524   3.499   2.623   3.907  0.2130 -0.4095 -0.0796
   31MOL   O66523525   3.635   2.619   3.712 -0.1675  0.5208  0.3352
   31MOL   C66623526   3.477   2.420   3.600 -0.5333  0.1733 -0.9197
   31MOL   C66723527   3.404   2.308   3.546  0.2886 -0.2663 -0.1763
   31MOL   H66823528   3.492   2.012   3.225  0.6887  1.4042 -0.2197
   31MOL   H66923529   3.525   2.064   3.390  1.4125  0.5836 -1.2984
   31MOL   H67023530   3.682   1.882   3.415 -1.9344 -2.1032  0.0486
   31MOL   H67123531   3.727   1.963   3.275 -0.0446  0.6420 -0.0161
   31MOL   H67223532   3.593   1.813   3.132  0.4479  0.1696  0.3491
   31MOL   H67323533   3.743   1.609   3.158  2.0348 -0.3144 -0.4159
   31MOL   H67423534   3.791   1.653   3.314  1.8775  0.9843 -0.1785
   31MOL   H67523535   3.570   1.645   3.377  1.4668 -1.1083 -1.6239
   31MOL   H67623536   3.512   1.598   3.226 -1.6267  1.2113 -1.1030
   31MOL   H67723537   3.352   1.781   3.211  0.5987  0.7818  1.0145
   31MOL   H67823538   3.329   1.692   3.363 -2.6711 -0.2062 -0.5654
   31MOL   H67923539   3.455   1.878   3.484 -0.6820  0.9478  0.7546
   31MOL   H68023540   3.218   1.869   3.483 -0.4939 -1.8559 -1.8398
   31MOL   H68123541   3.198   1.941   3.323 -2.2283  0.7899  1.3222
   31MOL   H68223542   3.278   2.197   3.842 -3.5111  1.8510 -1.9502
   31MOL   H68323543   3.389   2.399   3.931  0.4189  0.5778 -0.4476
   31MOL   H68423544   3.529   2.488   3.534  0.8932  0.3108  0.3157
   31MOL   H68523545   3.410   2.297   3.438  0.0903 -0.6353 -0.1464
   31MOL   C68623546   3.595   2.974   3.465 -0.2513 -0.7173  0.0742
   31MOL   C68723547   3.648   2.844   3.532 -0.0443  0.1178 -0.0103
   31MOL   C68823548   3.644   2.853   3.690 -0.2716 -0.0649 -0.7539
   31MOL   C68923549   3.712   2.736   3.748  0.8731  0.4642  0.1126
   31MOL   C69023550   3.712   2.976   3.743 -0.4090  0.6642 -0.3350
   31MOL   C69123551   3.662   3.100   3.664 -0.1213  0.5593 -0.5344
   31MOL   C69223552   3.685   3.085   3.507  0.5473  1.0433  0.1624
   31MOL   C69323553   3.660   3.217   3.436  0.4233  0.5194  0.5006
   31MOL   O69423554   3.778   3.287   3.403 -0.0209 -0.3660  0.7019
   31MOL   C69523555   3.807   3.405   3.448 -1.3788 -0.6261  0.3153
   31MOL   O69623556   3.749   3.459   3.542  0.5500 -0.1436  0.2112
   31MOL   C69723557   3.914   3.470   3.368  0.2959  0.7192  0.3947
   31MOL   C69823558   3.947   3.423   3.239 -0.3481  0.5690  0.2846
   31MOL   C69923559   4.047   3.485   3.170 -0.2499 -0.2482 -0.2386
   31MOL   C70023560   4.114   3.598   3.213 -0.2160 -0.4151  0.4103
   31MOL   C70123561   4.220   3.660   3.142 -0.1668 -0.2031 -0.0281
   31MOL   O70223562   4.265   3.773   3.164 -0.0426  0.0800 -0.0303
   31MOL   O70323563   4.282   3.579   3.053 -0.1712  0.1669 -0.5769
   31MOL   C70423564   4.072   3.656   3.334  0.6012  0.0933  0.0428
   31MOL   C70523565   3.975   3.590   3.409 -0.0989 -0.5403  0.3091
   31MOL   H70623566   3.495   2.982   3.507 -1.0385 -1.0981 -1.7040
   31MOL   H70723567   3.603   2.961   3.358  3.6676  1.2113  0.0387
   31MOL   H70823568   3.750   2.818   3.505 -0.0594 -0.1815  0.2150
   31MOL   H70923569   3.588   2.759   3.499  0.2293  0.0655 -0.3811
   31MOL   H71023570   3.541   2.858   3.725 -0.6009  1.3671 -1.8551
   31MOL   H71123571   3.724   2.726   3.856  1.3236 -1.2261 -0.0758
   31MOL   H71223572   3.807   2.708   3.703  1.5972 -1.8159  2.9047
   31MOL   H71323573   3.820   2.966   3.731 -0.3796  0.5057  0.0904
   31MOL   H71423574   3.680   2.992   3.846  1.1265 -0.1052  0.2748
   31MOL   H71523575   3.562   3.138   3.687 -0.3630 -0.8978  0.9292
   31MOL   H71623576   3.727   3.179   3.700  1.7061 -0.5086 -1.4447
   31MOL   H71723577   3.789   3.057   3.489  0.3923 -0.3692  1.4247
   31MOL   H71823578   3.592   3.289   3.483  0.0664 -0.0474  0.8589
   31MOL   H71923579   3.605   3.194   3.345  0.3931  0.2387  0.5902
   31MOL   H72023580   3.909   3.328   3.205 -0.1912  0.1324  1.3012
   31MOL   H72123581   4.083   3.434   3.081 -0.8356  1.1572 -1.2968
   31MOL   H72223582   4.118   3.748   3.366  1.5893  0.0575 -1.2342
   31MOL   H72323583   3.940   3.630   3.503  0.5895  0.1231  0.2854
   31MOL   C72423584   4.404   3.697   2.618  0.1589 -0.0463 -0.5433
   31MOL   C72523585   4.403   3.607   2.750 -0.2995 -0.0214  0.0094
   31MOL   C72623586   4.425   3.692   2.874 -0.1586  0.1254 -0.8788
   31MOL   C72723587   4.411   3.598   3.005 -0.4745  0.0185  0.0315
   31MOL   C72823588   4.559   3.768   2.867 -0.5460 -0.0955  0.3969
   31MOL   C72923589   4.576   3.841   2.735  0.0259 -0.2325  0.0245
   31MOL   C73023590   4.540   3.773   2.604 -0.4735 -0.3356 -0.0567
   31MOL   C73123591   4.535   3.868   2.490 -0.1977 -0.1237  0.0851
   31MOL   O73223592   4.524   3.799   2.366  0.3651  0.0216 -0.4370
   31MOL   C73323593   4.521   3.861   2.249  0.0790  0.1282  0.0572
   31MOL   O73423594   4.513   3.985   2.237 -0.3477  0.3955  0.2052
   31MOL   C73523595   4.535   3.761   2.133 -0.1228 -0.0307  0.0781
   31MOL   C73623596   4.520   3.625   2.152  0.2129 -0.9596 -0.3580
   31MOL   C73723597   4.526   3.524   2.050  0.6411 -0.0452 -0.1132
   31MOL   C73823598   4.538   3.570   1.918 -0.0198 -0.0263  0.3213
   31MOL   C73923599   4.546   3.472   1.801  0.0293  0.0156  0.0012
   31MOL   O74023600   4.549   3.349   1.824 -0.1884  0.3815  0.4216
   31MOL   O74123601   4.544   3.528   1.677 -0.2575 -0.3712  0.2639
   31MOL   C74223602   4.547   3.707   1.895  0.0056 -0.8235 -0.0584
   31MOL   C74323603   4.561   3.805   1.998  0.8016  0.0526  0.2141
   31MOL   H74423604   4.319   3.764   2.633  0.8213  0.4198  1.2766
   31MOL   H74523605   4.381   3.625   2.540 -1.0219  0.6861 -0.8801
   31MOL   H74623606   4.470   3.520   2.743 -1.5879 -1.1231  1.1135
   31MOL   H74723607   4.302   3.569   2.759 -0.1018 -0.5685 -0.0505
   31MOL   H74823608   4.348   3.769   2.874 -1.2491 -0.9317 -0.0930
   31MOL   H74923609   4.478   3.619   3.088  0.1708 -2.2267  0.0995
   31MOL   H75023610   4.455   3.503   2.976 -1.7751 -0.2606 -1.1005
   31MOL   H75123611   4.632   3.690   2.890 -0.3102  0.0145  0.0149
   31MOL   H75223612   4.562   3.837   2.951  0.8032 -1.4283  1.4786
   31MOL   H75323613   4.501   3.921   2.733  0.9044  0.6380  1.2865
   31MOL   H75423614   4.677   3.881   2.731 -0.6362  1.4150 -1.1992
   31MOL   H75523615   4.617   3.699   2.578 -1.7006 -1.3671 -0.8219
   31MOL   H75623616   4.617   3.939   2.485 -1.1803  1.0589  0.4383
   31MOL   H75723617   4.446   3.931   2.486 -0.4857 -0.6385 -2.5669
   31MOL   H75823618   4.489   3.580   2.246 -0.7486  0.1660 -0.1200
   31MOL   H75923619   4.510   3.422   2.084 -0.4603  0.6971  1.6885
   31MOL   H76023620   4.555   3.745   1.794 -1.6001  1.0607  0.4995
   31MOL   H76123621   4.587   3.908   1.980  0.1875  0.4263  1.4486
   31MOL   H76223622   4.534   3.475   1.599  1.6555  1.7002 -1.4752
   32MOL     C123623   5.234   0.313   1.047 -0.0424  0.2387 -0.6533
   32MOL     C223624   5.282   0.302   1.193  0.4176 -0.1208  0.0772
   32MOL     C323625   5.243   0.425   1.275 -0.1479 -0.1822 -0.0690
   32MOL     C423626   5.274   0.418   1.424 -0.2666  0.3975  0.5562
   32MOL     C523627   5.280   0.555   1.214 -0.2516 -0.0176 -0.1384
   32MOL     C623628   5.257   0.564   1.061  0.3767  0.1221 -0.0270
   32MOL     C723629   5.293   0.432   0.985  0.1095  0.5704 -0.2208
   32MOL     C823630   5.245   0.443   0.837  0.0487  0.5063  0.0424
   32MOL     O923631   5.323   0.347   0.772 -0.0679  0.3012 -0.6032
   32MOL    C1023632   5.271   0.246   0.699 -0.0586  0.1807 -0.4007
   32MOL    O1123633   5.151   0.224   0.695  0.2581  0.1076 -0.7901
   32MOL    C1223634   5.377   0.159   0.637  0.3834 -0.8295 -0.3640
   32MOL    C1323635   5.517   0.194   0.644  0.1704 -0.1461 -0.0599
   32MOL    C1423636   5.602   0.102   0.583  0.3137 -0.6614  0.1692
   32MOL    C1523637   5.558   8.011   0.526  0.5716 -0.6224  0.0630
   32MOL    C1623638   5.654   7.915   0.463  0.5542  0.1642  1.2332
   32MOL    O1723639   5.773   7.920   0.485  0.1076 -0.1334 -0.5431
   32MOL    O1823640   5.589   7.816   0.392  0.1724 -0.5184  0.0291
   32MOL    C1923641   5.421   7.987   0.524  1.0520  0.2714  0.3666
   32MOL    C2023642   5.329   0.043   0.576  0.3945  0.6630  0.3105
   32MOL    H2123643   5.125   0.322   1.039 -0.0696  0.5635  0.0410
   32MOL    H2223644   5.257   0.229   0.982  0.9642  1.9693 -2.5748
   32MOL    H2323645   5.389   0.283   1.202  0.4486  0.3720  0.7250
   32MOL    H2423646   5.227   0.224   1.244  0.2425  1.2792  2.0593
   32MOL    H2523647   5.135   0.435   1.268 -0.0929 -0.4713 -1.4715
   32MOL    H2623648   5.229   0.510   1.461 -3.4888 -0.9710  0.2512
   32MOL    H2723649   5.382   0.426   1.435 -0.1714  2.1851 -1.3187
   32MOL    H2823650   5.384   0.583   1.233  0.0659 -0.1380 -1.6759
   32MOL    H2923651   5.227   0.640   1.258  0.0009  1.1829 -2.1058
   32MOL    H3023652   5.152   0.578   1.035  0.2277 -0.5978  0.1660
   32MOL    H3123653   5.308   0.650   1.019 -0.4976  0.3457 -0.6497
   32MOL    H3223654   5.400   0.417   0.982 -0.1344 -1.4301  0.3121
   32MOL    H3323655   5.279   0.543   0.809  1.4552  0.0345  0.0006
   32MOL    H3423656   5.140   0.426   0.812  0.0088  0.9412 -0.0870
   32MOL    H3523657   5.547   0.286   0.692  1.9611  0.0468 -1.4853
   32MOL    H3623658   5.705   0.132   0.569  0.3976 -0.9453  0.1787
   32MOL    H3723659   5.376   7.902   0.474 -0.3198  1.5460 -0.5920
   32MOL    H3823660   5.222   0.031   0.569  0.6481 -0.6729 -1.5540
   32MOL    H3923661   5.244   0.331   1.483 -0.6740 -0.4452 -0.8502
   32MOL    C4023662   5.345   7.450   0.341 -0.2018 -0.5586 -0.1705
   32MOL    C4123663   5.425   7.582   0.319  0.0238  0.5331 -0.2198
   32MOL    C4223664   5.578   7.574   0.361  0.0659  0.0259  0.0198
   32MOL    C4323665   5.659   7.708   0.337 -0.4381 -0.1494  0.1580
   32MOL    C4423666   5.600   7.518   0.502  0.1819 -0.0058 -0.1033
   32MOL    C4523667   5.514   7.395   0.530  0.1265 -0.6549  0.4142
   32MOL    C4623668   5.366   7.407   0.490 -0.6089 -0.4493  0.2671
   32MOL    C4723669   5.306   7.268   0.517 -0.6472 -0.1795  0.0922
   32MOL    O4823670   5.180   7.242   0.441 -0.0167 -0.0170 -0.3117
   32MOL    C4923671   5.178   7.153   0.342 -0.8195 -0.0492 -0.1260
   32MOL    O5023672   5.258   7.065   0.336  0.1998 -0.2501  0.0711
   32MOL    C5123673   5.061   7.178   0.249 -1.1179 -0.2558 -0.8899
   32MOL    C5223674   4.972   7.287   0.274  0.4746 -0.7477 -0.2133
   32MOL    C5323675   4.864   7.310   0.190  0.1456 -0.4998 -0.6039
   32MOL    C5423676   4.831   7.229   0.082 -0.5553 -0.7096  0.6857
   32MOL    C5523677   4.714   7.263   8.028 -0.4405  0.6866  0.4093
   32MOL    O5623678   4.704   7.226   7.912  0.0828  0.4035 -0.7240
   32MOL    O5723679   4.616   7.340   0.059 -0.5006  0.2997  0.2199
   32MOL    C5823680   4.918   7.121   0.048  0.4522  0.1706 -0.2616
   32MOL    C5923681   5.029   7.091   0.140 -0.1107 -0.0063 -0.7907
   32MOL    H6023682   5.375   7.378   0.264  1.0964 -1.1053  0.8292
   32MOL    H6123683   5.239   7.462   0.317 -0.5701 -2.7858  0.2154
   32MOL    H6223684   5.370   7.660   0.371  1.5763  2.6222 -1.5887
   32MOL    H6323685   5.411   7.611   0.215 -1.1895 -0.6498 -0.3948
   32MOL    H6423686   5.613   7.507   0.283 -0.0143  2.4052 -2.1254
   32MOL    H6523687   5.686   7.717   0.232 -1.7444 -2.6033 -0.4231
   32MOL    H6623688   5.748   7.712   0.399 -0.1479  0.5415 -0.3065
   32MOL    H6723689   5.590   7.605   0.566 -0.0542  0.5984 -0.9450
   32MOL    H6823690   5.708   7.506   0.502  0.2065  0.1718 -1.0941
   32MOL    H6923691   5.556   7.316   0.467  0.5271  0.6482 -0.9958
   32MOL    H7023692   5.514   7.364   0.634 -2.0527  0.1144  0.6617
   32MOL    H7123693   5.321   7.480   0.558  2.1537 -0.1330  1.8277
   32MOL    H7223694   5.287   7.252   0.624  1.2533 -2.7584  0.0854
   32MOL    H7323695   5.377   7.187   0.500  0.8265  0.7589  1.5347
   32MOL    H7423696   4.994   7.360   0.350 -0.4652  1.4021 -1.9556
   32MOL    H7523697   4.795   7.388   0.218  0.9390 -0.5003  1.4870
   32MOL    H7623698   4.898   7.065   7.990 -4.0836 -0.4224  0.9950
   32MOL    H7723699   5.087   7.002   0.119 -1.0345 -1.4203  2.1971
   32MOL    C7823700   4.437   7.766   7.944 -0.5468  0.0490 -0.5641
   32MOL    C7923701   4.414   7.616   7.965  0.5590 -0.0837 -0.0260
   32MOL    C8023702   4.542   7.540   7.988 -0.0312  0.1310 -0.2737
   32MOL    C8123703   4.506   7.392   8.020  0.1963 -0.1320 -0.6850
   32MOL    C8223704   4.629   7.560   7.866  0.3325  0.7281 -0.7233
   32MOL    C8323705   4.663   7.707   7.842 -0.4596 -0.0335 -0.0231
   32MOL    C8423706   4.535   7.790   7.825  0.7066 -0.0360 -0.1714
   32MOL    C8523707   4.566   7.941   7.808 -0.3538 -0.3985 -0.4131
   32MOL    O8623708   4.446   8.017   7.782 -0.0596  0.1695  0.2640
   32MOL    C8723709   4.401   8.025   7.657  0.4124  0.5571 -0.1346
   32MOL    O8823710   4.453   7.969   7.563 -0.0290 -0.2226 -0.1193
   32MOL    C8923711   4.276   0.075   7.653 -0.4646  0.9035 -0.0007
   32MOL    C9023712   4.218   0.128   7.769 -0.2896  0.6049 -0.0468
   32MOL    C9123713   4.095   0.195   7.754 -0.0392 -0.5475 -0.2516
   32MOL    C9223714   4.032   0.214   7.632 -0.2021 -0.5832  0.5478
   32MOL    C9323715   3.905   0.291   7.625  0.7841 -0.4548 -0.1411
   32MOL    O9423716   3.834   0.335   7.718 -0.1057  0.2279 -0.2596
   32MOL    O9523717   3.864   0.301   7.499  0.1548  0.1189  0.3394
   32MOL    C9623718   4.094   0.158   7.517 -0.2744  0.4941  0.1263
   32MOL    C9723719   4.216   0.083   7.527 -0.2045 -0.5012 -0.2174
   32MOL    H9823720   4.475   7.814   0.002  2.5059 -2.2002 -0.5836
   32MOL    H9923721   4.335   7.801   7.929 -0.9094 -0.2781  1.0296
   32MOL   H10023722   4.373   7.572   7.873 -1.7589  0.5969  0.6486
   32MOL   H10123723   4.333   7.602   0.005  0.2257  1.4684 -0.0729
   32MOL   H10223724   4.590   7.592   0.039  0.0695 -2.9223  1.6164
   32MOL   H10323725   4.494   7.335   7.928  0.8418  0.2392 -0.9949
   32MOL   H10423726   4.418   7.379   0.052  0.4866 -0.6393 -0.3769
   32MOL   H10523727   4.593   7.513   7.774 -1.4531 -1.8896  1.2398
   32MOL   H10623728   4.724   7.509   7.881  0.2361  0.0210 -2.4058
   32MOL   H10723729   4.721   7.737   7.930  0.7207 -2.3762  0.0560
   32MOL   H10823730   4.731   7.719   7.758 -0.0111  0.2799  0.3797
   32MOL   H10923731   4.474   7.750   7.744  0.7328 -1.5013  0.5129
   32MOL   H11023732   4.629   7.947   7.719 -1.5995 -0.7290 -1.3364
   32MOL   H11123733   4.625   7.991   7.885  0.1972 -2.3306  0.4469
   32MOL   H11223734   4.272   0.124   7.862 -0.1013  1.4188 -0.1245
   32MOL   H11323735   4.047   0.233   7.843 -1.3694 -0.2014 -1.0952
   32MOL   H11423736   4.050   0.161   7.418 -2.4944  0.6873  1.0852
   32MOL   H11523737   4.258   0.031   7.442  1.3968 -1.9069  1.3945
   32MOL   C11623738   3.576   0.443   7.125 -0.3018 -0.9002 -0.6365
   32MOL   C11723739   3.593   0.421   7.275 -0.8658 -0.0022 -0.1712
   32MOL   C11823740   3.727   0.348   7.309  0.5279  0.0142  0.2412
   32MOL   C11923741   3.731   0.332   7.460 -0.4464  0.5051  0.3147
   32MOL   C12023742   3.749   0.215   7.226 -0.0905  0.1676  0.9405
   32MOL   C12123743   3.708   0.244   7.076 -0.0032 -0.6751 -0.1598
   32MOL   C12223744   3.582   0.313   7.047  0.1261  1.1235 -0.3484
   32MOL   C12323745   3.563   0.340   6.900 -0.0456  0.2725  0.5054
   32MOL   O12423746   3.552   0.221   6.826  0.2844 -0.2130 -0.2169
   32MOL   C12523747   3.524   0.234   6.704  0.4308 -0.5167 -0.0127
   32MOL   O12623748   3.493   0.340   6.653 -0.0701  0.1807 -0.3827
   32MOL   C12723749   3.505   0.102   6.646 -0.5827  0.8045  0.7666
   32MOL   C12823750   3.556   8.018   6.701  0.4527 -0.2930 -0.4589
   32MOL   C12923751   3.531   7.894   6.635 -0.1685 -0.2107 -0.0987
   32MOL   C13023752   3.459   7.891   6.513  0.2892  0.4317  0.3113
   32MOL   C13123753   3.438   7.756   6.443  0.2903 -1.2038  0.0722
   32MOL   O13223754   3.438   7.647   6.500 -0.1747  0.1271 -0.6403
   32MOL   O13323755   3.447   7.771   6.312  0.6698  0.6638 -0.0829
   32MOL   C13423756   3.402   8.007   6.460 -0.6140  0.3013  0.3568
   32MOL   C13523757   3.424   0.098   6.532  0.0237  0.0800  0.2073
   32MOL   H13623758   3.642   0.514   7.075  0.8460 -0.4652  1.4292
   32MOL   H13723759   3.474   0.480   7.118  0.0468  0.3936  1.0644
   32MOL   H13823760   3.511   0.368   7.323 -0.9250  2.4301  2.5818
   32MOL   H13923761   3.590   0.523   7.314  3.1486 -0.3526  1.2833
   32MOL   H14023762   3.809   0.414   7.281 -1.9561  2.5126 -1.4304
   32MOL   H14123763   3.661   0.255   7.491  0.8808 -1.8689 -2.3068
   32MOL   H14223764   3.700   0.426   7.506 -0.3785  0.7763 -0.1783
   32MOL   H14323765   3.692   0.129   7.261 -1.0774 -0.2315 -1.5998
   32MOL   H14423766   3.853   0.182   7.235 -0.1999 -0.6211 -0.5764
   32MOL   H14523767   3.793   0.299   7.037  0.2044 -0.0206  1.1702
   32MOL   H14623768   3.704   0.149   7.023 -4.1093  0.1000 -1.3726
   32MOL   H14723769   3.505   0.243   7.080  1.9164 -0.9284 -0.4329
   32MOL   H14823770   3.644   0.399   6.856 -2.5211  2.2768 -1.5694
   32MOL   H14923771   3.475   0.402   6.883  0.3468  1.4056  2.4878
   32MOL   H15023772   3.602   8.030   6.798 -0.5536  1.2973 -0.1592
   32MOL   H15123773   3.579   7.807   6.678  0.9799  0.6981  0.4577
   32MOL   H15223774   3.348   7.994   6.367 -0.0972 -0.8786  0.2154
   32MOL   H15323775   3.380   0.189   6.492  0.5890  0.7830  1.1713
   32MOL   C15423776   3.120   7.464   6.184  0.5228  0.1756 -0.2494
   32MOL   C15523777   3.241   7.525   6.255 -0.3625  0.1289  0.1131
   32MOL   C15623778   3.335   7.602   6.161 -0.0868  0.4691 -0.1171
   32MOL   C15723779   3.463   7.656   6.226  0.3362 -0.1774 -0.1110
   32MOL   C15823780   3.378   7.515   6.047  0.1286 -0.6792  0.5871
   32MOL   C15923781   3.265   7.441   5.971 -0.0807  0.3367 -0.2317
   32MOL   C16023782   3.171   7.367   6.073  0.2237 -0.8007 -0.2058
   32MOL   C16123783   3.051   7.314   5.996 -0.0041 -0.1833  0.4205
   32MOL   O16223784   2.961   7.230   6.065  0.1659 -0.2051 -0.0806
   32MOL   C16323785   2.881   7.143   5.995 -0.4515 -0.0389  0.2257
   32MOL   O16423786   2.902   7.118   5.879 -0.2964  0.5234  0.4393
   32MOL   C16523787   2.761   7.096   6.070 -0.3943 -0.4045 -0.4848
   32MOL   C16623788   2.710   7.159   6.181 -0.5892  0.2175 -0.7533
   32MOL   C16723789   2.586   7.133   6.238  0.4043  0.5462 -0.0982
   32MOL   C16823790   2.508   7.030   6.178  1.1584 -0.4372 -0.6603
   32MOL   C16923791   2.374   6.992   6.235  0.6308  0.1285 -0.4373
   32MOL   O17023792   2.319   7.072   6.318 -0.0704  0.0842 -0.1482
   32MOL   O17123793   2.319   6.875   6.194 -0.0920  0.2692 -0.3163
   32MOL   C17223794   2.559   6.960   6.064  0.4232  0.4112 -0.2264
   32MOL   C17323795   2.687   6.989   6.015 -0.2856 -0.3594  0.4873
   32MOL   H17423796   3.068   7.554   6.149 -0.8135 -0.2501  0.5881
   32MOL   H17523797   3.058   7.422   6.263  2.2784 -2.9766 -0.4654
   32MOL   H17623798   3.291   7.457   6.325 -0.5451 -2.3992 -2.1223
   32MOL   H17723799   3.204   7.608   6.315  2.4995  0.3416  1.6550
   32MOL   H17823800   3.280   7.690   6.128 -0.2330  0.4197 -0.0072
   32MOL   H17923801   3.531   7.696   6.151  1.5186  0.1164  1.0920
   32MOL   H18023802   3.524   7.574   6.265  1.5586  0.4562 -0.6394
   32MOL   H18123803   3.449   7.439   6.078  1.4955  0.3129 -0.0569
   32MOL   H18223804   3.432   7.572   5.971 -1.0886 -0.6971 -0.3242
   32MOL   H18323805   3.210   7.516   5.914  0.5193  0.7730 -0.2289
   32MOL   H18423806   3.314   7.366   5.909  1.7521  0.2222  1.3182
   32MOL   H18523807   3.224   7.280   6.110  2.3981  1.3641  2.0040
   32MOL   H18623808   3.110   7.254   5.928  0.7735  1.9867 -0.8870
   32MOL   H18723809   3.017   7.397   5.933 -0.1259 -1.4121 -1.1471
   32MOL   H18823810   2.781   7.228   6.225  1.8903 -1.8632 -1.4087
   32MOL   H18923811   2.553   7.182   6.329 -0.5229 -0.4621  0.1100
   32MOL   H19023812   2.502   6.883   6.013  2.3790 -2.7320  2.1569
   32MOL   H19123813   2.733   6.944   5.928  0.2751 -0.6140  0.9145
   32MOL   C19223814   2.209   6.516   6.011  0.3344 -0.0751 -0.6158
   32MOL   C19323815   2.232   6.623   6.126  0.1242  0.0697  0.2433
   32MOL   C19423816   2.140   6.740   6.130 -0.0968 -0.3451  0.1636
   32MOL   C19523817   2.190   6.843   6.226  0.7589  0.1553  0.3482
   32MOL   C19623818   2.125   6.810   5.990 -0.1205 -0.2427 -0.5819
   32MOL   C19723819   2.104   6.709   5.881  0.9348 -0.4562 -0.1404
   32MOL   C19823820   2.200   6.591   5.878  0.4894  0.0255 -0.3959
   32MOL   C19923821   2.166   6.492   5.763  0.0568  0.7043 -0.5367
   32MOL   O20023822   2.279   6.413   5.734  0.0588  0.2274  0.5653
   32MOL   C20123823   2.273   6.329   5.632  0.5349  0.3557  0.0102
   32MOL   O20223824   2.181   6.322   5.550  0.2915  0.4864  0.5475
   32MOL   C20323825   2.396   6.244   5.621  0.3546  0.1102  0.7405
   32MOL   C20423826   2.419   6.189   5.490 -0.6807 -0.0958 -0.1649
   32MOL   C20523827   2.541   6.116   5.471  0.1112 -0.1537  0.5771
   32MOL   C20623828   2.630   6.086   5.577 -0.4353 -0.3783  0.1065
   32MOL   C20723829   2.739   5.986   5.560 -0.0765  0.5682  0.2771
   32MOL   O20823830   2.745   5.924   5.451 -0.1434  0.3730 -0.5182
   32MOL   O20923831   2.820   5.971   5.663  0.1695 -0.4277  0.4036
   32MOL   C21023832   2.604   6.145   5.703  0.6102 -0.0393 -0.0577
   32MOL   C21123833   2.488   6.223   5.722 -0.1650 -0.0108 -0.3449
   32MOL   H21223834   2.121   6.455   6.033 -1.0731  1.2491 -2.3353
   32MOL   H21323835   2.291   6.444   6.006  2.1302  1.9659 -1.0097
   32MOL   H21423836   2.337   6.649   6.114  0.4095 -1.3375 -0.2845
   32MOL   H21523837   2.238   6.582   6.227  2.9360  2.1478  0.9838
   32MOL   H21623838   2.048   6.704   6.175  1.7198 -0.8537  3.7405
   32MOL   H21723839   2.173   6.817   6.330  3.6433  0.6801  1.0091
   32MOL   H21823840   2.131   6.933   6.209 -1.2213 -0.9752  1.1748
   32MOL   H21923841   2.213   6.872   5.975 -2.3723  3.3809  0.3141
   32MOL   H22023842   2.040   6.878   5.982 -1.3889 -1.6050  0.8708
   32MOL   H22123843   2.006   6.663   5.899  1.9396 -2.7605 -0.3946
   32MOL   H22223844   2.099   6.753   5.782 -0.6751 -0.5083 -0.1057
   32MOL   H22323845   2.302   6.627   5.864  0.7113 -1.0234 -1.5178
   32MOL   H22423846   2.127   6.539   5.673 -0.5847  1.2256  0.0074
   32MOL   H22523847   2.089   6.424   5.798 -0.4534  2.3511  1.6440
   32MOL   H22623848   2.352   6.213   5.409  0.2162  2.7063 -0.1284
   32MOL   H22723849   2.563   6.078   5.372  0.3971 -2.6907  1.5778
   32MOL   H22823850   2.681   6.129   5.776  0.4400 -0.5376  0.0134
   32MOL   H22923851   2.465   6.274   5.814  2.0009 -0.1566  0.3047
   32MOL   C23023852   2.627   5.697   5.951 -0.1373 -0.2532  0.7382
   32MOL   C23123853   2.679   5.762   5.826  0.0199  0.0089  0.2287
   32MOL   C23223854   2.827   5.795   5.828 -0.7768  0.1025  0.0521
   32MOL   C23323855   2.879   5.848   5.692 -1.0730  0.5455 -0.1045
   32MOL   C23423856   2.847   5.888   5.948 -0.2795  0.2303 -0.0711
   32MOL   C23523857   2.803   5.812   6.079 -0.0003 -0.3848 -0.2353
   32MOL   C23623858   2.653   5.778   6.077  0.2995  0.3785 -0.0120
   32MOL   C23723859   2.608   5.704   6.205 -0.1423  0.1878  0.1954
   32MOL   O23823860   2.622   5.787   6.319 -0.5949 -0.2576  0.8057
   32MOL   C23923861   2.564   5.757   6.435  0.5743 -0.5960 -0.4251
   32MOL   O24023862   2.511   5.654   6.471 -0.5776  0.1757  0.2630
   32MOL   C24123863   2.599   5.862   6.537  0.1285  0.0036 -0.8474
   32MOL   C24223864   2.684   5.969   6.509  0.3294  0.1456 -0.4398
   32MOL   C24323865   2.714   6.066   6.604  0.2399 -0.1355 -0.2048
   32MOL   C24423866   2.650   6.062   6.734 -0.1679 -0.1842 -0.0166
   32MOL   C24523867   2.677   6.169   6.835  0.7986 -0.2236  0.5881
   32MOL   O24623868   2.651   6.159   6.955  0.0542  0.2714 -0.1118
   32MOL   O24723869   2.735   6.272   6.773  0.5231 -0.1075  0.6053
   32MOL   C24823870   2.573   5.949   6.767 -0.3452 -0.0620 -0.1032
   32MOL   C24923871   2.542   5.849   6.669 -0.2300 -0.6553  0.2033
   32MOL   H25023872   2.693   5.610   5.960  1.2344  0.5947 -0.8578
   32MOL   H25123873   2.520   5.675   5.947 -0.4408  0.8770  2.0944
   32MOL   H25223874   2.625   5.855   5.813 -2.7299 -1.6429 -0.4884
   32MOL   H25323875   2.659   5.698   5.740 -1.5081 -3.3932  2.9804
   32MOL   H25423876   2.873   5.699   5.851  2.0807  1.2191 -0.7476
   32MOL   H25523877   2.852   5.772   5.619  0.4471  2.4619 -2.7525
   32MOL   H25623878   2.987   5.856   5.683 -1.1276 -0.8682 -2.4753
   32MOL   H25723879   2.795   5.984   5.939  0.0305  0.5749  1.7165
   32MOL   H25823880   2.956   5.892   5.948 -0.3348  2.4582  0.9825
   32MOL   H25923881   2.862   5.721   6.093 -0.5749 -0.6236  0.6633
   32MOL   H26023882   2.817   5.886   6.157 -0.5730  0.1112 -0.6001
   32MOL   H26123883   2.592   5.868   6.070 -0.7802 -0.3596 -0.3345
   32MOL   H26223884   2.669   5.615   6.217  0.7572  0.6982 -0.6085
   32MOL   H26323885   2.510   5.656   6.200  1.2266 -2.6425 -0.3081
   32MOL   H26423886   2.730   5.983   6.413  1.0695 -2.7328 -0.5655
   32MOL   H26523887   2.781   6.147   6.582  0.9557 -1.7191 -4.2097
   32MOL   H26623888   2.511   5.940   6.855 -1.8743  1.4821 -0.9879
   32MOL   H26723889   2.472   5.770   6.690 -0.4065 -0.5288  0.0965
   32MOL   C26823890   3.036   6.507   6.565 -0.4328  0.4933  0.3401
   32MOL   C26923891   2.965   6.410   6.655  0.2826 -0.0661  0.0752
   32MOL   C27023892   2.857   6.483   6.745  1.2512  0.7832 -0.5995
   32MOL   C27123893   2.782   6.388   6.843  0.6098  0.0216  0.1669
   32MOL   C27223894   2.923   6.594   6.823 -0.2266  0.3746 -0.1723
   32MOL   C27323895   3.005   6.696   6.738  0.6586 -0.0900  1.0624
   32MOL   C27423896   3.107   6.625   6.648 -0.0976 -0.1422 -0.0593
   32MOL   C27523897   3.175   6.712   6.543 -0.0019 -0.2186  0.4093
   32MOL   O27623898   3.292   6.650   6.489 -0.4178  0.3711 -0.3403
   32MOL   C27723899   3.414   6.706   6.494  0.4275  0.9276  0.3340
   32MOL   O27823900   3.433   6.813   6.553 -0.1512 -0.1310 -0.0390
   32MOL   C27923901   3.526   6.628   6.430 -0.2049 -0.3244  0.7198
   32MOL   C28023902   3.523   6.489   6.413 -0.3072  0.3323 -0.4250
   32MOL   C28123903   3.634   6.422   6.360  0.3585  0.5866  0.0164
   32MOL   C28223904   3.742   6.491   6.307 -0.4844  0.2776  0.2371
   32MOL   C28323905   3.856   6.422   6.248  0.2890  0.6600 -0.1805
   32MOL   O28423906   3.891   6.307   6.273  0.2629 -0.2977 -0.3059
   32MOL   O28523907   3.925   6.497   6.155  1.1877  0.8624 -0.1506
   32MOL   C28623908   3.730   6.632   6.308 -0.8968  0.3813  0.1212
   32MOL   C28723909   3.635   6.697   6.378 -0.2090  0.0957 -0.4967
   32MOL   H28823910   2.950   6.551   6.514 -0.7702  1.1292  1.4404
   32MOL   H28923911   3.098   6.472   6.482  0.0030  1.6925  0.1335
   32MOL   H29023912   3.030   6.373   6.734 -0.0296  1.0121  0.8430
   32MOL   H29123913   2.932   6.317   6.608  0.6845  0.6924 -1.7560
   32MOL   H29223914   2.775   6.521   6.683 -0.1230  2.8783  2.3964
   32MOL   H29323915   2.705   6.430   6.908 -0.2608 -0.4291 -0.5768
   32MOL   H29423916   2.850   6.350   6.920 -0.0764 -1.2359  0.1576
   32MOL   H29523917   2.983   6.552   6.904  1.0029 -0.5667 -1.5369
   32MOL   H29623918   2.842   6.651   6.869  1.3853  2.1973  0.4700
   32MOL   H29723919   2.931   6.744   6.674  0.9107 -1.1251 -0.0282
   32MOL   H29823920   3.057   6.769   6.799 -2.4284  2.9802  0.2174
   32MOL   H29923921   3.188   6.584   6.708  1.4658 -0.6594 -2.4262
   32MOL   H30023922   3.203   6.807   6.588  0.7909  0.8879 -2.3109
   32MOL   H30123923   3.098   6.731   6.469 -0.1441 -2.7052 -0.1443
   32MOL   H30223924   3.438   6.431   6.449  1.1476 -1.2212  0.6012
   32MOL   H30323925   3.636   6.315   6.355 -3.3824  0.5056 -1.2377
   32MOL   H30423926   3.802   6.699   6.264 -0.5738  0.8784  1.3860
   32MOL   H30523927   3.638   6.804   6.386  0.1235  0.0697 -0.2725
   32MOL   C30623928   4.071   6.665   5.752 -0.1550 -0.2604 -0.5443
   32MOL   C30723929   4.002   6.576   5.857 -0.4045  0.2419  0.8307
   32MOL   C30823930   4.093   6.544   5.975 -0.1818  0.8020 -0.5773
   32MOL   C30923931   4.035   6.446   6.078  0.0373  0.1847 -0.5941
   32MOL   C31023932   4.227   6.490   5.935 -0.1366 -0.5509  0.3080
   32MOL   C31123933   4.296   6.561   5.815 -0.1381 -0.4903 -0.1309
   32MOL   C31223934   4.204   6.607   5.699 -0.2330  0.3706  0.1008
   32MOL   C31323935   4.271   6.707   5.603  0.4880 -0.2055 -0.0406
   32MOL   O31423936   4.285   6.842   5.644  0.1270  0.4242 -0.6538
   32MOL   C31523937   4.234   6.937   5.571  0.2843 -0.3069  0.1929
   32MOL   O31623938   4.162   6.917   5.471 -0.3848 -0.4035  0.3052
   32MOL   C31723939   4.253   7.069   5.634  0.2412 -0.5566  0.1822
   32MOL   C31823940   4.198   7.181   5.564  0.0743  0.2812 -0.3897
   32MOL   C31923941   4.211   7.314   5.609  1.0926 -0.4891 -0.3841
   32MOL   C32023942   4.276   7.337   5.729 -0.3190 -0.1398 -0.5285
   32MOL   C32123943   4.290   7.477   5.779 -0.3335 -0.8413 -0.3288
   32MOL   O32223944   4.280   7.582   5.713  0.1345  0.5773  0.1747
   32MOL   O32323945   4.304   7.468   5.914 -0.0667  0.1278  0.5774
   32MOL   C32423946   4.334   7.228   5.802  0.7215  0.3327  0.0437
   32MOL   C32523947   4.314   7.094   5.757 -0.0459  0.6902 -0.1029
   32MOL   H32623948   4.079   6.765   5.795 -0.7340  0.4983 -2.1674
   32MOL   H32723949   4.011   6.696   5.666 -0.1251  0.8636 -0.1696
   32MOL   H32823950   3.984   6.479   5.810 -2.9065  0.5925  0.9888
   32MOL   H32923951   3.909   6.622   5.892 -1.2940  0.4915 -1.7688
   32MOL   H33023952   4.112   6.638   6.027  0.6874  0.3514 -0.0684
   32MOL   H33123953   4.119   6.422   6.143  0.6154 -1.2141 -1.8195
   32MOL   H33223954   4.004   6.348   6.043  1.3149 -0.1653 -0.7901
   32MOL   H33323955   4.219   6.383   5.919 -0.5285 -0.3595 -0.7918
   32MOL   H33423956   4.304   6.507   6.011  1.3858  2.0572 -1.7535
   32MOL   H33523957   4.346   6.648   5.857  0.2612 -0.7023 -0.1701
   32MOL   H33623958   4.375   6.498   5.775 -0.9323 -0.5759 -1.6176
   32MOL   H33723959   4.181   6.521   5.636  0.0821  0.8988 -0.7356
   32MOL   H33823960   4.224   6.698   5.505 -0.1307 -4.8975  0.5576
   32MOL   H33923961   4.373   6.673   5.589  0.1794 -0.3113 -2.2110
   32MOL   H34023962   4.137   7.160   5.478 -1.3232  1.9309  0.1570
   32MOL   H34123963   4.171   7.394   5.548  0.1144 -1.0444 -0.4839
   32MOL   H34223964   4.388   7.239   5.896 -2.6196  0.2772  2.0445
   32MOL   H34323965   4.367   7.020   5.815 -2.6170 -1.2399 -0.1360
   32MOL   C34423966   4.567   7.426   6.254 -0.7829 -0.3770 -0.4412
   32MOL   C34523967   4.513   7.462   6.111 -1.0348  0.6211  0.1029
   32MOL   C34623968   4.382   7.535   6.131  0.8274  0.3968  0.0104
   32MOL   C34723969   4.327   7.578   5.993 -0.2985 -0.2969 -0.6894
   32MOL   C34823970   4.279   7.449   6.207  0.1687  0.0105  0.3217
   32MOL   C34923971   4.334   7.405   6.342 -0.0915  0.4393  0.3950
   32MOL   C35023972   4.469   7.339   6.330 -0.5537  0.4720 -0.3305
   32MOL   C35123973   4.533   7.290   6.458 -0.1862  0.6093  0.6441
   32MOL   O35223974   4.440   7.212   6.535  0.1748 -0.7444 -0.3678
   32MOL   C35323975   4.435   7.080   6.543 -0.0576 -0.4065  0.8727
   32MOL   O35423976   4.526   7.006   6.504  0.2066  0.2752  0.2087
   32MOL   C35523977   4.301   7.023   6.577 -0.3503 -0.1363  0.3614
   32MOL   C35623978   4.283   6.886   6.602  0.1235  0.4075  0.2549
   32MOL   C35723979   4.154   6.834   6.629 -0.9573 -0.1573 -0.0014
   32MOL   C35823980   4.041   6.922   6.618 -0.7175 -0.6190 -0.2030
   32MOL   C35923981   3.902   6.884   6.643  0.1051  1.3259 -0.6899
   32MOL   O36023982   3.805   6.942   6.591  0.0303  0.1507  0.4774
   32MOL   O36123983   3.898   6.781   6.734  0.4997 -0.4504  0.4146
   32MOL   C36223984   4.060   7.058   6.581 -0.1277 -0.2646  0.2026
   32MOL   C36323985   4.186   7.109   6.559 -0.8899 -0.7627  0.2196
   32MOL   H36423986   4.582   7.515   6.315  2.2598 -0.9417 -0.2913
   32MOL   H36523987   4.668   7.384   6.249 -0.6907 -0.3423  1.0566
   32MOL   H36623988   4.500   7.380   6.040 -1.5956 -0.5261  1.5186
   32MOL   H36723989   4.581   7.524   6.052 -1.1543 -0.0034 -0.6968
   32MOL   H36823990   4.410   7.630   6.178  0.1729  0.9003 -0.5994
   32MOL   H36923991   4.400   7.644   5.945  0.0819  0.2791  0.6687
   32MOL   H37023992   4.234   7.635   6.000  0.3623  0.8982 -1.3788
   32MOL   H37123993   4.261   7.364   6.142 -0.5896  1.6545 -1.6737
   32MOL   H37223994   4.182   7.497   6.222  0.5292  1.4071 -1.7046
   32MOL   H37323995   4.336   7.478   6.423 -1.5704 -0.0041  0.8511
   32MOL   H37423996   4.266   7.332   6.387  1.1208 -0.1736  1.2437
   32MOL   H37523997   4.444   7.256   6.264 -0.7110  1.2173 -1.2218
   32MOL   H37623998   4.552   7.375   6.522  3.6545  1.5207 -1.5636
   32MOL   H37723999   4.621   7.228   6.439 -0.3595  0.8296 -0.9657
   32MOL   H37824000   4.366   6.817   6.594 -0.2831 -0.1055  0.4299
   32MOL   H37924001   4.142   6.729   6.651 -2.5510  0.4033  1.9929
   32MOL   H38024002   3.977   7.125   6.568  0.5938  0.3834 -1.1587
   32MOL   H38124003   4.195   7.212   6.530 -3.0973 -0.1488  1.6234
   32MOL   C38224004   3.871   6.329   6.642  0.4184  0.2486  0.5590
   32MOL   C38324005   3.878   6.482   6.641  0.2435  0.2166  0.0238
   32MOL   C38424006   3.818   6.544   6.767  0.5638 -0.1387  0.4593
   32MOL   C38524007   3.783   6.697   6.750  0.0197  0.1016 -0.1065
   32MOL   C38624008   3.689   6.480   6.827 -0.4044  0.4987 -0.2113
   32MOL   C38724009   3.704   6.328   6.835  0.0376 -0.3740  1.2645
   32MOL   C38824010   3.741   6.272   6.698  0.0720  0.5145 -0.2293
   32MOL   C38924011   3.754   6.115   6.688 -0.0638 -0.6516 -0.1225
   32MOL   O39024012   3.826   6.056   6.794 -0.3534  0.6274 -0.1014
   32MOL   C39124013   3.766   5.989   6.891 -0.7224  0.5040  0.2067
   32MOL   O39224014   3.641   5.974   6.895 -0.0461 -0.0411 -0.5847
   32MOL   C39324015   3.855   5.935   6.991 -0.4997 -0.4205  0.4732
   32MOL   C39424016   3.813   5.917   7.125  0.5079  0.2698 -0.1233
   32MOL   C39524017   3.895   5.871   7.224 -0.2469 -0.0334  0.3501
   32MOL   C39624018   4.029   5.836   7.193 -0.0219 -1.0240 -0.5688
   32MOL   C39724019   4.115   5.762   7.293 -0.5597  0.7011  0.3321
   32MOL   O39824020   4.192   5.670   7.258  0.8034 -0.2873  0.4752
   32MOL   O39924021   4.089   5.795   7.419  0.4907 -0.3593  0.0772
   32MOL   C40024022   4.072   5.851   7.058  0.6483 -0.2864  0.0025
   32MOL   C40124023   3.990   5.905   6.957 -0.6569 -0.1261  0.4692
   32MOL   H40224024   3.946   6.295   6.712 -0.3284  1.1955  1.8416
   32MOL   H40324025   3.894   6.279   6.548 -1.9237 -0.0751  0.1267
   32MOL   H40424026   3.813   6.510   6.558 -0.6295 -0.8203  0.3354
   32MOL   H40524027   3.975   6.519   6.610  0.6980  0.0632  1.2249
   32MOL   H40624028   3.890   6.533   6.848  2.7343 -0.5895 -1.4862
   32MOL   H40724029   3.741   6.742   6.840  0.0765  0.9403 -0.4924
   32MOL   H40824030   3.695   6.707   6.686 -0.0896  0.7989  0.1492
   32MOL   H40924031   3.603   6.500   6.764 -0.3881  1.0973 -0.0416
   32MOL   H41024032   3.658   6.528   6.919 -0.6571 -3.0297  1.6255
   32MOL   H41124033   3.782   6.292   6.902  0.1326 -2.2836  0.1453
   32MOL   H41224034   3.613   6.290   6.880  0.5044 -2.3026  0.6041
   32MOL   H41324035   3.663   6.303   6.628  0.0153  0.7874 -0.0438
   32MOL   H41424036   3.792   6.082   6.591  0.5573 -2.4397  0.6978
   32MOL   H41524037   3.653   6.076   6.692 -0.7138  0.7288 -2.1871
   32MOL   H41624038   3.715   5.955   7.149 -0.3306 -0.7499 -1.9361
   32MOL   H41724039   3.857   5.864   7.325 -1.6338  0.9824 -0.0840
   32MOL   H41824040   4.173   5.819   7.037  0.8690 -0.3900  1.1708
   32MOL   H41924041   4.031   5.919   6.858 -1.0499 -0.9700  0.1804
   32MOL   C42024042   4.134   5.484   7.812 -0.2242  0.2135  0.3274
   32MOL   C42124043   4.203   5.590   7.722  0.0273 -0.1533  0.2259
   32MOL   C42224044   4.105   5.643   7.611 -0.2240  0.1624  0.2963
   32MOL   C42324045   4.177   5.747   7.523 -0.3302  0.3412 -0.2868
   32MOL   C42424046   4.050   5.530   7.531  0.4106  0.2922 -0.3150
   32MOL   C42524047   3.996   5.417   7.615 -0.1438 -0.1289  0.5691
   32MOL   C42624048   4.091   5.365   7.725 -0.3184  0.3498 -0.3697
   32MOL   C42724049   4.027   5.257   7.814 -0.1445  0.1324 -0.4047
   32MOL   O42824050   4.106   5.234   7.929 -0.5989  0.5836  0.4869
   32MOL   C42924051   4.209   5.147   7.930 -0.8260  0.0929  0.2119
   32MOL   O43024052   4.246   5.079   7.833  0.1403 -0.4529 -0.2086
   32MOL   C43124053   4.273   5.130   0.033 -0.5529 -0.0461 -1.1576
   32MOL   C43224054   4.249   5.229   0.134 -0.6161 -0.2413 -0.1100
   32MOL   C43324055   4.299   5.217   0.267 -0.6121 -0.3154 -0.4021
   32MOL   C43424056   4.388   5.101   0.287 -0.0328 -0.3181  0.0481
   32MOL   C43524057   4.439   5.081   0.430 -0.2012 -0.0869  0.0929
   32MOL   O43624058   4.394   5.133   0.532  0.7634  0.4294  0.3700
   32MOL   O43724059   4.541   4.993   0.428 -0.0282  0.1382 -0.3662
   32MOL   C43824060   4.416   5.008   0.180 -0.1795 -0.1667 -0.2476
   32MOL   C43924061   4.363   5.024   0.053  0.0797  0.0595  0.8144
   32MOL   H44024062   4.041   5.523   7.854 -0.8390  0.0773 -0.8848
   32MOL   H44124063   4.201   5.454   7.893  0.3879  1.8043  0.4182
   32MOL   H44224064   4.297   5.555   7.679  0.6907  0.3846  1.1958
   32MOL   H44324065   4.235   5.677   7.780 -0.7727  0.9691 -1.0140
   32MOL   H44424066   4.027   5.693   7.668  0.4731 -0.8580  2.2049
   32MOL   H44524067   4.266   5.699   7.483  0.9701 -0.6952  3.6607
   32MOL   H44624068   4.218   5.825   7.588  0.0252 -1.4905  1.7399
   32MOL   H44724069   4.128   5.495   7.463  0.4023  0.5583 -0.4611
   32MOL   H44824070   3.979   5.564   7.456  2.2519 -2.8200 -3.6487
   32MOL   H44924071   3.905   5.451   7.665  1.1401  1.3251  1.9671
   32MOL   H45024072   3.983   5.335   7.545 -0.3023  0.4550 -0.1000
   32MOL   H45124073   4.167   5.307   7.673  0.0466 -1.5857  2.2364
   32MOL   H45224074   4.007   5.162   7.765  1.6176 -1.3962  1.6644
   32MOL   H45324075   3.933   5.300   7.847 -0.3734 -0.2005 -0.6276
   32MOL   H45424076   4.187   5.315   0.109  1.3057  0.5806 -2.1693
   32MOL   H45524077   4.255   5.280   0.342 -0.4587 -2.0015  1.1277
   32MOL   H45624078   4.467   4.917   0.208 -1.5848 -1.0605 -0.5175
   32MOL   H45724079   4.390   4.963   7.999  1.5193  0.4805  0.9498
   32MOL   C45824080   4.780   4.671   0.692  0.0067 -0.4680 -0.4718
   32MOL   C45924081   4.725   4.815   0.692  0.8584 -0.1036 -0.2647
   32MOL   C46024082   4.685   4.848   0.544  0.1678 -0.5146  0.3803
   32MOL   C46124083   4.613   4.980   0.546 -0.0397 -0.1216  0.5176
   32MOL   C46224084   4.815   4.848   0.462  0.3942 -0.5672  0.6240
   32MOL   C46324085   4.878   4.704   0.465  0.0754  0.2710  0.0402
   32MOL   C46424086   4.908   4.666   0.608  0.7376  0.3589 -0.7886
   32MOL   C46524087   4.971   4.522   0.611 -0.0953 -0.9450  0.3577
   32MOL   O46624088   4.983   4.492   0.747  0.1398 -0.3864  0.0516
   32MOL   C46724089   5.092   4.422   0.782  0.2990  0.0482  0.0922
   32MOL   O46824090   5.150   4.345   0.705 -1.1674  0.1409  0.8601
   32MOL   C46924091   5.142   4.456   0.923  0.2762 -0.3731  0.2071
   32MOL   C47024092   5.249   4.380   0.969  0.5752  0.5107  0.0519
   32MOL   C47124093   5.309   4.409   1.099 -0.3943 -0.2252  0.3490
   32MOL   C47224094   5.243   4.508   1.177 -0.5555  0.1105 -0.1822
   32MOL   C47324095   5.303   4.556   1.310  0.2450  0.5179  0.3093
   32MOL   O47424096   5.261   4.653   1.371  0.1917 -0.5546  0.3588
   32MOL   O47524097   5.400   4.471   1.347  0.3791 -0.2921  0.1371
   32MOL   C47624098   5.133   4.583   1.127  0.0626 -0.0449  0.1122
   32MOL   C47724099   5.090   4.563   0.997 -0.5726 -0.0495  0.2813
   32MOL   H47824100   4.705   4.600   0.657  0.3394 -0.2425 -1.6530
   32MOL   H47924101   4.806   4.658   0.797  2.6963  1.8693 -0.7819
   32MOL   H48024102   4.788   4.892   0.736  0.6306 -0.1695  0.1817
   32MOL   H48124103   4.632   4.828   0.747  1.4962  2.0865  0.3378
   32MOL   H48224104   4.615   4.774   0.506  0.3712 -0.8683  0.6930
   32MOL   H48324105   4.671   5.069   0.568 -0.4097  0.9440 -2.6687
   32MOL   H48424106   4.543   4.983   0.630  0.0534  0.1811  0.5836
   32MOL   H48524107   4.886   4.923   0.498 -0.5445 -0.0975  1.5615
   32MOL   H48624108   4.788   4.880   0.361  1.4985  1.7263  1.0165
   32MOL   H48724109   4.818   4.620   0.428  0.3468 -1.1681  2.7400
   32MOL   H48824110   4.959   4.713   0.392  0.1094  0.1852  0.0669
   32MOL   H48924111   4.985   4.730   0.653  0.6033 -0.4409  0.5808
   32MOL   H49024112   5.064   4.534   0.555 -0.4532  0.3421  0.0324
   32MOL   H49124113   4.913   4.439   0.569 -0.0845 -1.0933  0.6367
   32MOL   H49224114   5.297   4.312   0.901 -1.9155 -0.6396 -0.5928
   32MOL   H49324115   5.393   4.352   1.136  0.3780  1.3975  1.1470
   32MOL   H49424116   5.082   4.664   1.178 -0.0132  0.0473 -0.1124
   32MOL   H49524117   5.002   4.614   0.960 -0.2687 -0.2049 -0.6652
   32MOL   C49624118   5.831   4.393   1.331  0.7041 -0.2321 -0.5345
   32MOL   C49724119   5.697   4.467   1.334 -0.5261  0.0198 -0.4626
   32MOL   C49824120   5.602   4.418   1.451 -0.4597  0.0121 -0.7913
   32MOL   C49924121   5.476   4.502   1.462  0.6297 -0.5012 -0.1574
   32MOL   C50024122   5.577   4.267   1.442  0.2837  0.0721  0.0836
   32MOL   C50124123   5.704   4.187   1.417 -0.0651  0.4942 -0.2265
   32MOL   C50224124   5.802   4.238   1.305 -0.1896  0.0130 -0.8508
   32MOL   C50324125   5.921   4.132   1.294  0.1668  0.2434  0.7023
   32MOL   O50424126   6.011   4.181   1.207  0.0405 -0.2012  0.0104
   32MOL   C50524127   5.990   4.167   1.077  0.2117  0.5321  0.0096
   32MOL   O50624128   5.889   4.126   1.016 -0.3587  0.3976  0.3289
   32MOL   C50724129   6.113   4.200   0.995 -0.0467 -0.4175  0.0753
   32MOL   C50824130   6.219   4.276   1.040 -0.4742  0.0363  0.1553
   32MOL   C50924131   6.333   4.300   0.966 -0.3849  0.2949  0.4000
   32MOL   C51024132   6.337   4.255   0.829  0.5459 -0.3026  0.6278
   32MOL   C51124133   6.457   4.284   0.747 -0.4206 -0.3008 -0.2167
   32MOL   O51224134   6.570   4.307   0.794  0.3590  0.1073 -0.1280
   32MOL   O51324135   6.433   4.276   0.614  0.1501  0.2943 -0.1185
   32MOL   C51424136   6.223   4.183   0.775 -0.8582 -1.2981  0.2848
   32MOL   C51524137   6.117   4.155   0.860 -0.0525  0.2352  0.6011
   32MOL   H51624138   5.887   4.410   1.423  0.3909 -0.6905 -0.2585
   32MOL   H51724139   5.896   4.442   1.259  0.1488  1.9967  0.4415
   32MOL   H51824140   5.650   4.449   1.237  1.2022 -1.3934 -1.0687
   32MOL   H51924141   5.718   4.569   1.364  0.3033 -0.3030  0.0753
   32MOL   H52024142   5.658   4.432   1.543  0.7685  0.0340 -1.5347
   32MOL   H52124143   5.510   4.604   1.445 -0.3997 -0.0088  0.6693
   32MOL   H52224144   5.433   4.479   1.559 -0.9568  1.5338 -0.3605
   32MOL   H52324145   5.512   4.243   1.357 -2.2884  0.5594  1.8476
   32MOL   H52424146   5.531   4.231   1.534  1.2945 -1.8682 -0.1359
   32MOL   H52524147   5.759   4.186   1.510  0.1806  1.8754 -0.3560
   32MOL   H52624148   5.674   4.084   1.393 -2.6213  0.9318  0.8653
   32MOL   H52724149   5.747   4.234   1.212  0.0383  1.0280 -1.0442
   32MOL   H52824150   5.895   4.040   1.243  0.3476  0.5777 -0.0025
   32MOL   H52924151   5.969   4.099   1.386 -0.0224 -1.2538  0.2806
   32MOL   H53024152   6.223   4.306   1.144 -0.7843  1.3556 -0.2079
   32MOL   H53124153   6.412   4.364   1.004  0.6905 -0.8981  0.2033
   32MOL   H53224154   6.217   4.143   0.675 -1.9621 -0.3656 -0.0423
   32MOL   H53324155   6.038   4.091   0.824 -0.1228 -1.3054  3.3818
   32MOL   C53424156   6.241   4.469   0.276 -0.2821  0.2720  0.1701
   32MOL   C53524157   6.316   4.366   0.365  1.2443  0.3400  0.1886
   32MOL   C53624158   6.445   4.429   0.425  0.2201 -0.1797 -0.4445
   32MOL   C53724159   6.521   4.330   0.521 -0.1446 -0.9568 -0.3724
   32MOL   C53824160   6.537   4.469   0.313 -0.1115  0.2583 -0.5899
   32MOL   C53924161   6.464   4.573   0.225  0.2360 -0.4108  0.1425
   32MOL   C54024162   6.340   4.509   0.164 -0.4514 -0.2851 -0.1411
   32MOL   C54124163   6.252   4.598   0.071 -0.2308  0.0428 -0.4339
   32MOL   O54224164   6.333   4.676   8.011  0.2926 -0.4060  0.2309
   32MOL   C54324165   6.369   4.621   7.893  0.3976  0.1753  0.6522
   32MOL   O54424166   6.324   4.518   7.850 -0.1410 -0.2274  0.3554
   32MOL   C54524167   6.464   4.701   7.822 -0.5873  0.0330  0.4252
   32MOL   C54624168   6.468   4.689   7.683 -0.0177  0.0257  0.7833
   32MOL   C54724169   6.563   4.748   7.601 -0.3027 -0.3780  0.3758
   32MOL   C54824170   6.674   4.820   7.659 -0.8567 -0.2004  0.6080
   32MOL   C54924171   6.789   4.865   7.579  0.5381 -0.2661  0.3633
   32MOL   O55024172   6.794   4.864   7.456 -0.0331  0.4532 -0.2349
   32MOL   O55124173   6.895   4.909   7.656  0.2774 -0.3116  0.4830
   32MOL   C55224174   6.670   4.837   7.798  0.1859 -0.8766 -0.1334
   32MOL   C55324175   6.569   4.781   7.880  0.2148 -0.1829  0.6386
   32MOL   H55424176   6.212   4.544   0.350  0.2664  0.8866 -0.2297
   32MOL   H55524177   6.147   4.436   0.231 -0.7517  2.8649 -0.8588
   32MOL   H55624178   6.346   4.287   0.296 -1.0498 -1.3784  1.0989
   32MOL   H55724179   6.249   4.328   0.442 -1.2531  2.5279 -0.8375
   32MOL   H55824180   6.429   4.517   0.486 -1.0275 -0.7363  0.0565
   32MOL   H55924181   6.613   4.367   0.565  0.4705 -2.4423 -0.3848
   32MOL   H56024182   6.564   4.257   0.452  0.0915 -0.1326 -1.1007
   32MOL   H56124183   6.562   4.383   0.251  1.8464  1.3689 -1.4080
   32MOL   H56224184   6.632   4.510   0.349  0.2267 -1.4383  0.5326
   32MOL   H56324185   6.445   4.666   0.278  4.4456 -1.3887  3.6861
   32MOL   H56424186   6.527   4.606   0.142  0.9235 -1.6006  0.1744
   32MOL   H56524187   6.370   4.420   0.109  1.4667  0.8294 -0.9509
   32MOL   H56624188   6.199   4.669   0.133 -1.0492 -0.2541 -0.7878
   32MOL   H56724189   6.175   4.536   0.025 -0.5101  0.8098 -1.0057
   32MOL   H56824190   6.396   4.637   7.620  0.6219 -0.1900  0.2312
   32MOL   H56924191   6.550   4.744   7.494 -1.3146  1.7021  0.4051
   32MOL   H57024192   6.739   4.902   7.851 -0.1683 -1.1667  0.7007
   32MOL   H57124193   6.564   4.810   7.984 -1.2119  1.2400  0.2086
   32MOL   C57224194   7.238   4.855   7.926 -0.8829 -0.0422  1.0312
   32MOL   C57324195   7.127   4.924   7.834  0.6338  0.1862 -0.1299
   32MOL   C57424196   7.126   4.859   7.696 -0.5358 -0.6476  0.3398
   32MOL   C57524197   7.023   4.926   7.599  0.3146  0.2559 -0.1171
   32MOL   C57624198   7.265   4.860   7.617  0.1034 -0.4437 -0.1254
   32MOL   C57724199   7.370   4.792   7.712 -0.0196 -0.3269 -0.6642
   32MOL   C57824200   7.378   4.859   7.853  0.3503 -0.3251 -0.0184
   32MOL   C57924201   7.487   4.802   7.939 -0.2718  0.5040 -0.3452
   32MOL   O58024202   7.454   4.680   8.005  0.0346  0.7827 -0.1701
   32MOL   C58124203   7.529   4.614   0.065 -0.0884  0.3926  0.3505
   32MOL   O58224204   7.627   4.667   0.120 -0.3535 -0.4904  0.2188
   32MOL   C58324205   7.484   4.474   0.105 -0.3342  0.1137  0.5751
   32MOL   C58424206   7.368   4.412   0.057  0.3766  0.4204 -0.0525
   32MOL   C58524207   7.326   4.290   0.113  0.0686 -0.3389  0.2209
   32MOL   C58624208   7.402   4.225   0.214  0.0891 -0.5223 -0.3087
   32MOL   C58724209   7.357   4.098   0.274  0.2342  0.3901  1.0029
   32MOL   O58824210   7.278   4.020   0.215  0.6573  0.4507  0.3020
   32MOL   O58924211   7.420   4.073   0.385 -0.0242  0.0161  0.8288
   32MOL   C59024212   7.521   4.288   0.256  0.2714  0.3391 -0.6240
   32MOL   C59124213   7.567   4.406   0.201  0.2898 -0.3123  0.0565
   32MOL   H59224214   7.214   4.750   7.942 -0.4444 -0.4928 -0.9960
   32MOL   H59324215   7.251   4.906   8.021  1.5217  0.0469  0.6938
   32MOL   H59424216   7.152   5.029   7.826  1.6164  0.3514  3.8757
   32MOL   H59524217   7.032   4.904   7.883  0.0699 -0.0649 -1.3107
   32MOL   H59624218   7.089   4.757   7.705 -0.2700 -0.8154 -0.3668
   32MOL   H59724219   7.028   4.891   7.495 -0.3428  2.1747 -0.8143
   32MOL   H59824220   7.038   5.033   7.589 -1.4388  0.6317  1.1981
   32MOL   H59924221   7.302   4.959   7.590  1.4325  0.2573  3.9810
   32MOL   H60024222   7.250   4.802   7.526 -1.1300 -0.7134  0.2485
   32MOL   H60124223   7.338   4.689   7.728 -1.4537 -0.1485 -2.1449
   32MOL   H60224224   7.471   4.795   7.673 -0.2788 -0.7101 -1.3753
   32MOL   H60324225   7.401   4.966   7.847  0.6026 -0.2775  1.4757
   32MOL   H60424226   7.495   4.869   8.025 -0.5278 -0.5069  0.4810
   32MOL   H60524227   7.582   4.802   7.887 -0.0030 -2.9704  0.0377
   32MOL   H60624228   7.303   4.468   8.023 -1.5623  1.8810  3.0035
   32MOL   H60724229   7.236   4.243   0.079  0.9734 -0.8671 -1.5008
   32MOL   H60824230   7.591   4.240   0.323  3.2404  1.1876 -2.9881
   32MOL   H60924231   7.652   4.458   0.242  1.9941 -1.2528 -2.1907
   32MOL   C61024232   7.626   4.091   0.759  0.4741  0.8739  0.0568
   32MOL   C61124233   7.511   4.079   0.652 -0.5199  0.2177 -0.4622
   32MOL   C61224234   7.546   3.967   0.546  0.6056  0.4053  0.1763
   32MOL   C61324235   7.432   3.947   0.439  0.7131 -0.4470  0.7353
   32MOL   C61424236   7.696   3.975   0.501 -0.3687  0.3563  0.4205
   32MOL   C61524237   7.801   3.995   0.609 -0.3774  0.4312  0.0766
   32MOL   C61624238   7.763   4.116   0.697 -0.9313 -0.4978 -0.3906
   32MOL   C61724239   7.867   4.150   0.811 -0.1727 -0.3258  0.3332
   32MOL   O61824240   7.950   4.264   0.782 -0.0420  0.0497 -0.0995
   32MOL   C61924241   0.025   4.248   0.698 -0.9156 -0.2070  0.2219
   32MOL   O62024242   0.058   4.143   0.648 -0.4126 -0.0119 -0.6727
   32MOL   C62124243   0.104   4.369   0.675  0.4509 -0.3125  0.1174
   32MOL   C62224244   0.240   4.353   0.640 -0.0059 -0.6702 -0.0868
   32MOL   C62324245   0.319   4.472   0.614  0.1401  0.6346  0.7116
   32MOL   C62424246   0.262   4.597   0.622  0.1767 -0.0860 -0.3115
   32MOL   C62524247   0.331   4.717   0.570  0.0453  0.0922  0.0334
   32MOL   O62624248   0.281   4.828   0.584 -0.0929  0.2821  0.3806
   32MOL   O62724249   0.451   4.690   0.507  0.0539 -0.2174  0.0112
   32MOL   C62824250   0.130   4.609   0.672  0.5141 -0.6345 -0.5292
   32MOL   C62924251   0.048   4.500   0.686 -0.0624 -0.8836 -0.0473
   32MOL   H63024252   7.614   3.999   0.817  3.5776 -0.2761 -1.0607
   32MOL   H63124253   7.593   4.168   0.829 -0.2300  0.0940  0.6050
   32MOL   H63224254   7.488   4.178   0.613  0.9437  0.2828 -1.1775
   32MOL   H63324255   7.413   4.060   0.697 -0.0806  1.1678  0.9340
   32MOL   H63424256   7.544   3.878   0.609  0.6882 -0.0167 -0.4150
   32MOL   H63524257   7.341   3.921   0.495  0.0264 -1.6087 -0.8986
   32MOL   H63624258   7.458   3.869   0.368 -3.4959 -0.5045 -0.8695
   32MOL   H63724259   7.697   4.055   0.427 -0.9935  0.2746  0.3206
   32MOL   H63824260   7.722   3.883   0.448 -1.5780  0.2523 -0.0072
   32MOL   H63924261   7.816   3.912   0.679  0.4965  1.0013  0.5691
   32MOL   H64024262   7.896   4.015   0.560 -0.5430 -2.2118 -1.4181
   32MOL   H64124263   7.759   4.198   0.625  0.1651 -0.6643 -0.6517
   32MOL   H64224264   7.940   4.069   0.821 -3.0290 -2.8614  1.4770
   32MOL   H64324265   7.814   4.160   0.905 -0.3584 -0.5448  0.2512
   32MOL   H64424266   0.284   4.255   0.636 -0.5785 -0.9300 -0.0952
   32MOL   H64524267   0.423   4.457   0.591  0.8646  3.3065  2.0589
   32MOL   H64624268   0.092   4.708   0.690  0.8858 -0.8514  1.5703
   32MOL   H64724269   7.975   4.517   0.706  0.4320  1.0847  0.9682
   32MOL   C64824270   0.832   5.008   0.525 -0.1174  0.1957  0.0271
   32MOL   C64924271   0.707   4.962   0.455  0.4972 -0.3735  0.0247
   32MOL   C65024272   0.638   4.842   0.520  0.8221  0.5598 -0.8717
   32MOL   C65124273   0.514   4.800   0.446  0.3987 -0.2274  0.1536
   32MOL   C65224274   0.741   4.732   0.536  0.1587 -0.4560 -0.4864
   32MOL   C65324275   0.864   4.777   0.610 -0.3249 -0.2601  0.2459
   32MOL   C65424276   0.937   4.897   0.542  0.2812 -0.2043  0.2236
   32MOL   C65524277   1.062   4.957   0.609 -0.5603 -0.4582  0.1453
   32MOL   O65624278   1.176   4.873   0.599 -0.2079  0.0125 -0.7640
   32MOL   C65724279   1.260   4.874   0.705 -0.0341  0.4710  0.0631
   32MOL   O65824280   1.241   4.934   0.812 -0.4436  0.0716 -0.4764
   32MOL   C65924281   1.373   4.781   0.678 -0.6611  0.3898  0.5890
   32MOL   C66024282   1.372   4.688   0.575  0.6541 -0.3271  0.9246
   32MOL   C66124283   1.482   4.609   0.537  0.4195  0.6008 -0.4211
   32MOL   C66224284   1.595   4.604   0.620  0.1093 -0.4404 -0.2072
   32MOL   C66324285   1.707   4.515   0.590  0.2032 -0.2450  0.1761
   32MOL   O66424286   1.793   4.487   0.670 -0.0772 -0.7053  0.5776
   32MOL   O66524287   1.701   4.474   0.469 -0.1596 -0.0822  0.5708
   32MOL   C66624288   1.596   4.689   0.732  0.3118  0.9485  0.1211
   32MOL   C66724289   1.489   4.777   0.759  0.4442 -0.3113 -0.1187
   32MOL   H66824290   0.793   5.051   0.617  0.5798 -1.1939  0.9749
   32MOL   H66924291   0.873   5.094   0.471 -1.7131  1.4770  0.8238
   32MOL   H67024292   0.729   4.942   0.350 -2.2843  2.7579 -1.2551
   32MOL   H67124293   0.641   5.049   0.445  0.4310 -0.3882  0.3314
   32MOL   H67224294   0.607   4.857   0.623  0.6873  1.1233 -0.9936
   32MOL   H67324295   0.532   4.775   0.341  0.7696  0.7114 -0.0126
   32MOL   H67424296   0.445   4.884   0.443 -1.4107 -1.7284 -3.0364
   32MOL   H67524297   0.771   4.699   0.437  1.7101  0.2169 -0.2508
   32MOL   H67624298   0.696   4.653   0.596  2.5404 -1.6985 -0.2889
   32MOL   H67724299   0.824   4.800   0.709  1.0666 -0.0510  0.7645
   32MOL   H67824300   0.939   4.700   0.628  0.1929  0.9152  3.3009
   32MOL   H67924301   0.970   4.868   0.442 -0.4721  1.1789 -0.4335
   32MOL   H68024302   1.029   4.980   0.710 -2.7704 -0.8836 -0.4495
   32MOL   H68124303   1.095   5.053   0.567  1.4015 -0.7547  0.9473
   32MOL   H68224304   1.283   4.672   0.516  0.9238 -1.3128  0.7731
   32MOL   H68324305   1.473   4.552   0.446 -1.0955  0.3957 -0.1585
   32MOL   H68424306   1.687   4.693   0.790  0.4451  1.4907 -0.1218
   32MOL   H68524307   1.504   4.852   0.835 -2.7403  0.7760 -0.4868
   32MOL   C68624308   1.710   4.459   0.035 -0.2392  0.2753  0.5698
   32MOL   C68724309   1.715   4.485   0.189 -0.2282  0.0697  0.4332
   32MOL   C68824310   1.786   4.366   0.262 -0.1763  0.0111 -0.5390
   32MOL   C68924311   1.801   4.386   0.416  0.3901 -0.3132  0.2506
   32MOL   C69024312   1.726   4.226   0.225  0.2046 -0.4858 -0.1999
   32MOL   C69124313   1.725   4.203   0.071  0.0898 -0.7909 -0.6293
   32MOL   C69224314   1.654   4.319   0.005  0.4493 -1.1865 -0.5070
   32MOL   C69324315   1.648   4.293   7.888  1.3148  0.3842  0.5281
   32MOL   O69424316   1.775   4.299   7.833 -0.3130 -0.4722 -0.4378
   32MOL   C69524317   1.790   4.276   7.697  0.0832 -0.2318  0.2449
   32MOL   O69624318   1.699   4.249   7.613  0.6076  0.4558 -0.2510
   32MOL   C69724319   1.932   4.300   7.656 -1.1648  0.1682 -0.1976
   32MOL   C69824320   1.976   4.280   7.519 -0.7548 -0.4603 -0.0925
   32MOL   C69924321   2.112   4.293   7.484  0.4950  0.1746 -0.5692
   32MOL   C70024322   2.208   4.332   7.577  0.1459 -0.1288 -0.7940
   32MOL   C70124323   2.350   4.353   7.537  0.4029  0.4493  0.0744
   32MOL   O70224324   2.436   4.371   7.618  0.6200 -0.3874 -0.5388
   32MOL   O70324325   2.366   4.343   7.400  0.1995 -0.2164 -0.0529
   32MOL   C70424326   2.166   4.359   7.713  0.0292  0.2276 -0.2721
   32MOL   C70524327   2.028   4.336   7.753 -0.4950  0.3708  0.5713
   32MOL   H70624328   1.816   4.459   0.009 -0.4078  2.0134 -0.1507
   32MOL   H70724329   1.659   4.532   8.004 -2.0635 -1.7214 -0.3327
   32MOL   H70824330   1.614   4.490   0.230 -0.4128  1.0852 -0.1359
   32MOL   H70924331   1.757   4.584   0.209  1.5117 -0.3572 -0.8916
   32MOL   H71024332   1.884   4.360   0.213 -0.8574  0.3173 -1.9679
   32MOL   H71124333   1.895   4.438   0.432 -0.7566  1.4954  1.3282
   32MOL   H71224334   1.820   4.295   0.474 -0.7180 -0.4792  0.3676
   32MOL   H71324335   1.622   4.214   0.252  0.1488  0.5633  0.0719
   32MOL   H71424336   1.780   4.147   0.277  0.6818  0.8132  1.2917
   32MOL   H71524337   1.827   4.185   0.034 -0.0136 -1.7052 -0.4883
   32MOL   H71624338   1.673   4.111   0.044  0.5572 -0.5105 -2.5581
   32MOL   H71724339   1.553   4.322   0.044  0.9546 -0.4389  0.7759
   32MOL   H71824340   1.586   4.373   7.847 -0.5755  0.0659  2.6956
   32MOL   H71924341   1.611   4.194   7.864  0.0963 -0.3764  5.2497
   32MOL   H72024342   1.903   4.250   7.446  1.2744 -1.6649 -1.6923
   32MOL   H72124343   2.140   4.281   7.380  0.2491  1.0631 -0.7438
   32MOL   H72224344   2.240   4.385   7.787  1.7875 -1.2246 -1.4710
   32MOL   H72324345   2.004   4.345   7.858 -0.3230  0.6766  0.5863
   32MOL   C72424346   2.435   4.205   6.983 -0.3830 -0.7637 -0.4911
   32MOL   C72524347   2.433   4.213   7.134 -0.5510  0.3638  0.7911
   32MOL   C72624348   2.493   4.349   7.187  0.4532  0.5718 -0.1291
   32MOL   C72724349   2.498   4.354   7.345 -0.2209 -0.7743 -0.3287
   32MOL   C72824350   2.631   4.377   7.130 -0.2733 -0.2885  0.5127
   32MOL   C72924351   2.636   4.361   6.971 -0.1847 -0.2546  0.0218
   32MOL   C73024352   2.584   4.222   6.929 -0.2919 -0.4863  0.0406
   32MOL   C73124353   2.590   4.194   6.777 -0.0897  0.5552  0.3128
   32MOL   O73224354   2.690   4.098   6.749  0.3812  0.2725 -0.3161
   32MOL   C73324355   2.799   4.125   6.672 -0.1127 -0.7343 -0.2189
   32MOL   O73424356   2.814   4.236   6.629  0.2800  0.5038 -0.2781
   32MOL   C73524357   2.892   4.006   6.653  0.3168  0.2743  0.8185
   32MOL   C73624358   2.969   4.004   6.534 -0.0616 -1.1148 -0.4282
   32MOL   C73724359   3.047   3.893   6.498 -0.5555  0.4703 -0.4381
   32MOL   C73824360   3.046   3.776   6.582  0.3496  0.3798 -0.7123
   32MOL   C73924361   3.131   3.652   6.549 -0.0370  0.5175  0.4218
   32MOL   O74024362   3.105   3.544   6.598  0.6097 -0.0168  0.1330
   32MOL   O74124363   3.217   3.672   6.440 -0.2252  0.5724  0.1193
   32MOL   C74224364   2.961   3.783   6.698  0.0239  0.0653 -0.6379
   32MOL   C74324365   2.884   3.891   6.735  0.0510 -0.3847  0.1692
   32MOL   H74424366   2.373   4.277   6.931  0.4942  0.2746 -0.1078
   32MOL   H74524367   2.393   4.110   6.949 -2.7468  0.4370 -1.0219
   32MOL   H74624368   2.492   4.131   7.176 -0.7859 -1.9173 -3.0115
   32MOL   H74724369   2.334   4.192   7.175  0.3931  1.4478  3.7446
   32MOL   H74824370   2.425   4.421   7.142  0.8018  0.1155 -1.4194
   32MOL   H74924371   2.553   4.444   7.374 -2.3206  0.3026  0.4373
   32MOL   H75024372   2.555   4.266   7.373 -2.5795 -2.1757  0.1988
   32MOL   H75124373   2.699   4.308   7.179  0.3634  1.3067  1.9149
   32MOL   H75224374   2.684   4.466   7.163  2.2602 -0.7148 -2.1764
   32MOL   H75324375   2.578   4.441   6.924 -1.4497 -0.8100  0.6374
   32MOL   H75424376   2.732   4.390   6.928 -0.4751 -1.9831 -1.8736
   32MOL   H75524377   2.640   4.142   6.977 -0.7216  0.4568  2.2027
   32MOL   H75624378   2.597   4.292   6.730 -2.1697  0.3587 -0.5017
   32MOL   H75724379   2.496   4.148   6.745 -0.4892  1.0953  0.6975
   32MOL   H75824380   2.964   4.086   6.463 -0.6585 -0.4243  0.4032
   32MOL   H75924381   3.110   3.904   6.411 -2.3243 -0.9523 -1.9264
   32MOL   H76024382   2.940   3.694   6.756  1.5277 -0.5462 -1.0140
   32MOL   H76124383   2.811   3.888   6.814 -0.6180  0.7824 -0.3941
   32MOL   H76224384   3.282   3.605   6.428 -0.6801  0.2847 -0.7830
   33MOL     C124385   1.676   4.585   3.293  1.0060  0.4561 -0.2218
   33MOL     C224386   1.616   4.712   3.357 -0.1664  0.3020 -0.0864
   33MOL     C324387   1.671   4.831   3.289  0.3879 -0.0065 -0.6067
   33MOL     C424388   1.605   4.960   3.346 -0.3548 -0.7288 -0.3071
   33MOL     C524389   1.831   4.831   3.288  0.1614 -0.6780  0.6976
   33MOL     C624390   1.896   4.697   3.244  0.3106  0.2278 -0.3584
   33MOL     C724391   1.828   4.575   3.307  0.2837  0.0697  0.0084
   33MOL     C824392   1.877   4.437   3.266 -0.3757  0.3631  0.5167
   33MOL     O924393   1.863   4.415   3.126 -0.0896 -0.1148 -0.6808
   33MOL    C1024394   1.971   4.391   3.053  0.0840 -0.1270 -0.2334
   33MOL    O1124395   2.077   4.347   3.096 -0.6471  0.2721  0.4448
   33MOL    C1224396   1.938   4.428   2.911 -0.3891  0.1383  0.1295
   33MOL    C1324397   1.823   4.502   2.872  0.3017 -0.4941 -0.5926
   33MOL    C1424398   1.802   4.518   2.733 -0.6737 -0.4171  0.2033
   33MOL    C1524399   1.893   4.483   2.637  0.9623  0.6874 -0.3736
   33MOL    C1624400   1.869   4.506   2.493 -0.3071 -0.5028 -0.4290
   33MOL    O1724401   1.957   4.563   2.424 -0.1656 -0.1609  0.6663
   33MOL    O1824402   1.749   4.462   2.445 -0.0721 -0.5247  0.5032
   33MOL    C1924403   2.024   4.432   2.675  0.2233 -0.1602 -0.7329
   33MOL    C2024404   2.041   4.400   2.811 -0.1633 -0.0470 -0.4041
   33MOL    H2124405   1.651   4.585   3.187 -0.6985 -1.2408  0.1540
   33MOL    H2224406   1.640   4.489   3.329  0.0251  1.4809  1.5335
   33MOL    H2324407   1.640   4.708   3.463 -0.5886 -1.2877 -0.0484
   33MOL    H2424408   1.507   4.710   3.364 -0.0940 -4.5453  0.7407
   33MOL    H2524409   1.651   4.821   3.182 -1.7470  3.7013 -0.6255
   33MOL    H2624410   1.496   4.952   3.353 -0.4618  0.7460 -0.0548
   33MOL    H2724411   1.612   5.057   3.298 -1.3377 -0.5662 -0.1285
   33MOL    H2824412   1.854   4.879   3.383  4.1058 -1.6966  0.3262
   33MOL    H2924413   1.862   4.906   3.215  0.3039 -2.7251 -1.3804
   33MOL    H3024414   1.894   4.693   3.135  1.2226  1.0554 -0.4105
   33MOL    H3124415   2.003   4.709   3.259  0.0365 -0.0991  2.1093
   33MOL    H3224416   1.841   4.578   3.415  0.1128 -1.4753  0.0890
   33MOL    H3324417   1.820   4.360   3.318 -0.8060  1.5366  1.8141
   33MOL    H3424418   1.974   4.408   3.308 -0.0098 -1.3482 -1.4371
   33MOL    H3524419   1.751   4.537   2.944  1.0255 -1.8840  0.8213
   33MOL    H3624420   1.715   4.575   2.702  0.3711 -0.2511 -2.5024
   33MOL    H3724421   2.093   4.399   2.599 -0.0510  0.8405 -1.4307
   33MOL    H3824422   2.138   4.360   2.836 -0.0175  1.6544  1.9777
   33MOL    H3924423   1.648   4.975   3.445 -0.6492  0.5173 -0.3665
   33MOL    C4024424   1.384   4.658   2.185  0.4160 -0.1300 -0.0132
   33MOL    C4124425   1.518   4.585   2.181 -0.3296  0.0724  0.0017
   33MOL    C4224426   1.566   4.556   2.325 -0.4769  0.1572  0.2039
   33MOL    C4324427   1.700   4.490   2.320  0.0778 -0.5593  0.3413
   33MOL    C4424428   1.564   4.684   2.414  0.2019  0.1133  0.3076
   33MOL    C4524429   1.431   4.760   2.410 -0.5278  0.7401 -0.6491
   33MOL    C4624430   1.397   4.789   2.261 -0.0035  0.5450 -0.1721
   33MOL    C4724431   1.273   4.882   2.251  0.1020  0.3930 -0.9586
   33MOL    O4824432   1.152   4.810   2.283 -0.3974 -0.3785  0.1618
   33MOL    C4924433   1.040   4.874   2.263  0.0409 -0.0514 -0.6394
   33MOL    O5024434   1.033   4.994   2.248 -0.0772  0.9792 -0.5794
   33MOL    C5124435   0.921   4.777   2.245  0.0715  0.2524 -1.3439
   33MOL    C5224436   0.933   4.635   2.250  0.0086  0.8795 -0.0459
   33MOL    C5324437   0.821   4.552   2.245 -0.1909 -0.0172  0.1304
   33MOL    C5424438   0.695   4.610   2.237  0.5770  0.1683 -0.3883
   33MOL    C5524439   0.565   4.535   2.249  0.4850  0.3468 -0.0796
   33MOL    O5624440   0.551   4.407   2.233 -0.2434 -0.6272  0.3194
   33MOL    O5724441   0.465   4.613   2.294  0.4651  0.2246  0.2762
   33MOL    C5824442   0.681   4.750   2.228 -0.1166  0.3220 -0.0487
   33MOL    C5924443   0.795   4.834   2.220 -0.4798  0.1052  0.6061
   33MOL    H6024444   1.312   4.591   2.232  1.0769 -0.9070 -0.0808
   33MOL    H6124445   1.358   4.680   2.081 -0.2812 -0.8650 -0.0026
   33MOL    H6224446   1.587   4.650   2.126 -1.0159  0.1320 -0.8059
   33MOL    H6324447   1.506   4.493   2.123 -1.1131 -0.8427  1.6119
   33MOL    H6424448   1.496   4.485   2.369  0.5997 -0.9975  0.0727
   33MOL    H6524449   1.767   4.543   2.253  1.8249 -2.6031  0.4278
   33MOL    H6624450   1.678   4.393   2.276 -2.3969 -0.1244  0.5469
   33MOL    H6724451   1.647   4.753   2.395 -1.2181  2.9299  3.7126
   33MOL    H6824452   1.577   4.660   2.519  1.8089  0.7323  0.2721
   33MOL    H6924453   1.345   4.717   2.460  0.9437  2.0996  3.1891
   33MOL    H7024454   1.451   4.856   2.456 -0.1458  0.0137  0.7055
   33MOL    H7124455   1.479   4.846   2.216  0.6207 -0.0257  0.2493
   33MOL    H7224456   1.264   4.917   2.148  3.0125  0.9643 -1.0490
   33MOL    H7324457   1.287   4.973   2.309  1.2223 -0.5414  0.2587
   33MOL    H7424458   1.025   4.580   2.262 -0.3097  0.6720  1.4393
   33MOL    H7524459   0.838   4.448   2.270 -0.4601 -0.2677 -0.7416
   33MOL    H7624460   0.581   4.790   2.222 -0.2076 -0.1053 -1.6208
   33MOL    H7724461   0.782   4.941   2.215  0.7010  0.3240  1.9738
   33MOL    C7824462   0.088   4.759   2.579  0.3552  0.2911 -0.0311
   33MOL    C7924463   0.130   4.649   2.483 -0.3012  0.2822 -0.1434
   33MOL    C8024464   0.269   4.685   2.424 -0.5487  0.2050 -0.0290
   33MOL    C8124465   0.338   4.571   2.344  0.6324  0.1762 -0.0465
   33MOL    C8224466   0.253   4.814   2.343 -0.6034 -0.6174 -0.2719
   33MOL    C8324467   0.203   4.930   2.428  0.4177  0.0211  0.4189
   33MOL    C8424468   0.071   4.894   2.501 -0.1497 -0.5724 -0.2588
   33MOL    C8524469   0.029   5.012   2.584 -0.1702  0.4117 -0.9771
   33MOL    O8624470   0.078   5.029   2.712 -0.2224 -0.1114 -0.2449
   33MOL    C8724471   0.145   5.139   2.753 -0.0146 -0.2149  0.0691
   33MOL    O8824472   0.181   5.223   2.666 -0.3203  0.6124 -0.3629
   33MOL    C8924473   0.178   5.145   2.901  0.4134  0.3053 -0.2133
   33MOL    C9024474   0.241   5.256   2.958  0.1391  0.8675 -0.2589
   33MOL    C9124475   0.264   5.260   3.097  0.3741 -0.8040 -0.3634
   33MOL    C9224476   0.213   5.153   3.181  0.1102 -0.7404 -0.1117
   33MOL    C9324477   0.218   5.149   3.327 -0.2371 -0.1043  0.0650
   33MOL    O9424478   0.186   5.054   3.402  0.4376  0.6235 -0.0077
   33MOL    O9524479   0.257   5.270   3.371 -0.2155  0.0904  0.3645
   33MOL    C9624480   0.149   5.042   3.121 -0.0805 -0.3591  0.5441
   33MOL    C9724481   0.129   5.042   2.982 -0.1115  0.3089 -0.5197
   33MOL    H9824482   0.154   4.751   2.666  0.1880 -1.6644 -0.0679
   33MOL    H9924483   8.022   4.734   2.620  0.6568 -0.9964 -0.0961
   33MOL   H10024484   0.057   4.642   2.402  0.5323 -1.2181 -0.8047
   33MOL   H10124485   0.123   4.554   2.536 -0.8630  0.3737 -0.0537
   33MOL   H10224486   0.344   4.716   2.497  3.1187 -3.0863 -2.2155
   33MOL   H10324487   0.285   4.530   2.259 -1.3450 -0.4631  1.4534
   33MOL   H10424488   0.352   4.489   2.414  0.1780  0.5479  0.4911
   33MOL   H10524489   0.171   4.803   2.272 -0.2785  3.0556 -1.3422
   33MOL   H10624490   0.339   4.846   2.284 -0.7497  1.2766  0.4854
   33MOL   H10724491   0.269   4.927   2.515  2.8058  2.1709 -1.2349
   33MOL   H10824492   0.198   5.028   2.380  3.3734 -0.0726 -0.2254
   33MOL   H10924493   8.030   4.872   2.423  0.0508 -0.2995 -0.5266
   33MOL   H11024494   7.952   5.015   2.593 -0.0505  0.7558  0.3194
   33MOL   H11124495   0.049   5.101   2.524  1.7976 -0.7621 -2.1328
   33MOL   H11224496   0.263   5.339   2.893 -0.3638  1.9206  0.9029
   33MOL   H11324497   0.308   5.349   3.139 -1.0524 -1.0085  1.5981
   33MOL   H11424498   0.114   4.954   3.172  1.5720 -1.1448  0.3387
   33MOL   H11524499   0.085   4.954   2.937  0.4606 -0.1344 -0.2318
   33MOL   C11624500   0.553   5.220   3.761 -0.0010  0.1613 -0.1058
   33MOL   C11724501   0.413   5.244   3.717 -0.1259 -0.0417 -0.0814
   33MOL   C11824502   0.413   5.275   3.569 -0.0835  0.2321  0.0387
   33MOL   C11924503   0.272   5.294   3.510  0.0180  0.2243 -0.5542
   33MOL   C12024504   0.501   5.397   3.531 -0.0157  0.5151  0.4695
   33MOL   C12124505   0.645   5.358   3.578  0.2873  0.0447 -0.4574
   33MOL   C12224506   0.648   5.332   3.726  0.2706 -0.2528 -0.9646
   33MOL   C12324507   0.794   5.318   3.780  0.1905 -0.0544 -0.0719
   33MOL   O12424508   0.838   5.192   3.730 -0.2827  0.3186 -0.3026
   33MOL   C12524509   0.968   5.192   3.685 -0.9669 -0.8377 -0.1795
   33MOL   O12624510   1.052   5.280   3.722  0.0677  0.2163 -0.0720
   33MOL   C12724511   1.020   5.076   3.605 -0.2324 -0.7216  0.1244
   33MOL   C12824512   1.142   5.087   3.541  0.7394 -0.2569  0.1960
   33MOL   C12924513   1.187   4.989   3.449 -0.7510 -0.4641  0.0932
   33MOL   C13024514   1.113   4.882   3.412  0.2617  0.1779 -1.1674
   33MOL   C13124515   1.159   4.789   3.304 -0.3956  0.1408  0.2859
   33MOL   O13224516   1.255   4.802   3.226  0.1424 -0.2143  0.2055
   33MOL   O13324517   1.066   4.699   3.286 -0.4962 -0.2650 -0.3721
   33MOL   C13424518   0.995   4.866   3.487  0.1556 -0.0645  0.1712
   33MOL   C13524519   0.941   4.964   3.577 -0.0958  0.5864  0.0871
   33MOL   H13624520   0.587   5.127   3.716  3.6782  1.0247  0.7338
   33MOL   H13724521   0.559   5.206   3.869  0.8288  0.9342 -0.0371
   33MOL   H13824522   0.382   5.327   3.781  0.0664  0.3783 -0.5277
   33MOL   H13924523   0.356   5.154   3.743 -0.8425  0.5809  0.5362
   33MOL   H14024524   0.462   5.192   3.518 -0.4405 -1.3910  2.2850
   33MOL   H14124525   0.225   5.390   3.532  2.9264  1.4007  0.7051
   33MOL   H14224526   0.216   5.219   3.566  1.9951 -0.2064  0.8550
   33MOL   H14324527   0.466   5.480   3.593 -0.7533  0.7885 -0.3070
   33MOL   H14424528   0.489   5.414   3.424  0.1215  1.6484  0.6246
   33MOL   H14524529   0.678   5.276   3.514 -0.4967  0.4025 -1.3267
   33MOL   H14624530   0.706   5.443   3.549 -0.7810  2.0097  2.7517
   33MOL   H14724531   0.596   5.414   3.775 -1.7490 -0.3492 -2.8702
   33MOL   H14824532   0.792   5.314   3.889  1.9001  2.1807  0.0930
   33MOL   H14924533   0.847   5.404   3.738 -0.1555  0.6073  0.8329
   33MOL   H15024534   1.201   5.177   3.552  0.5535 -0.0762 -0.2807
   33MOL   H15124535   1.283   4.999   3.400 -0.8288  1.0552  0.2270
   33MOL   H15224536   0.925   4.789   3.458 -0.1098  0.2564 -0.0542
   33MOL   H15324537   0.844   4.953   3.621 -1.0265  0.4194 -1.9563
   33MOL   C15424538   0.869   4.334   3.429 -0.0694  0.2507 -0.3668
   33MOL   C15524539   0.901   4.459   3.338  0.6187  0.1758  0.4660
   33MOL   C15624540   1.050   4.458   3.302  0.3932 -0.3123  0.2413
   33MOL   C15724541   1.095   4.580   3.216  0.0252 -0.3725  0.0527
   33MOL   C15824542   1.135   4.452   3.434  0.1967 -0.3378  0.1470
   33MOL   C15924543   1.100   4.333   3.522  0.5334 -0.1484  0.4953
   33MOL   C16024544   0.953   4.318   3.555  0.5955 -0.0704  0.6910
   33MOL   C16124545   0.925   4.174   3.622  0.0893 -0.2797  0.7270
   33MOL   O16224546   0.959   4.177   3.758  0.5614 -0.0675 -0.4435
   33MOL   C16324547   0.938   4.070   3.844 -1.0064  0.1983 -0.3694
   33MOL   O16424548   0.918   3.959   3.813  0.0262  0.0456  0.1340
   33MOL   C16524549   0.956   4.102   3.985  0.4851  0.5178 -0.3136
   33MOL   C16624550   0.929   3.997   4.073 -0.0358 -0.0009  1.6999
   33MOL   C16724551   0.955   4.010   4.207 -0.7067  0.0822 -0.2570
   33MOL   C16824552   1.001   4.131   4.258 -0.7468 -0.8261  0.1114
   33MOL   C16924553   1.034   4.149   4.398 -0.1471 -0.5475 -0.4894
   33MOL   O17024554   1.079   4.259   4.432  0.3678  0.2914  0.4264
   33MOL   O17124555   1.008   4.046   4.476 -0.0129 -0.0950  0.1413
   33MOL   C17224556   1.026   4.240   4.173  0.3148 -1.0216 -0.2696
   33MOL   C17324557   1.006   4.222   4.035 -1.2898  0.1575 -0.7314
   33MOL   H17424558   0.879   4.250   3.361 -2.1077  0.2233 -0.6551
   33MOL   H17524559   0.762   4.345   3.445 -0.0729 -1.5205  0.9646
   33MOL   H17624560   0.883   4.555   3.387  0.4704  1.2390 -1.6187
   33MOL   H17724561   0.837   4.452   3.250  0.8192 -0.0214  0.3355
   33MOL   H17824562   1.062   4.364   3.248 -0.3760  0.5071 -1.4123
   33MOL   H17924563   1.037   4.583   3.123  2.4892 -0.1393 -1.5281
   33MOL   H18024564   1.202   4.575   3.196  0.0847  2.4404 -0.6248
   33MOL   H18124565   1.133   4.547   3.488  2.5140 -1.1038  1.6503
   33MOL   H18224566   1.242   4.445   3.412  0.0035  1.9554 -1.7123
   33MOL   H18324567   1.135   4.237   3.484  0.8637 -1.4542  3.9731
   33MOL   H18424568   1.152   4.340   3.618 -0.9216  0.1289  1.2703
   33MOL   H18524569   0.936   4.407   3.616 -0.3023 -0.2837  0.7646
   33MOL   H18624570   0.985   4.103   3.565 -1.6923 -1.3016  0.0944
   33MOL   H18724571   0.821   4.144   3.613 -0.4649  0.8522  2.9753
   33MOL   H18824572   0.883   3.904   4.043 -0.2378  0.6136 -0.0008
   33MOL   H18924573   0.956   3.916   4.261 -1.2478  0.7296  0.9111
   33MOL   H19024574   1.061   4.335   4.211 -2.5200  0.2818 -0.8152
   33MOL   H19124575   1.024   4.301   3.964 -3.9157  0.6722 -0.8822
   33MOL   C19224576   1.156   3.655   4.582  0.4516 -0.3170  0.3119
   33MOL   C19324577   1.144   3.806   4.553 -0.2650 -0.3772 -0.5543
   33MOL   C19424578   1.062   3.887   4.653  0.0206 -0.0557  0.6577
   33MOL   C19524579   1.051   4.037   4.605 -0.1816 -0.2358  0.1345
   33MOL   C19624580   0.923   3.815   4.667 -0.0032 -0.2715 -0.3440
   33MOL   C19724581   0.931   3.669   4.704  0.2383  0.1410  0.0475
   33MOL   C19824582   1.015   3.587   4.606  0.4377  0.1127 -0.0102
   33MOL   C19924583   1.037   3.454   4.663  0.4241  0.3787  0.3996
   33MOL   O20024584   1.015   3.356   4.563 -0.1950  0.4700 -0.1314
   33MOL   C20124585   0.962   3.225   4.601  0.1851  0.7732  0.0810
   33MOL   O20224586   0.945   3.184   4.716 -0.5848 -0.6070  0.5827
   33MOL   C20324587   0.936   3.130   4.480 -0.3061  0.9208  0.3552
   33MOL   C20424588   0.931   2.986   4.494 -0.8686  0.1425 -0.3778
   33MOL   C20524589   0.910   2.908   4.374 -0.6835 -0.5806 -0.0063
   33MOL   C20624590   0.883   2.969   4.248 -0.6481 -0.2094 -0.2685
   33MOL   C20724591   0.863   2.891   4.119  0.5259  0.3455  0.1800
   33MOL   O20824592   0.885   2.770   4.099 -0.6134 -0.4628 -0.0505
   33MOL   O20924593   0.830   2.974   4.021  0.0077 -0.4786 -0.1735
   33MOL   C21024594   0.893   3.110   4.242 -0.3859 -0.0923 -0.3552
   33MOL   C21124595   0.927   3.189   4.352 -0.3323 -0.3384  0.5503
   33MOL   H21224596   1.228   3.637   4.662  1.3505 -2.0982 -0.8544
   33MOL   H21324597   1.194   3.614   4.488 -1.3549 -3.5944  0.9396
   33MOL   H21424598   1.110   3.811   4.449  0.2319 -0.1539 -0.7054
   33MOL   H21524599   1.247   3.837   4.536 -0.3333  0.0155 -0.2442
   33MOL   H21624600   1.111   3.888   4.750  2.1179  0.8708 -0.3784
   33MOL   H21724601   1.146   4.089   4.616 -0.2692  0.1496 -0.8762
   33MOL   H21824602   0.971   4.082   4.663 -1.6515 -1.9595 -0.4946
   33MOL   H21924603   0.870   3.826   4.572 -3.7643 -0.0032  1.6913
   33MOL   H22024604   0.863   3.872   4.738  0.6035  2.5965 -2.0427
   33MOL   H22124605   0.961   3.657   4.808 -0.9051  1.4221  0.5319
   33MOL   H22224606   0.829   3.632   4.703 -0.0638  0.8123  2.7699
   33MOL   H22324607   0.948   3.580   4.520 -0.7293 -1.5369  0.9837
   33MOL   H22424608   0.953   3.444   4.732  0.7402  0.4985  0.8006
   33MOL   H22524609   1.135   3.438   4.708  0.3349 -1.9362 -0.1845
   33MOL   H22624610   0.942   2.934   4.588  3.2397  0.9855 -0.2909
   33MOL   H22724611   0.910   2.801   4.376 -1.8669 -0.5520  3.3054
   33MOL   H22824612   0.877   3.165   4.150  0.7598  0.7078 -0.0877
   33MOL   H22924613   0.917   3.296   4.343  1.1380  0.2499  4.7595
   33MOL   C23024614   0.484   2.849   3.679  0.1609  0.4807  0.7286
   33MOL   C23124615   0.633   2.864   3.712  0.4113 -0.4071  0.1923
   33MOL   C23224616   0.655   2.931   3.849  0.4895  0.9265 -0.3783
   33MOL   C23324617   0.808   2.938   3.887  0.0416  0.1581 -0.3863
   33MOL   C23424618   0.583   3.067   3.860 -0.9414 -1.0195 -0.7235
   33MOL   C23524619   0.434   3.055   3.823 -0.0022 -0.1066 -0.0530
   33MOL   C23624620   0.407   2.988   3.689  0.1331 -0.5787  0.4137
   33MOL   C23724621   0.253   2.966   3.671 -0.1010  0.1091  0.4955
   33MOL   O23824622   0.192   3.092   3.674  0.1138  0.0971 -0.1805
   33MOL   C23924623   0.138   3.139   3.569 -0.0911  0.4207  0.6602
   33MOL   O24024624   0.140   3.082   3.460  0.2334  0.0246  0.5182
   33MOL   C24124625   0.083   3.274   3.589  0.0383 -0.7614 -0.1661
   33MOL   C24224626   0.074   3.340   3.717 -0.3382 -0.2407  0.6871
   33MOL   C24324627   0.020   3.469   3.731 -0.8880 -0.0613  0.6522
   33MOL   C24424628   8.006   3.544   3.621  0.1066  0.0981  0.2669
   33MOL   C24524629   7.943   3.673   3.637 -0.2521 -0.1444  0.4660
   33MOL   O24624630   7.942   3.731   3.747 -0.2452  0.1992  0.3907
   33MOL   O24724631   7.908   3.726   3.513  0.0241 -0.0828 -0.6726
   33MOL   C24824632   8.017   3.480   3.493  0.8927 -0.1772  0.4072
   33MOL   C24924633   0.039   3.349   3.479  0.5286  0.0656 -0.0971
   33MOL   H25024634   0.444   2.776   3.750 -1.6805  0.2829 -0.4644
   33MOL   H25124635   0.457   2.811   3.580  2.1560 -1.1659  0.8013
   33MOL   H25224636   0.679   2.916   3.629  1.7196 -0.0736  1.1204
   33MOL   H25324637   0.671   2.761   3.715  0.1302 -0.5753 -1.5325
   33MOL   H25424638   0.615   2.861   3.922  1.4752  2.9224  2.1461
   33MOL   H25524639   0.860   3.013   3.827 -1.4509  1.7968  0.3113
   33MOL   H25624640   0.852   2.842   3.864 -1.3995 -0.2223 -1.6603
   33MOL   H25724641   0.630   3.132   3.786 -1.6743  0.4616  0.0922
   33MOL   H25824642   0.595   3.128   3.950  0.2061  0.6758 -1.9915
   33MOL   H25924643   0.388   3.015   3.914 -0.2832  1.6317  0.5936
   33MOL   H26024644   0.408   3.161   3.821 -0.5696 -0.2611 -2.0014
   33MOL   H26124645   0.438   3.060   3.613 -2.5846  0.0135 -0.1750
   33MOL   H26224646   0.217   2.898   3.748 -0.1571 -1.0935 -0.5786
   33MOL   H26324647   0.228   2.911   3.580 -0.0195  1.6996 -0.5032
   33MOL   H26424648   0.099   3.289   3.809 -1.3189 -2.0370 -0.0272
   33MOL   H26524649   0.023   3.497   3.835 -1.0387 -1.6176  1.0897
   33MOL   H26624650   7.985   3.534   3.405 -0.1332 -0.7220  0.4408
   33MOL   H26724651   0.043   3.302   3.382 -1.2896  2.2309 -1.2702
   33MOL   C26824652   7.945   3.891   3.115 -0.5329 -0.3250  1.0345
   33MOL   C26924653   7.887   3.850   3.250 -0.6051 -0.3775 -0.7866
   33MOL   C27024654   7.952   3.918   3.365 -0.4014 -0.2090 -0.3696
   33MOL   C27124655   7.890   3.866   3.496  0.6339  0.6801 -1.0950
   33MOL   C27224656   0.082   3.916   3.367  0.1263  0.8146  0.0080
   33MOL   C27324657   0.134   3.957   3.221 -0.2637  0.0394 -0.4927
   33MOL   C27424658   0.071   3.865   3.117 -0.1428 -0.2734 -0.4489
   33MOL   C27524659   0.132   3.885   2.981  0.0349 -0.4208 -0.2322
   33MOL   O27624660   0.062   3.812   2.889  0.7040  0.1334  0.0112
   33MOL   C27724661   0.126   3.779   2.773 -0.2618  0.1289  0.8029
   33MOL   O27824662   0.238   3.826   2.746  0.7304  0.1386 -0.6352
   33MOL   C27924663   0.032   3.693   2.688 -0.0157 -0.6932 -0.0471
   33MOL   C28024664   0.080   3.642   2.569  0.0929 -0.2864  0.3746
   33MOL   C28124665   0.006   3.548   2.498  0.2291 -0.2005 -0.0886
   33MOL   C28224666   7.908   3.504   2.538 -0.0197 -0.3190  0.2381
   33MOL   C28324667   7.831   3.405   2.447 -0.1817  0.4292 -0.3206
   33MOL   O28424668   7.887   3.332   2.363 -0.0521 -0.4808  0.2634
   33MOL   O28524669   7.698   3.417   2.456  0.5643 -0.2224 -0.2101
   33MOL   C28624670   7.860   3.566   2.654 -0.3041 -1.1407 -0.3327
   33MOL   C28724671   7.938   3.652   2.737  0.3289 -0.3987  0.1302
   33MOL   H28824672   7.926   3.995   3.090  0.1645 -0.6264 -0.8834
   33MOL   H28924673   7.896   3.832   3.038 -2.5609 -1.2687  2.9806
   33MOL   H29024674   7.883   3.741   3.258 -3.6754 -0.3800 -1.4395
   33MOL   H29124675   7.781   3.878   3.256 -0.2776  0.9966 -1.2710
   33MOL   H29224676   7.928   4.023   3.353 -0.1377  0.0496  1.1914
   33MOL   H29324677   7.785   3.893   3.509  1.0316  1.2099  1.3726
   33MOL   H29424678   7.920   3.921   3.586  0.7133 -0.3528 -0.4824
   33MOL   H29524679   0.111   3.816   3.398  0.3819  1.5449  2.1738
   33MOL   H29624680   0.125   3.979   3.445 -1.0445  0.9733  0.5280
   33MOL   H29724681   0.117   4.063   3.206  1.3719  0.1418 -1.7701
   33MOL   H29824682   0.243   3.953   3.227 -0.2787 -0.9306 -0.7413
   33MOL   H29924683   0.078   3.762   3.153  1.2495  0.1813  0.6237
   33MOL   H30024684   0.236   3.856   2.982  1.0974  3.0950  1.3720
   33MOL   H30124685   0.143   3.990   2.951  0.3613 -0.1288  0.8951
   33MOL   H30224686   0.180   3.666   2.535 -0.0568 -2.9084 -2.1443
   33MOL   H30324687   0.043   3.525   2.399  1.8839 -3.1417  1.1507
   33MOL   H30424688   7.769   3.532   2.701 -2.1845  2.3637 -1.2891
   33MOL   H30524689   7.890   3.677   2.830  0.5393  1.3988 -0.2421
   33MOL   C30624690   7.589   2.994   2.569  0.3898  0.7326  0.2713
   33MOL   C30724691   7.649   3.115   2.490  0.2087  0.4237 -0.2011
   33MOL   C30824692   7.555   3.229   2.480  0.3212 -0.8154 -0.8789
   33MOL   C30924693   7.609   3.340   2.384  0.4033 -0.8401 -0.2942
   33MOL   C31024694   7.411   3.191   2.435 -0.0701  0.1956  1.0683
   33MOL   C31124695   7.351   3.085   2.533 -0.0018  0.3456  0.3601
   33MOL   C31224696   7.444   2.960   2.534  1.0365 -0.0487 -0.1994
   33MOL   C31324697   7.402   2.850   2.631  0.5509  0.1648  0.2254
   33MOL   O31424698   7.409   2.897   2.765 -0.2565  0.0059  0.4085
   33MOL   C31524699   7.317   2.875   2.854 -0.3526 -0.3138  0.0108
   33MOL   O31624700   7.238   2.784   2.835 -0.2598 -0.1207 -0.5550
   33MOL   C31724701   7.333   2.958   2.974  0.6955 -0.1136 -0.1761
   33MOL   C31824702   7.231   2.976   3.074  0.0134 -0.5154  0.6362
   33MOL   C31924703   7.251   3.048   3.195 -0.0224 -0.3282  0.8238
   33MOL   C32024704   7.375   3.113   3.216  0.4176 -0.6141 -0.1289
   33MOL   C32124705   7.400   3.183   3.349 -0.4300 -0.3659  0.7604
   33MOL   O32224706   7.311   3.207   3.429 -0.0397  0.4387 -0.2425
   33MOL   O32324707   7.528   3.214   3.377 -0.1868 -0.1364  0.2263
   33MOL   C32424708   7.477   3.107   3.116 -0.2351  0.4867  0.0385
   33MOL   C32524709   7.453   3.030   3.001  0.5994 -0.5688 -0.3921
   33MOL   H32624710   7.590   3.015   2.676 -3.2769 -1.5043  0.8225
   33MOL   H32724711   7.651   2.905   2.560 -2.5105 -1.6318  2.6459
   33MOL   H32824712   7.683   3.069   2.397 -1.3444  1.6011 -1.3805
   33MOL   H32924713   7.742   3.147   2.536 -0.4095  1.6995  0.1882
   33MOL   H33024714   7.528   3.274   2.575  0.2295  0.2983 -1.4158
   33MOL   H33124715   7.526   3.403   2.351 -0.4668 -2.4174 -1.1858
   33MOL   H33224716   7.650   3.300   2.291  0.4103 -1.0983 -0.1786
   33MOL   H33324717   7.413   3.165   2.329  0.9028  1.1079  0.8546
   33MOL   H33424718   7.349   3.281   2.430 -0.7536 -0.3571 -0.7544
   33MOL   H33524719   7.331   3.119   2.635 -2.1627 -1.1291  0.4813
   33MOL   H33624720   7.253   3.066   2.488  0.7696 -2.2162 -0.3231
   33MOL   H33724721   7.456   2.914   2.436 -1.2375 -1.2449  0.0708
   33MOL   H33824722   7.458   2.756   2.629 -1.3622 -1.1462  3.5908
   33MOL   H33924723   7.300   2.826   2.601  1.2333 -0.1494 -1.8682
   33MOL   H34024724   7.139   2.919   3.072  0.2881 -0.9834  1.4447
   33MOL   H34124725   7.171   3.056   3.267  0.1022 -2.1230  1.1962
   33MOL   H34224726   7.573   3.153   3.133  0.2026 -0.7520  1.0128
   33MOL   H34324727   7.536   3.026   2.931  0.4718  0.8658 -0.6472
   33MOL   C34424728   7.619   2.910   3.687 -0.2967  0.6968 -0.3450
   33MOL   C34524729   7.542   3.035   3.646  0.2359  0.4384 -0.5122
   33MOL   C34624730   7.648   3.129   3.576  0.0765  0.1359 -0.5808
   33MOL   C34724731   7.578   3.252   3.511  0.0725 -0.9407 -0.0557
   33MOL   C34824732   7.769   3.164   3.670  0.1728 -0.0775  0.3725
   33MOL   C34924733   7.837   3.040   3.723 -0.4867 -0.5361 -0.4330
   33MOL   C35024734   7.743   2.935   3.783  0.0792 -0.4578 -0.1027
   33MOL   C35124735   7.806   2.801   3.834  0.2366  0.0688 -0.2472
   33MOL   O35224736   7.907   2.830   3.928  0.3164 -0.3552  0.0130
   33MOL   C35324737   7.999   2.741   3.962  0.1452 -0.0169  0.3050
   33MOL   O35424738   7.991   2.621   3.947 -0.2005  0.4927 -0.1098
   33MOL   C35524739   0.090   2.804   4.027  0.7051  0.0588 -0.4636
   33MOL   C35624740   0.184   2.714   4.077 -0.1429 -0.0144 -0.6552
   33MOL   C35724741   0.304   2.757   4.143  0.7892 -0.4971 -0.1284
   33MOL   C35824742   0.330   2.892   4.158  0.4986 -0.0266 -0.3426
   33MOL   C35924743   0.446   2.940   4.240 -0.0177  0.0742  0.0691
   33MOL   O36024744   0.519   2.865   4.310 -0.4751  0.2096 -0.0845
   33MOL   O36124745   0.458   3.073   4.248  0.3473 -0.1762  0.5598
   33MOL   C36224746   0.236   2.983   4.101 -0.1548 -0.7947  0.2134
   33MOL   C36324747   0.118   2.943   4.041 -0.0875  0.4872 -0.3815
   33MOL   H36424748   7.644   2.848   3.601  1.2663  0.0624  0.5434
   33MOL   H36524749   7.548   2.840   3.730 -1.4470  0.6802 -2.1855
   33MOL   H36624750   7.501   3.072   3.739  0.6552 -2.1806  0.7505
   33MOL   H36724751   7.463   3.002   3.578 -0.7043 -0.0863  0.8153
   33MOL   H36824752   7.690   3.075   3.490  0.5911  1.6675 -1.3027
   33MOL   H36924753   7.649   3.331   3.486  0.3943 -0.8651  1.0652
   33MOL   H37024754   7.504   3.292   3.581 -0.5724  1.5603 -2.0912
   33MOL   H37124755   7.729   3.224   3.752 -0.3097 -0.0186  0.0989
   33MOL   H37224756   7.837   3.229   3.615  0.1093 -1.9864 -2.0084
   33MOL   H37324757   7.894   2.990   3.645  1.4937  1.0411 -0.0469
   33MOL   H37424758   7.907   3.079   3.798 -3.4517 -1.9459  3.2322
   33MOL   H37524759   7.711   2.977   3.878 -1.0409  1.3438 -1.2444
   33MOL   H37624760   7.841   2.748   3.746 -1.2417 -2.0545  0.3958
   33MOL   H37724761   7.730   2.737   3.881 -1.8891  0.1599 -3.3691
   33MOL   H37824762   0.166   2.608   4.068  0.0874 -0.2323  1.1127
   33MOL   H37924763   0.360   2.682   4.196  1.8825 -0.5659 -1.3585
   33MOL   H38024764   0.255   3.088   4.119  0.1992 -1.2205  2.4933
   33MOL   H38124765   0.047   3.012   3.997 -0.2369 -0.3729 -1.5302
   33MOL   C38224766   0.444   3.483   4.495 -0.6002  0.1252  0.4656
   33MOL   C38324767   0.467   3.374   4.383 -1.2599 -0.7885 -0.6166
   33MOL   C38424768   0.513   3.236   4.427 -0.2796  0.5236  0.3735
   33MOL   C38524769   0.567   3.140   4.314 -0.3125 -0.0004 -0.4121
   33MOL   C38624770   0.617   3.252   4.531 -0.8409 -0.5329 -0.1143
   33MOL   C38724771   0.582   3.347   4.644  0.0324 -0.2914  0.9834
   33MOL   C38824772   0.564   3.486   4.593  0.2107 -0.2305 -0.7315
   33MOL   C38924773   0.546   3.580   4.711  0.2005 -0.5113 -0.1455
   33MOL   O39024774   0.554   3.713   4.672  0.4693 -0.3974  1.0249
   33MOL   C39124775   0.450   3.790   4.689  0.4491  0.4519 -0.3505
   33MOL   O39224776   0.339   3.758   4.738 -0.0834  0.2170 -0.2781
   33MOL   C39324777   0.480   3.925   4.661 -0.2858  0.0454  0.0443
   33MOL   C39424778   0.586   3.955   4.574  0.0050  0.0161  0.4378
   33MOL   C39524779   0.617   4.083   4.536 -0.0003  0.3954  0.1348
   33MOL   C39624780   0.533   4.191   4.564 -0.0502  0.5049 -0.3019
   33MOL   C39724781   0.565   4.325   4.501  0.1132  0.4526  0.7695
   33MOL   O39824782   0.638   4.338   4.407  0.8419  0.4343  0.0980
   33MOL   O39924783   0.502   4.424   4.558 -0.7791  1.1197  0.0912
   33MOL   C40024784   0.430   4.165   4.649  0.4593 -0.3266 -0.3764
   33MOL   C40124785   0.400   4.037   4.701 -0.5222  0.4438  0.6529
   33MOL   H40224786   0.355   3.452   4.551 -1.0391  0.1650 -0.2018
   33MOL   H40324787   0.427   3.579   4.448  1.8359  0.2099 -0.2831
   33MOL   H40424788   0.545   3.407   4.314 -0.4683  0.1598  0.7114
   33MOL   H40524789   0.380   3.384   4.319 -1.8563 -0.1705  0.2788
   33MOL   H40624790   0.428   3.184   4.473  0.8962 -1.2814  0.5324
   33MOL   H40724791   0.619   3.059   4.366  0.4985  0.6067 -0.2752
   33MOL   H40824792   0.621   3.200   4.242 -0.1831 -1.5809 -1.6602
   33MOL   H40924793   0.715   3.282   4.493 -1.2414 -0.1909 -0.8924
   33MOL   H41024794   0.630   3.153   4.575  0.8192 -0.7701 -1.0892
   33MOL   H41124795   0.495   3.312   4.698 -0.0525 -0.0501  1.0044
   33MOL   H41224796   0.659   3.352   4.721  0.0596 -0.6296  0.9773
   33MOL   H41324797   0.653   3.517   4.539  0.1771 -1.4928 -1.5479
   33MOL   H41424798   0.628   3.578   4.782 -0.5478  3.5655  0.9749
   33MOL   H41524799   0.459   3.554   4.771  0.8181  0.1569  1.0363
   33MOL   H41624800   0.653   3.882   4.531  0.3879 -0.0437  1.1273
   33MOL   H41724801   0.704   4.097   4.474 -0.7678 -1.0784 -1.2924
   33MOL   H41824802   0.359   4.245   4.666 -0.2389 -1.0880  0.3800
   33MOL   H41924803   0.313   4.026   4.765 -0.4959  1.3128  0.8429
   33MOL   C42024804   0.366   4.898   4.621 -0.1570 -0.0767  0.0301
   33MOL   C42124805   0.448   4.802   4.536 -0.0838  0.0358 -0.1277
   33MOL   C42224806   0.466   4.658   4.598 -0.0301 -0.9445 -0.0143
   33MOL   C42324807   0.537   4.557   4.515 -0.5124 -0.4658  1.2181
   33MOL   C42424808   0.525   4.662   4.741  0.5584 -0.3185 -0.5085
   33MOL   C42524809   0.437   4.763   4.824  0.1162  0.7600 -0.1348
   33MOL   C42624810   0.434   4.904   4.759 -0.3068  0.3653  1.0776
   33MOL   C42724811   0.368   4.999   4.853 -0.1413 -0.4552 -0.2015
   33MOL   O42824812   0.430   4.987   4.977 -0.3952 -0.6237 -0.8596
   33MOL   C42924813   0.419   5.085   5.067 -0.2836 -0.1958 -0.3243
   33MOL   O43024814   0.345   5.181   5.063 -0.1993  0.0613  0.2874
   33MOL   C43124815   0.497   5.057   5.192  1.0608 -0.4337  0.3094
   33MOL   C43224816   0.560   4.937   5.219  0.0697 -0.4118  0.0079
   33MOL   C43324817   0.633   4.914   5.342 -0.0783 -0.0475  0.4220
   33MOL   C43424818   0.638   5.020   5.438 -0.2944 -0.7000 -0.9710
   33MOL   C43524819   0.705   4.989   5.566 -0.4996  0.9057 -0.2553
   33MOL   O43624820   0.732   4.870   5.604  0.4359 -0.0931 -0.1315
   33MOL   O43724821   0.707   5.100   5.639  0.5119 -0.3411 -0.8530
   33MOL   C43824822   0.578   5.146   5.411  0.0101  0.0263 -0.2653
   33MOL   C43924823   0.521   5.169   5.283  0.0087  0.1623  0.4071
   33MOL   H44024824   0.262   4.865   4.622  0.4290 -2.1160 -1.4305
   33MOL   H44124825   0.368   4.997   4.575  0.5603  0.4387  1.1580
   33MOL   H44224826   0.542   4.851   4.512 -0.7976  0.7556 -1.5346
   33MOL   H44324827   0.406   4.802   4.435  0.6582  2.2289 -0.4635
   33MOL   H44424828   0.363   4.624   4.607 -0.4219 -0.3757 -1.9228
   33MOL   H44524829   0.646   4.562   4.516 -0.5425  2.5433 -1.7377
   33MOL   H44624830   0.506   4.575   4.412 -0.0786  1.1643  1.3504
   33MOL   H44724831   0.631   4.683   4.751  0.4823 -0.8413  1.7923
   33MOL   H44824832   0.501   4.563   4.780 -0.8145  0.6922  1.2909
   33MOL   H44924833   0.335   4.734   4.848 -0.3035  1.3596 -1.1730
   33MOL   H45024834   0.494   4.762   4.917 -0.4671 -3.5876  0.2804
   33MOL   H45124835   0.540   4.924   4.743  0.0722 -2.1779  0.1846
   33MOL   H45224836   0.263   4.981   4.874 -0.3806  0.0179 -0.9746
   33MOL   H45324837   0.373   5.097   4.805  0.2968  1.0456  2.7913
   33MOL   H45424838   0.550   4.856   5.148 -0.8521  0.3658 -0.7684
   33MOL   H45524839   0.691   4.826   5.361  1.6860  0.6604 -1.5247
   33MOL   H45624840   0.558   5.226   5.481  0.3989  2.7977 -3.2055
   33MOL   H45724841   0.485   5.268   5.261  3.0158  0.2591 -5.0516
   33MOL   C45824842   0.903   5.339   6.023  0.0865  0.2512 -0.5227
   33MOL   C45924843   0.845   5.208   5.968 -0.2844  0.0230  0.0156
   33MOL   C46024844   0.787   5.230   5.827  0.5541 -0.4591  0.2686
   33MOL   C46124845   0.728   5.090   5.777 -0.6026 -0.1931 -0.8414
   33MOL   C46224846   0.695   5.352   5.812  0.4533  0.0201 -0.1343
   33MOL   C46324847   0.759   5.475   5.875  0.1049  0.1123  0.0067
   33MOL   C46424848   0.802   5.461   6.018 -0.0530 -0.1245 -0.8243
   33MOL   C46524849   0.857   5.587   6.085  0.2563 -0.3521  0.0376
   33MOL   O46624850   0.750   5.680   6.090  0.1711 -0.2677  0.1752
   33MOL   C46724851   0.776   5.798   6.151  1.4172  0.0533 -0.3376
   33MOL   O46824852   0.883   5.837   6.193  0.0667 -0.0671 -0.0033
   33MOL   C46924853   0.654   5.878   6.175  0.3720 -0.3440 -0.0308
   33MOL   C47024854   0.649   6.010   6.230 -0.4188 -0.2692 -0.5794
   33MOL   C47124855   0.527   6.080   6.252  0.5008  0.1980  0.4842
   33MOL   C47224856   0.407   6.029   6.208 -0.3067 -0.0274  0.0727
   33MOL   C47324857   0.283   6.107   6.218 -0.1253  0.7308 -0.1066
   33MOL   O47424858   0.173   6.067   6.174 -0.0513 -0.2179  0.5814
   33MOL   O47524859   0.299   6.227   6.287  0.6163  0.4272  0.2268
   33MOL   C47624860   0.403   5.901   6.145  0.2647  0.2489  0.5268
   33MOL   C47724861   0.527   5.829   6.129  0.0890  0.5425  0.3096
   33MOL   H47824862   1.001   5.370   5.987 -0.6211  3.6180  0.2862
   33MOL   H47924863   0.925   5.321   6.128 -1.2919  1.4657 -0.0046
   33MOL   H48024864   0.767   5.170   6.034 -1.2932 -0.4281 -1.3921
   33MOL   H48124865   0.920   5.129   5.968  1.0485  1.2687  1.7850
   33MOL   H48224866   0.874   5.251   5.765  0.4512 -0.1766  0.2194
   33MOL   H48324867   0.636   5.065   5.829  0.7852 -2.1832  0.8095
   33MOL   H48424868   0.798   5.010   5.804 -1.6969 -0.8393  0.1432
   33MOL   H48524869   0.597   5.329   5.855  0.1654  1.5545  0.0667
   33MOL   H48624870   0.678   5.366   5.706  0.3934  0.1221 -0.1112
   33MOL   H48724871   0.845   5.499   5.813  0.2280  1.1173  0.5547
   33MOL   H48824872   0.699   5.566   5.870 -1.2671 -0.7541  0.4991
   33MOL   H48924873   0.714   5.432   6.074  0.7067  0.5768  0.7686
   33MOL   H49024874   0.947   5.628   6.041 -1.6074  1.6593 -2.0498
   33MOL   H49124875   0.880   5.571   6.190  1.8476 -0.3988 -0.3120
   33MOL   H49224876   0.743   6.043   6.272  0.9694 -0.1612 -3.6290
   33MOL   H49324877   0.521   6.177   6.298  2.9355  0.5585  0.0796
   33MOL   H49424878   0.306   5.859   6.126  0.2269  1.2016 -1.5375
   33MOL   H49524879   0.529   5.727   6.094 -0.5238  1.6311 -3.1127
   33MOL   C49624880   0.158   6.666   6.480  0.0700 -1.1654  0.3134
   33MOL   C49724881   0.138   6.511   6.463  0.7770 -0.2157 -0.5726
   33MOL   C49824882   0.205   6.453   6.335 -0.1283  0.6846 -0.6393
   33MOL   C49924883   0.186   6.301   6.319  0.4976 -0.2416 -0.2076
   33MOL   C50024884   0.147   6.524   6.215  0.1382  0.0374 -0.3103
   33MOL   C50124885   0.150   6.683   6.230 -0.0546  0.0854  0.2035
   33MOL   C50224886   0.097   6.742   6.362  0.0698  0.4242 -0.3514
   33MOL   C50324887   0.106   6.898   6.356  0.2589  0.6383 -0.7127
   33MOL   O50424888   0.240   6.941   6.386  0.0226  0.4983  0.4975
   33MOL   C50524889   0.269   7.001   6.503 -0.5679 -0.0481  0.0936
   33MOL   O50624890   0.186   7.004   6.591 -0.5911  0.0033  0.1097
   33MOL   C50724891   0.403   7.066   6.510 -0.3993  0.5099 -0.8273
   33MOL   C50824892   0.482   7.071   6.396 -0.1213 -0.0066  0.1935
   33MOL   C50924893   0.618   7.112   6.407  0.2829  0.5235 -0.6471
   33MOL   C51024894   0.661   7.162   6.530 -0.2301  0.2734 -0.0822
   33MOL   C51124895   0.803   7.205   6.529 -0.0833  0.8151  0.3090
   33MOL   O51224896   0.885   7.163   6.443  0.4773 -0.1497 -0.0960
   33MOL   O51324897   0.841   7.281   6.631  0.2517  0.1151  0.3024
   33MOL   C51424898   0.581   7.166   6.643  0.6837  0.3211 -0.4242
   33MOL   C51524899   0.450   7.112   6.634 -0.2698  0.1392 -0.4867
   33MOL   H51624900   0.264   6.690   6.486  0.3032 -1.4585 -2.0898
   33MOL   H51724901   0.118   6.700   6.576 -1.7564 -0.6747 -0.5956
   33MOL   H51824902   0.031   6.499   6.447  0.8819 -0.4248 -1.1412
   33MOL   H51924903   0.172   6.452   6.548  1.2566 -0.7465 -1.1237
   33MOL   H52024904   0.312   6.466   6.349 -0.3416  1.4398  0.3525
   33MOL   H52124905   0.103   6.279   6.253  0.6010  0.1466 -0.4662
   33MOL   H52224906   0.159   6.261   6.417  1.4248  1.3721  0.7311
   33MOL   H52324907   0.045   6.489   6.197 -0.1164 -0.7067  2.2463
   33MOL   H52424908   0.199   6.491   6.126 -1.0891 -1.0765 -0.6276
   33MOL   H52524909   0.257   6.705   6.224 -0.1340  0.5081  0.3162
   33MOL   H52624910   0.111   6.729   6.139 -0.2334 -0.9830 -0.2596
   33MOL   H52724911   8.029   6.700   6.368 -0.0464  0.5929 -1.0529
   33MOL   H52824912   0.033   6.945   6.422  1.3710 -0.0667  1.0691
   33MOL   H52924913   0.083   6.940   6.258  1.2512  0.8746 -0.8502
   33MOL   H53024914   0.444   7.036   6.301 -1.5131  0.7779  0.4416
   33MOL   H53124915   0.680   7.108   6.319  0.0823  1.8940 -0.8696
   33MOL   H53224916   0.621   7.205   6.735 -1.5161  2.4940 -0.3449
   33MOL   H53324917   0.397   7.096   6.727 -1.2645 -0.4218 -1.1479
   33MOL   C53424918   1.128   7.658   6.800  0.1490 -0.3011  0.2101
   33MOL   C53524919   1.098   7.554   6.687 -0.4767  0.1523  0.1262
   33MOL   C53624920   0.987   7.447   6.733 -0.2827  0.0067  0.1046
   33MOL   C53724921   0.970   7.344   6.622  0.3724  0.2607 -0.2189
   33MOL   C53824922   1.022   7.389   6.869 -0.1148 -0.2379 -0.0219
   33MOL   C53924923   1.053   7.503   6.974  0.3942  1.5844 -0.5144
   33MOL   C54024924   1.172   7.599   6.937 -0.5104 -0.1404 -0.8763
   33MOL   C54124925   1.189   7.709   7.039  0.1314 -0.0759 -0.3212
   33MOL   O54224926   1.319   7.768   7.006  0.3158  0.2088  0.2871
   33MOL   C54324927   1.341   7.893   7.038  0.7040 -0.5392  0.2160
   33MOL   O54424928   1.266   7.954   7.119  0.8780 -0.3924  0.4603
   33MOL   C54524929   1.465   7.954   6.987  0.7126 -0.6491 -0.2107
   33MOL   C54624930   1.546   7.881   6.896  0.4272 -0.2385  0.1774
   33MOL   C54724931   1.669   7.933   6.856 -0.0943 -0.5335  0.8769
   33MOL   C54824932   1.704   0.033   6.892  0.3599  0.2570 -0.4431
   33MOL   C54924933   1.822   0.093   6.828  0.0676  0.1150  0.2999
   33MOL   O55024934   1.908   0.029   6.773 -0.0433  0.7156 -0.3079
   33MOL   O55124935   1.824   0.226   6.833  0.0365 -0.1730  0.2122
   33MOL   C55224936   1.629   0.101   6.988  1.7002  0.2323  0.3659
   33MOL   C55324937   1.504   0.049   7.034  1.3532 -0.0917  0.0909
   33MOL   H55424938   1.037   7.714   6.820  1.1862  1.8888 -1.0410
   33MOL   H55524939   1.204   7.724   6.758  0.9625  0.9097  3.4376
   33MOL   H55624940   1.189   7.500   6.661  0.1095  2.4069 -2.7709
   33MOL   H55724941   1.067   7.599   6.593  0.4603 -0.1352 -0.3278
   33MOL   H55824942   0.899   7.511   6.742  0.3888  0.9260  0.1658
   33MOL   H55924943   1.048   7.269   6.636  0.2072  0.8248  4.6381
   33MOL   H56024944   0.994   7.391   6.527 -0.6017  0.0886 -0.5611
   33MOL   H56124945   1.111   7.326   6.859 -0.1349 -0.1209 -1.0443
   33MOL   H56224946   0.943   7.329   6.914 -2.1994  2.6066  0.2184
   33MOL   H56324947   0.961   7.560   6.991 -0.9312 -1.3908  2.8559
   33MOL   H56424948   1.082   7.453   7.067  1.7129  1.5996 -0.9113
   33MOL   H56524949   1.259   7.544   6.903  0.9623  1.0757  0.8539
   33MOL   H56624950   1.188   7.655   7.134  0.2874 -1.2446 -0.9781
   33MOL   H56724951   1.111   7.785   7.029  1.2180  0.8070 -2.4890
   33MOL   H56824952   1.532   7.778   6.865 -1.4097  0.0942 -0.1301
   33MOL   H56924953   1.728   7.879   6.784 -0.6616 -0.2371  0.1802
   33MOL   H57024954   1.660   0.196   7.030  0.0984 -0.5303  3.4393
   33MOL   H57124955   1.442   0.101   7.105 -0.1600 -2.4771  0.5443
   33MOL   C57224956   2.236   0.489   6.710  0.7096 -0.2104  0.0136
   33MOL   C57324957   2.096   0.435   6.668  0.0301  0.1300 -0.2138
   33MOL   C57424958   2.046   0.339   6.780 -0.2034  0.0254  0.2856
   33MOL   C57524959   1.906   0.297   6.738 -0.2596  0.1598 -0.0304
   33MOL   C57624960   2.144   0.219   6.794  0.1008  0.8990 -0.4779
   33MOL   C57724961   2.285   0.264   6.833  0.5474 -0.1007 -0.1536
   33MOL   C57824962   2.331   0.368   6.724 -0.1962  0.2345 -0.3504
   33MOL   C57924963   2.468   0.421   6.763  0.6971  0.5809  0.2887
   33MOL   O58024964   2.575   0.333   6.761  0.3599  0.2454  0.0802
   33MOL   C58124965   2.632   0.308   6.637 -0.0639  0.1426  0.4775
   33MOL   O58224966   2.588   0.343   6.530  0.1811 -0.3700  0.0640
   33MOL   C58324967   2.746   0.212   6.651 -0.3079  0.0948  0.6760
   33MOL   C58424968   2.794   0.145   6.535  0.0007 -0.6430  0.1174
   33MOL   C58524969   2.896   0.056   6.551 -0.0276  0.0422  0.4535
   33MOL   C58624970   2.953   0.020   6.680  0.1224 -0.7639 -0.4094
   33MOL   C58724971   3.062   7.956   6.688 -0.6464  0.0422 -0.2484
   33MOL   O58824972   3.095   7.885   6.597 -0.0442 -0.3837  0.3849
   33MOL   O58924973   3.113   7.952   6.810  0.3856 -0.0748 -0.1617
   33MOL   C59024974   2.899   0.082   6.789 -0.2727  0.1363  0.1030
   33MOL   C59124975   2.800   0.178   6.775 -0.4498  0.1379 -0.4929
   33MOL   H59224976   2.223   0.550   6.800 -1.2895  0.3394 -0.6188
   33MOL   H59324977   2.273   0.562   6.638 -2.1302 -0.2200 -1.5451
   33MOL   H59424978   2.105   0.381   6.574 -2.1478 -0.1897 -0.2612
   33MOL   H59524979   2.032   0.521   6.648  0.1958 -0.1219 -1.9013
   33MOL   H59624980   2.047   0.392   6.875 -2.9372  1.2261 -0.3187
   33MOL   H59724981   1.896   0.257   6.637 -2.1361  0.9869 -0.2009
   33MOL   H59824982   1.853   0.390   6.715 -0.0497  0.3273  0.1699
   33MOL   H59924983   2.139   0.163   6.701 -1.3369 -1.2546  0.8392
   33MOL   H60024984   2.100   0.158   6.873  1.4580 -1.4906 -1.5089
   33MOL   H60124985   2.283   0.316   6.928 -1.3966 -0.1488 -0.1455
   33MOL   H60224986   2.351   0.178   6.844 -1.4042 -1.5786  0.2986
   33MOL   H60324987   2.331   0.328   6.623 -1.2137  1.8381 -0.9908
   33MOL   H60424988   2.455   0.468   6.861  0.7150 -1.0908  1.1041
   33MOL   H60524989   2.484   0.507   6.699 -0.3398 -0.4124 -1.3359
   33MOL   H60624990   2.761   0.176   6.437 -0.7060 -2.0529 -0.1106
   33MOL   H60724991   2.941   0.025   6.458 -1.1945 -0.3119 -0.0050
   33MOL   H60824992   2.947   0.064   6.884 -1.1995 -1.4172  0.2943
   33MOL   H60924993   2.770   0.230   6.864 -0.0521 -0.1244 -0.2013
   33MOL   C61024994   3.442   7.775   7.138 -0.0471 -0.6211  0.5772
   33MOL   C61124995   3.385   7.786   7.001 -1.1335  0.2806 -0.4416
   33MOL   C61224996   3.264   7.875   6.984  0.3347  0.5628 -0.4076
   33MOL   C61324997   3.214   7.856   6.838  1.1922  0.9814  1.1234
   33MOL   C61424998   3.156   7.828   7.082  0.4804 -0.1816  0.4799
   33MOL   C61524999   3.211   7.818   7.224  0.1427  0.7435  0.1562
   33MOL   C61625000   3.338   7.726   7.236 -0.8756 -0.2604  0.0365
   33MOL   C61725001   3.385   7.706   7.379  0.4589  0.1613  0.3473
   33MOL   O61825002   3.472   7.597   7.387 -0.0247  0.5789 -0.2737
   33MOL   C61925003   3.534   7.574   7.503  0.3976 -0.3249  0.3075
   33MOL   O62025004   3.546   7.649   7.601 -0.0557  0.6559 -0.1950
   33MOL   C62125005   3.601   7.443   7.495 -0.2776  0.3273 -0.5257
   33MOL   C62225006   3.602   7.355   7.389 -0.6034 -0.5952  0.3406
   33MOL   C62325007   3.645   7.221   7.400  0.1872 -0.1121  0.5927
   33MOL   C62425008   3.699   7.166   7.519 -0.4576 -0.6090 -0.2970
   33MOL   C62525009   3.748   7.024   7.519  0.3324 -0.2446  0.3708
   33MOL   O62625010   3.713   6.936   7.440  0.1723  0.1578 -0.7278
   33MOL   O62725011   3.849   7.013   7.613 -0.2024 -0.0013  0.0688
   33MOL   C62825012   3.701   7.252   7.630 -0.7912 -0.4596  0.3325
   33MOL   C62925013   3.657   7.387   7.616 -0.0261  0.4264 -0.7503
   33MOL   H63025014   3.479   7.872   7.173 -0.7972  0.7732 -2.3717
   33MOL   H63125015   3.525   7.704   7.138  0.4464 -0.0535  0.3897
   33MOL   H63225016   3.351   7.686   6.973 -0.6315 -0.3026  0.9734
   33MOL   H63325017   3.466   7.816   6.935  0.2943 -1.3614  0.5221
   33MOL   H63425018   3.289   7.980   7.000  0.5696  0.6764 -1.4682
   33MOL   H63525019   3.173   7.757   6.819  0.4071  0.7540  3.8232
   33MOL   H63625020   3.296   7.873   6.768 -0.6721  0.8562 -1.1642
   33MOL   H63725021   3.122   7.735   7.036  0.2089  0.5849 -0.9037
   33MOL   H63825022   3.071   7.897   7.080  0.3069 -0.4244 -0.6711
   33MOL   H63925023   3.224   7.921   7.257 -2.1345  1.9076 -2.4185
   33MOL   H64025024   3.139   7.773   7.293  1.1073  2.6705  2.4894
   33MOL   H64125025   3.292   7.634   7.202 -0.9192 -0.5289  0.8074
   33MOL   H64225026   3.293   7.695   7.438  0.2359 -2.4064 -0.4238
   33MOL   H64325027   3.433   7.801   7.404 -0.2495  1.1969 -2.0012
   33MOL   H64425028   3.573   7.392   7.291  0.6637  0.9758  0.5380
   33MOL   H64525029   3.649   7.159   7.311 -0.9121  1.1732 -0.3714
   33MOL   H64625030   3.749   7.213   7.719  0.2996 -3.5515 -1.5442
   33MOL   H64725031   3.666   7.457   7.698  0.0588  1.0010 -1.2494
   33MOL   C64825032   3.761   6.816   8.011 -0.4507  0.4763  0.2739
   33MOL   C64925033   3.832   6.897   7.897 -0.5571 -0.0557  0.4585
   33MOL   C65025034   3.822   6.820   7.760 -0.3435 -0.3031 -0.2880
   33MOL   C65125035   3.903   6.879   7.645  0.1225  0.6136  0.0873
   33MOL   C65225036   3.858   6.671   7.782  0.0312 -0.2745  0.1357
   33MOL   C65325037   3.782   6.600   7.892 -0.1733  0.0859 -0.2429
   33MOL   C65425038   3.800   6.671   8.023  0.2028 -0.5687 -0.3170
   33MOL   C65525039   3.729   6.606   0.115 -0.3755 -0.1519 -0.2254
   33MOL   O65625040   3.594   6.594   0.079 -0.1330  0.4627  0.2619
   33MOL   C65725041   3.513   6.518   0.153  0.5309 -0.1248  0.1799
   33MOL   O65825042   3.548   6.444   0.245 -0.0117 -0.4022  1.0397
   33MOL   C65925043   3.375   6.533   0.109  0.5112 -0.7210  0.2464
   33MOL   C66025044   3.342   6.584   8.017  0.5035 -0.6204  0.4203
   33MOL   C66125045   3.205   6.601   7.979 -0.2876 -0.1769 -0.4116
   33MOL   C66225046   3.103   6.581   0.038  0.7130 -0.2828  0.0354
   33MOL   C66325047   2.958   6.604   0.008  0.1770  0.0102 -0.2828
   33MOL   O66425048   2.878   6.652   0.094  0.0561  0.2762 -0.1437
   33MOL   O66525049   2.927   6.565   7.920 -0.2282  0.0600 -0.2369
   33MOL   C66625050   3.141   6.534   0.168 -0.3589  0.4322  0.0045
   33MOL   C66725051   3.275   6.508   0.201 -0.4858  0.6167 -0.1151
   33MOL   H66825052   3.653   6.822   7.994 -0.3889  1.6817  0.2448
   33MOL   H66925053   3.772   6.864   0.076 -1.1246 -0.7926  0.9904
   33MOL   H67025054   3.937   6.893   7.923 -0.2748  0.3107 -0.6111
   33MOL   H67125055   3.782   6.992   7.882 -0.1907  0.0388 -0.1721
   33MOL   H67225056   3.719   6.815   7.723 -0.2698 -0.5870 -0.4553
   33MOL   H67325057   3.913   6.821   7.553 -1.4181  1.1616 -0.4373
   33MOL   H67425058   4.006   6.901   7.674  0.9838 -2.9453 -0.0183
   33MOL   H67525059   3.964   6.643   7.780  0.5375  1.5657 -0.1392
   33MOL   H67625060   3.829   6.631   7.685  0.2249 -0.0276 -0.0250
   33MOL   H67725061   3.676   6.594   7.867 -0.0587 -2.7858 -0.2064
   33MOL   H67825062   3.812   6.495   7.898  0.3594  0.3137  1.2703
   33MOL   H67925063   3.907   6.677   0.011  0.2389 -1.1203 -0.3423
   33MOL   H68025064   3.749   6.662   0.206 -0.7469  1.5141 -1.1415
   33MOL   H68125065   3.769   6.506   0.131 -0.3277 -0.0998 -0.0223
   33MOL   H68225066   3.416   6.607   7.943 -1.1495 -0.5220 -1.2373
   33MOL   H68325067   3.181   6.633   7.879 -0.1771 -0.9919 -0.7094
   33MOL   H68425068   3.062   6.529   0.241 -0.3010  1.5985  0.1524
   33MOL   H68525069   3.295   6.473   0.301  0.9100  1.8422  0.0346
   33MOL   C68625070   2.625   6.897   7.670 -0.1177  0.5013  0.7035
   33MOL   C68725071   2.652   6.756   7.730  0.6295 -0.7321 -0.5537
   33MOL   C68825072   2.781   6.742   7.808 -0.1062  0.6624 -1.2899
   33MOL   C68925073   2.790   6.600   7.874 -0.1707  0.2392  0.4411
   33MOL   C69025074   2.897   6.787   7.714  0.6924  0.3104 -0.3899
   33MOL   C69125075   2.878   6.928   7.665  0.0384  1.1296 -0.2890
   33MOL   C69225076   2.743   6.944   7.587  0.0688 -0.2630 -0.2770
   33MOL   C69325077   2.730   7.077   7.528  0.0157  0.4894 -0.5585
   33MOL   O69425078   2.720   7.161   7.638 -0.6187 -0.2251  0.5726
   33MOL   C69525079   2.749   7.290   7.614  0.3920 -0.6532  0.2056
   33MOL   O69625080   2.764   7.348   7.505 -0.1086  0.1767 -0.3211
   33MOL   C69725081   2.746   7.368   7.742 -0.2872  0.0725  0.1249
   33MOL   C69825082   2.759   7.507   7.735  0.1326 -0.1205  0.1283
   33MOL   C69925083   2.756   7.587   7.850  0.4355 -0.3610  0.2559
   33MOL   C70025084   2.733   7.530   7.975  0.8898 -0.0446  0.7142
   33MOL   C70125085   2.721   7.610   0.072  0.4382  0.5199  0.2255
   33MOL   O70225086   2.653   7.571   0.167  0.3361 -0.0156  0.2454
   33MOL   O70325087   2.788   7.725   0.061 -0.3716 -0.4288  0.2921
   33MOL   C70425088   2.715   7.391   7.980 -0.5380 -0.9048 -0.4764
   33MOL   C70525089   2.721   7.307   7.864  0.0106 -0.7073 -0.5240
   33MOL   H70625090   2.597   6.973   7.743 -0.5232  0.6763  0.3669
   33MOL   H70725091   2.540   6.889   7.603  1.9566 -0.1273 -1.9641
   33MOL   H70825092   2.659   6.683   7.649  1.6968 -2.2255  0.8560
   33MOL   H70925093   2.560   6.733   7.784 -0.1923 -1.6440 -2.2648
   33MOL   H71025094   2.780   6.810   7.893 -0.4530 -0.8416 -0.0547
   33MOL   H71125095   2.777   6.525   7.796 -1.2916 -1.6570  2.3940
   33MOL   H71225096   2.705   6.591   7.941 -0.2088 -2.3067  0.1246
   33MOL   H71325097   2.904   6.717   7.631  0.5333  0.5282 -0.5859
   33MOL   H71425098   2.992   6.780   7.768  0.1797 -0.0573  0.4831
   33MOL   H71525099   2.878   6.989   7.755  1.5923  0.0702  0.4436
   33MOL   H71625100   2.961   6.946   7.596 -0.1535 -0.5470 -0.9725
   33MOL   H71725101   2.735   6.878   7.500  0.1627 -0.8097  0.1247
   33MOL   H71825102   2.639   7.089   7.469  0.3445  0.9793 -0.9581
   33MOL   H71925103   2.818   7.092   7.467  0.8376 -0.8107  0.2724
   33MOL   H72025104   2.766   7.558   7.640 -0.6373  1.6353  0.9920
   33MOL   H72125105   2.772   7.693   7.846  0.5673 -0.2990  1.9203
   33MOL   H72225106   2.695   7.340   0.041  1.3349  0.1072  0.5083
   33MOL   H72325107   2.705   7.200   7.870 -0.2392 -0.6048  0.8102
   33MOL   C72425108   2.929   0.133   0.026 -0.0117  0.3863 -0.5334
   33MOL   C72525109   2.834   0.003   0.037  0.4934  0.2707  0.6036
   33MOL   C72625110   2.863   7.946   0.161  0.2800  0.9124 -0.4845
   33MOL   C72725111   2.775   7.820   0.168 -0.1027 -0.5580 -0.0747
   33MOL   C72825112   3.013   7.906   0.169 -0.5100  0.5859  0.2134
   33MOL   C72925113   3.092   8.029   0.179 -0.5606  0.0610  0.0873
   33MOL   C73025114   3.079   0.090   0.052  0.5398 -0.0987 -0.4020
   33MOL   C73125115   3.170   0.216   0.065  0.8911 -0.2261  0.3958
   33MOL   O73225116   3.157   0.291   7.980  0.1506 -0.6850 -0.4536
   33MOL   C73325117   3.264   0.353   7.924 -0.0695  1.0679 -0.0927
   33MOL   O73425118   3.379   0.358   7.970  0.0604  0.0371 -0.2024
   33MOL   C73525119   3.238   0.409   7.784  0.3974  0.3151  0.5725
   33MOL   C73625120   3.343   0.450   7.699  0.1461 -0.2099 -0.0385
   33MOL   C73725121   3.312   0.488   7.566  0.2641  0.2065  0.3227
   33MOL   C73825122   3.181   0.488   7.512  0.6583  0.4918 -0.0703
   33MOL   C73925123   3.149   0.522   7.371  0.8793  0.3837 -0.3921
   33MOL   O74025124   3.227   0.508   7.286 -0.0074  0.4753  0.4456
   33MOL   O74125125   3.029   0.582   7.347 -0.0849  0.5077 -0.2215
   33MOL   C74225126   3.081   0.448   7.599  0.2528  0.6785 -0.0021
   33MOL   C74325127   3.107   0.406   7.731  0.1587 -0.2454  0.4062
   33MOL   H74425128   2.899   0.196   0.109  0.0206  0.1173 -0.3182
   33MOL   H74525129   2.901   0.177   7.962 -0.8679  3.1033  0.8885
   33MOL   H74625130   2.858   7.966   7.989 -0.7729  2.0047 -1.3100
   33MOL   H74725131   2.727   0.024   0.035  0.3634 -0.3459  0.7550
   33MOL   H74825132   2.853   8.002   0.254  0.4802 -0.9813  0.6991
   33MOL   H74925133   2.670   7.844   0.186  0.1379  1.4821 -1.3072
   33MOL   H75025134   2.804   7.769   0.261 -1.3998  0.9409  1.1892
   33MOL   H75125135   3.027   7.843   0.081 -0.0928 -0.8299  1.2878
   33MOL   H75225136   3.033   7.839   0.253 -0.1591 -0.6432 -0.8365
   33MOL   H75325137   3.065   0.052   0.269  1.2881  0.7181  0.2717
   33MOL   H75425138   3.198   8.017   0.199 -0.5542 -0.3143 -0.1671
   33MOL   H75525139   3.104   0.029   7.997 -1.1491 -0.2744 -0.7808
   33MOL   H75625140   3.270   0.172   0.068  1.1922  0.2868 -1.3642
   33MOL   H75725141   3.140   0.268   0.156 -2.2225  1.2003 -1.3522
   33MOL   H75825142   3.445   0.443   7.733  0.6048  0.2038 -1.3064
   33MOL   H75925143   3.388   0.512   7.493 -0.3306  0.5639 -0.1864
   33MOL   H76025144   2.977   0.452   7.570  0.4357  0.3172 -0.6995
   33MOL   H76125145   3.025   0.387   7.800 -0.8751  1.2750 -0.3815
   33MOL   H76225146   3.040   0.603   7.256  0.0912 -2.3578 -0.9306
   34MOL     C125147   1.015   3.515   1.177 -0.3598  0.6739 -0.3286
   34MOL     C225148   1.104   3.510   1.055  0.5328  0.0205  0.0223
   34MOL     C325149   1.213   3.402   1.074 -0.6031 -0.7487  0.5815
   34MOL     C425150   1.305   3.395   0.956  0.0926 -0.6137 -0.5840
   34MOL     C525151   1.289   3.413   1.210  0.6199 -0.2934 -0.2001
   34MOL     C625152   1.176   3.409   1.320  0.4870 -0.4082  0.6859
   34MOL     C725153   1.083   3.526   1.315  0.5082 -0.2787  0.5123
   34MOL     C825154   0.983   3.519   1.426 -0.1844  0.8509  0.1706
   34MOL     O925155   0.892   3.635   1.429 -0.1627 -0.6993 -0.6686
   34MOL    C1025156   0.801   3.643   1.528  0.0583  0.7011  0.4249
   34MOL    O1125157   0.797   3.568   1.625  0.7900  0.2178 -0.0907
   34MOL    C1225158   0.711   3.757   1.498  0.5620  0.4024 -0.7607
   34MOL    C1325159   0.712   3.833   1.375  0.2797 -0.5900 -0.0752
   34MOL    C1425160   0.632   3.950   1.363 -1.0771 -0.5462 -0.1864
   34MOL    C1525161   0.548   3.990   1.474  0.1658  0.3250 -0.3864
   34MOL    C1625162   0.466   4.116   1.474  0.2851  0.0895 -0.8799
   34MOL    O1725163   0.371   4.135   1.551 -0.4456  0.2430 -0.2492
   34MOL    O1825164   0.500   4.211   1.381 -0.4246  0.0875 -0.3626
   34MOL    C1925165   0.544   3.908   1.588 -0.5050  0.4340  0.3717
   34MOL    C2025166   0.623   3.797   1.601 -0.0188  0.1651  0.6712
   34MOL    H2125167   0.946   3.431   1.173 -0.8390  0.9723  1.1023
   34MOL    H2225168   0.953   3.604   1.167 -1.6684 -0.2048 -0.1436
   34MOL    H2325169   1.140   3.606   1.018  0.5926  0.9459  2.3782
   34MOL    H2425170   1.038   3.480   0.974  0.4671 -1.0829  0.4725
   34MOL    H2525171   1.160   3.307   1.081 -0.5183 -0.8439 -0.0664
   34MOL    H2625172   1.256   3.397   0.859 -2.0984  0.6381  0.5146
   34MOL    H2725173   1.377   3.316   0.937 -0.6846 -1.0776 -1.6476
   34MOL    H2825174   1.353   3.502   1.218 -1.3655  1.0971  0.6514
   34MOL    H2925175   1.356   3.328   1.211  1.3771  0.2831  2.1346
   34MOL    H3025176   1.119   3.316   1.322 -0.4664  0.1717  0.7316
   34MOL    H3125177   1.226   3.393   1.416  0.1425 -0.9138  0.7855
   34MOL    H3225178   1.150   3.612   1.321 -0.6614  0.7254 -0.5420
   34MOL    H3325179   1.046   3.511   1.515 -0.3323 -0.6840  0.1497
   34MOL    H3425180   0.931   3.425   1.405  2.3995 -0.0304 -2.6634
   34MOL    H3525181   0.783   3.813   1.296  0.9809 -1.5391  0.7842
   34MOL    H3625182   0.642   4.006   1.272  1.0996  2.2205  1.6666
   34MOL    H3725183   0.475   3.929   1.668  0.8496  0.3913  1.5824
   34MOL    H3825184   0.602   3.741   1.690 -1.5875  1.6002  1.2303
   34MOL    H3925185   1.353   3.493   0.954  0.2870 -0.7151 -1.0277
   34MOL    C4025186   0.162   4.347   1.120  0.4752  0.1369 -0.1607
   34MOL    C4125187   0.309   4.335   1.166 -0.7414  0.6494  0.4978
   34MOL    C4225188   0.307   4.357   1.317  0.2328  0.0317  0.3228
   34MOL    C4325189   0.445   4.338   1.390  0.5477 -0.1047  0.0976
   34MOL    C4425190   0.235   4.486   1.359  0.3712  0.6239  0.0334
   34MOL    C4525191   0.095   4.490   1.297  0.7027  0.0908  0.1384
   34MOL    C4625192   0.093   4.482   1.146 -0.4324 -0.5373  0.3956
   34MOL    C4725193   7.977   4.486   1.100  0.0114  0.2892 -0.2059
   34MOL    O4825194   7.925   4.619   1.130 -0.2062  0.4635  0.7756
   34MOL    C4925195   7.924   4.719   1.038 -0.0334 -0.6744  0.0441
   34MOL    O5025196   7.949   4.698   0.921  0.3333  0.2480 -0.1890
   34MOL    C5125197   7.898   4.845   1.101  0.3532  0.8075  0.6873
   34MOL    C5225198   7.891   4.957   1.018  0.0026  0.2809  0.3556
   34MOL    C5325199   7.854   5.088   1.064 -0.3718 -0.0439  0.0657
   34MOL    C5425200   7.836   5.106   1.202  0.2260 -0.0907 -0.8155
   34MOL    C5525201   7.819   5.244   1.260  0.0875 -0.7834 -0.2966
   34MOL    O5625202   7.775   5.257   1.374  0.5200 -0.3158 -0.7547
   34MOL    O5725203   7.868   5.342   1.186 -0.3343  0.0189  0.3276
   34MOL    C5825204   7.830   4.992   1.287  0.5851 -0.1999  0.6363
   34MOL    C5925205   7.868   4.865   1.238 -0.4088  0.2084  0.5929
   34MOL    H6025206   0.097   4.273   1.167  1.4426 -0.8432 -0.3582
   34MOL    H6125207   0.167   4.335   1.012 -2.0529 -2.3206 -0.0750
   34MOL    H6225208   0.373   4.405   1.113 -1.7414  2.2957  1.4219
   34MOL    H6325209   0.350   4.235   1.150 -2.3466 -0.1647  1.3409
   34MOL    H6425210   0.246   4.277   1.359 -1.2638  0.9426 -0.0795
   34MOL    H6525211   0.426   4.353   1.496  1.0236 -0.2965  0.2160
   34MOL    H6625212   0.519   4.416   1.370 -0.0981  1.0699  2.1179
   34MOL    H6725213   0.293   4.571   1.324  1.0275 -0.1512 -0.8080
   34MOL    H6825214   0.229   4.485   1.468 -1.4085 -4.1325 -0.0006
   34MOL    H6925215   0.026   4.418   1.342 -0.8879  1.4995  0.0007
   34MOL    H7025216   0.051   4.585   1.326 -2.4436 -0.5059 -2.3568
   34MOL    H7125217   0.155   4.565   1.114 -3.4475  0.4212 -3.3486
   34MOL    H7225218   7.920   4.409   1.153  2.7551 -0.9017  1.1630
   34MOL    H7325219   7.957   4.460   0.997 -1.0011 -0.3873  0.1516
   34MOL    H7425220   7.911   4.956   0.912  2.3089  1.1552  0.7698
   34MOL    H7525221   7.873   5.164   0.990  0.9534  0.4368  0.8717
   34MOL    H7625222   7.809   5.009   1.391  1.0642 -1.2646  0.9100
   34MOL    H7725223   7.866   4.784   1.310 -1.2889 -0.6702 -0.3998
   34MOL    C7825224   7.642   5.500   0.842 -0.5015  0.3232  0.6547
   34MOL    C7925225   7.760   5.479   0.944 -0.0707 -0.3998  0.2073
   34MOL    C8025226   7.708   5.509   1.088  0.4294 -0.3296 -0.2342
   34MOL    C8125227   7.813   5.472   1.199  0.3699 -0.4179 -0.3766
   34MOL    C8225228   7.668   5.665   1.099 -0.1043 -0.0065  0.1587
   34MOL    C8325229   7.567   5.698   0.985  0.1177  0.1850  0.3509
   34MOL    C8425230   7.595   5.645   0.844 -0.3949 -0.3729 -0.2314
   34MOL    C8525231   7.478   5.664   0.740  0.0761  0.4316  0.1503
   34MOL    O8625232   7.361   5.601   0.794 -0.0144 -0.2114 -0.3598
   34MOL    C8725233   7.255   5.586   0.719 -0.2713 -0.2713 -0.2872
   34MOL    O8825234   7.255   5.610   0.597 -0.3059  0.8078 -0.1617
   34MOL    C8925235   7.140   5.527   0.798  0.1307  0.6020 -0.4108
   34MOL    C9025236   7.141   5.529   0.944 -0.1482 -0.6052 -0.0071
   34MOL    C9125237   7.035   5.476   1.017  0.4901 -0.0110  0.5331
   34MOL    C9225238   6.926   5.423   0.950 -0.6072 -0.5715  0.9207
   34MOL    C9325239   6.817   5.355   1.021  0.3268  0.0363 -1.0077
   34MOL    O9425240   6.709   5.318   0.970 -0.1741 -0.0720 -0.1556
   34MOL    O9525241   6.849   5.335   1.159  0.2097 -0.2059 -0.4513
   34MOL    C9625242   6.912   5.431   0.812 -0.2366 -0.2604  0.6853
   34MOL    C9725243   7.016   5.489   0.736  0.0102 -0.7681 -0.0669
   34MOL    H9825244   7.555   5.439   0.869 -0.2124 -0.2746  0.2506
   34MOL    H9925245   7.674   5.472   0.742  0.1453 -0.9097  1.1892
   34MOL   H10025246   7.858   5.524   0.929 -0.4854  0.0983 -1.1413
   34MOL   H10125247   7.800   5.378   0.941  0.3414 -0.2741  1.1790
   34MOL   H10225248   7.621   5.446   1.106 -0.6600  0.7913 -1.4455
   34MOL   H10325249   7.751   5.479   1.288  1.3679  0.8827  0.2318
   34MOL   H10425250   7.883   5.552   1.221  0.4928 -1.4310  3.1352
   34MOL   H10525251   7.761   5.722   1.096  1.3668 -2.1339  2.5449
   34MOL   H10625252   7.616   5.671   1.195 -0.7604  2.6394 -0.3332
   34MOL   H10725253   7.476   5.648   1.017 -0.6267  1.7996  0.8118
   34MOL   H10825254   7.543   5.805   0.984 -0.9899 -0.0583 -0.6359
   34MOL   H10925255   7.679   5.701   0.805 -1.9656  1.7376 -0.6644
   34MOL   H11025256   7.496   5.625   0.640  0.4387  1.2951 -0.1157
   34MOL   H11125257   7.454   5.770   0.732 -0.7787  0.3823  1.7430
   34MOL   H11225258   7.230   5.565   0.993  0.7919  0.3512 -2.3680
   34MOL   H11325259   7.051   5.486   1.124 -1.2638  2.0330  0.6503
   34MOL   H11425260   6.829   5.392   0.755 -2.3103  2.2402  1.8596
   34MOL   H11525261   7.007   5.503   0.630 -1.9388 -0.3723  0.1390
   34MOL   C11625262   6.987   5.217   1.566 -0.6445 -0.4636  0.3508
   34MOL   C11725263   6.946   5.193   1.418  0.2586 -0.8208  0.4614
   34MOL   C11825264   6.811   5.256   1.390 -0.0778  0.6157 -0.2317
   34MOL   C11925265   6.760   5.251   1.242  0.3177  0.1242 -0.4007
   34MOL   C12025266   6.710   5.200   1.489 -0.2376  0.6508  0.2731
   34MOL   C12125267   6.753   5.182   1.641  0.2018  0.0177  0.2713
   34MOL   C12225268   6.898   5.139   1.660 -0.0266  0.4646  0.9183
   34MOL   C12325269   6.944   5.151   1.807 -0.2302  0.1965 -0.2838
   34MOL   O12425270   7.068   5.085   1.826 -0.0452  0.5016 -0.1059
   34MOL   C12525271   7.188   5.136   1.848 -0.3721  0.0701 -0.3345
   34MOL   O12625272   7.212   5.256   1.846 -0.2237  0.0697 -0.1751
   34MOL   C12725273   7.296   5.036   1.867  0.4964  0.2997 -0.4433
   34MOL   C12825274   7.263   4.894   1.884 -0.7615  0.3906  0.1399
   34MOL   C12925275   7.363   4.797   1.923  0.3173 -0.5746  0.2759
   34MOL   C13025276   7.489   4.846   1.957  0.1073  0.5171  0.1074
   34MOL   C13125277   7.588   4.759   2.029 -0.1454 -0.8917  0.1588
   34MOL   O13225278   7.709   4.754   2.006  0.0371 -0.0144 -0.1915
   34MOL   O13325279   7.529   4.684   2.120  0.3999 -0.2787  0.2573
   34MOL   C13425280   7.525   4.983   1.931 -0.6295 -0.3506 -0.6331
   34MOL   C13525281   7.431   5.077   1.881 -0.0872 -0.0822 -0.1140
   34MOL   H13625282   6.970   5.323   1.586 -0.7631 -0.0200 -1.9544
   34MOL   H13725283   7.093   5.205   1.585 -1.0232 -2.0710  1.5314
   34MOL   H13825284   6.936   5.087   1.397 -1.0995 -0.9947  1.8828
   34MOL   H13925285   7.026   5.240   1.361  0.5598 -2.3147 -0.3664
   34MOL   H14025286   6.827   5.358   1.423 -0.2404 -0.0849  2.1372
   34MOL   H14125287   6.657   5.286   1.234 -0.6089 -1.9274  2.1252
   34MOL   H14225288   6.762   5.147   1.211  0.0012  0.2394 -0.8126
   34MOL   H14325289   6.676   5.101   1.457 -1.7139  0.7521  1.4426
   34MOL   H14425290   6.613   5.250   1.481 -0.6353 -0.3872 -1.8831
   34MOL   H14525291   6.737   5.273   1.699  1.2805  0.5801 -0.2946
   34MOL   H14625292   6.689   5.109   1.690 -0.2558  0.5386  0.4634
   34MOL   H14725293   6.905   5.040   1.616  1.3151  0.5249  0.9830
   34MOL   H14825294   6.875   5.094   1.869 -0.2204  0.5514  0.0546
   34MOL   H14925295   6.948   5.257   1.832 -0.5845  0.5083 -1.5229
   34MOL   H15025296   7.159   4.864   1.879 -1.0890  1.4944  0.1329
   34MOL   H15125297   7.329   4.695   1.926  0.1427 -0.5973 -2.1525
   34MOL   H15225298   7.628   5.005   1.956 -0.6625 -0.5127 -0.3568
   34MOL   H15325299   7.467   5.177   1.862  1.0577 -0.4266  0.1856
   34MOL   C15425300   7.470   4.239   2.300  0.3588  0.1668  1.1982
   34MOL   C15525301   7.565   4.350   2.268 -0.0558 -0.8340 -0.4513
   34MOL   C15625302   7.488   4.472   2.217 -0.0971  0.8614 -0.0453
   34MOL   C15725303   7.596   4.571   2.167 -0.1442 -0.0907  0.1695
   34MOL   C15825304   7.390   4.440   2.107  0.0319  0.7742 -1.0569
   34MOL   C15925305   7.303   4.325   2.150  0.5328  0.2280 -0.7773
   34MOL   C16025306   7.375   4.201   2.186 -0.1052  0.2061  0.3401
   34MOL   C16125307   7.272   4.096   2.235  0.2871 -0.2611  0.4581
   34MOL   O16225308   7.186   4.059   2.121 -0.1342 -0.3147  0.4238
   34MOL   C16325309   7.059   4.103   2.115  0.1013  0.2795  0.1101
   34MOL   O16425310   6.993   4.139   2.213  0.2338  0.3002  0.1143
   34MOL   C16525311   7.007   4.083   1.981  0.4469  0.2149 -0.1510
   34MOL   C16625312   6.867   4.108   1.969 -0.0714  0.0387 -0.3345
   34MOL   C16725313   6.806   4.102   1.840  0.2109  0.0141 -0.1231
   34MOL   C16825314   6.880   4.060   1.725  0.0207 -0.6668 -0.1141
   34MOL   C16925315   6.827   4.049   1.585 -0.1555  0.2649  0.4405
   34MOL   O17025316   6.892   4.043   1.483  0.3236 -0.6058  0.2272
   34MOL   O17125317   6.693   4.061   1.585 -0.1940 -0.2743 -0.2263
   34MOL   C17225318   7.013   4.031   1.745  0.5947 -0.2303 -0.5911
   34MOL   C17325319   7.081   4.041   1.870  0.1442 -0.7982 -0.0534
   34MOL   H17425320   7.420   4.254   2.396 -0.3737 -1.0294  1.0157
   34MOL   H17525321   7.527   4.148   2.322 -1.6727 -1.2659  0.6694
   34MOL   H17625322   7.629   4.308   2.190  1.4628  0.9611 -0.1979
   34MOL   H17725323   7.621   4.388   2.352  0.4643  1.0563 -1.6222
   34MOL   H17825324   7.435   4.518   2.301 -0.0564  1.0010 -0.0960
   34MOL   H17925325   7.670   4.517   2.107  0.5129  1.9919 -0.9195
   34MOL   H18025326   7.661   4.605   2.248 -0.2033  2.9680 -1.0220
   34MOL   H18125327   7.444   4.409   2.017 -0.4451  0.1526 -1.1347
   34MOL   H18225328   7.326   4.525   2.085 -1.7615 -0.3773 -0.3778
   34MOL   H18325329   7.240   4.368   2.228 -0.2149  0.9923 -1.7838
   34MOL   H18425330   7.227   4.303   2.075 -0.1257 -0.1131 -0.0220
   34MOL   H18525331   7.430   4.154   2.104 -0.5922  0.0583  0.0991
   34MOL   H18625332   7.219   4.130   2.324 -0.2090  3.2840 -1.1149
   34MOL   H18725333   7.319   4.001   2.259 -1.2725 -0.9165  0.9830
   34MOL   H18825334   6.808   4.126   2.057  3.0275  2.0234  1.4065
   34MOL   H18925335   6.702   4.126   1.823 -0.4423 -1.3474  1.8412
   34MOL   H19025336   7.068   3.990   1.662 -0.9017 -0.9199 -1.2617
   34MOL   H19125337   7.187   4.020   1.879  0.6701  1.4418 -0.6936
   34MOL   C19225338   6.297   4.113   1.677  0.3498  0.3437  0.2187
   34MOL   C19325339   6.408   4.042   1.605  0.0505  0.1725  0.3549
   34MOL   C19425340   6.487   4.143   1.518  0.6914  0.0140  0.6891
   34MOL   C19525341   6.617   4.080   1.468  0.2562  0.4536 -0.2907
   34MOL   C19625342   6.404   4.196   1.399 -0.1439 -0.7583  0.1177
   34MOL   C19725343   6.281   4.256   1.463  0.3790 -0.1333  0.4573
   34MOL   C19825344   6.203   4.166   1.564 -0.1151 -0.1172 -0.6375
   34MOL   C19925345   6.087   4.242   1.617  0.5409 -0.9763 -0.3221
   34MOL   O20025346   6.006   4.170   1.717  0.3970 -0.4539  0.1983
   34MOL   C20125347   5.890   4.222   1.754 -0.0492 -0.5273 -0.2040
   34MOL   O20225348   5.847   4.325   1.703 -0.6414  0.3165 -0.2878
   34MOL   C20325349   5.822   4.147   1.856 -0.3371 -0.6594 -0.3659
   34MOL   C20425350   5.690   4.185   1.888  0.0950 -0.0492 -0.1278
   34MOL   C20525351   5.606   4.110   1.971 -0.1473 -0.7468  0.2886
   34MOL   C20625352   5.662   3.999   2.040 -0.5293  0.4524 -0.6681
   34MOL   C20725353   5.581   3.917   2.139  0.2892  0.1532 -0.1564
   34MOL   O20825354   5.623   3.866   2.241  0.0740 -0.3047 -0.4875
   34MOL   O20925355   5.461   3.901   2.093 -0.0761  0.2361  0.5182
   34MOL   C21025356   5.797   3.970   2.027 -0.2991 -0.2620 -0.1642
   34MOL   C21125357   5.879   4.040   1.932  0.2640  0.0739 -0.0815
   34MOL   H21225358   6.346   4.197   1.726 -0.1650  0.7193  0.0857
   34MOL   H21325359   6.242   4.059   1.754  0.7506  1.2178  1.1351
   34MOL   H21425360   6.372   3.951   1.558 -0.8296  1.1235 -0.8504
   34MOL   H21525361   6.475   3.999   1.679  0.5918 -3.8008 -2.3278
   34MOL   H21625362   6.517   4.231   1.574  0.9640 -0.2464  0.9501
   34MOL   H21725363   6.669   4.144   1.396 -0.7654 -2.3837 -3.6979
   34MOL   H21825364   6.605   3.989   1.409  0.6111  1.2161 -1.5523
   34MOL   H21925365   6.367   4.121   1.329 -1.4421 -0.9213  0.9613
   34MOL   H22025366   6.451   4.272   1.337 -2.0226 -2.7953 -4.0221
   34MOL   H22125367   6.301   4.349   1.517 -0.2303  0.4455 -0.2962
   34MOL   H22225368   6.207   4.265   1.382  0.1943 -2.2897  0.3543
   34MOL   H22325369   6.155   4.075   1.529 -0.0718 -1.0507  1.7158
   34MOL   H22425370   6.023   4.261   1.531  0.5313  2.5773  0.3801
   34MOL   H22525371   6.111   4.334   1.671 -0.1611 -1.4664  0.8720
   34MOL   H22625372   5.653   4.277   1.845 -1.3517 -0.2433  0.6477
   34MOL   H22725373   5.505   4.143   1.987 -0.3200 -0.7763 -0.7052
   34MOL   H22825374   5.845   3.894   2.087 -1.4005  0.7425  2.0536
   34MOL   H22925375   5.983   4.016   1.913  0.3254 -0.4692  0.9666
   34MOL   C23025376   5.163   3.623   1.886  0.3369 -0.4311 -0.0625
   34MOL   C23125377   5.290   3.665   1.966  0.6123 -0.1803 -0.7439
   34MOL   C23225378   5.253   3.765   2.074  0.6653 -0.1393  0.5927
   34MOL   C23325379   5.369   3.813   2.161  0.1352  0.6517 -0.4184
   34MOL   C23425380   5.173   3.884   2.022  0.1680  0.0989  0.0958
   34MOL   C23525381   5.055   3.842   1.945  0.0587  0.3898 -0.4629
   34MOL   C23625382   5.086   3.741   1.827  0.8543  0.5058 -0.3062
   34MOL   C23725383   4.961   3.689   1.757 -0.0633  0.5275 -0.9186
   34MOL   O23825384   4.902   3.800   1.700  0.2507 -0.3184  0.2358
   34MOL   C23925385   4.809   3.791   1.608 -0.1007 -0.1571 -0.0438
   34MOL   O24025386   4.782   3.690   1.548 -0.3858  0.0036 -0.5575
   34MOL   C24125387   4.753   3.927   1.582  0.6298  0.2691 -1.1996
   34MOL   C24225388   4.782   4.043   1.654  0.6464 -0.1000 -0.2386
   34MOL   C24325389   4.722   4.165   1.619  0.1840  0.3565 -0.1744
   34MOL   C24425390   4.649   4.176   1.499  1.1644  0.6823  0.6026
   34MOL   C24525391   4.587   4.301   1.454 -0.5459  0.0133 -0.2103
   34MOL   O24625392   4.543   4.309   1.338  0.4044 -0.4012 -0.0318
   34MOL   O24725393   4.587   4.405   1.542  0.0020 -0.1036 -0.0557
   34MOL   C24825394   4.621   4.059   1.424  0.3555  0.1297  0.8219
   34MOL   C24925395   4.669   3.936   1.472 -0.4610  0.4996 -0.1968
   34MOL   H25025396   5.092   3.570   1.949 -0.5706 -0.7374 -1.3111
   34MOL   H25125397   5.191   3.553   1.807  0.9136 -0.6064  0.2906
   34MOL   H25225398   5.363   3.710   1.899  1.5662  3.6488  2.6789
   34MOL   H25325399   5.323   3.569   2.005 -0.5578 -0.4954 -0.5159
   34MOL   H25425400   5.192   3.710   2.145  0.4017 -1.6162 -0.7589
   34MOL   H25525401   5.431   3.729   2.192  0.1835  0.6663 -0.4763
   34MOL   H25625402   5.335   3.861   2.252  0.4406 -0.9173  0.5448
   34MOL   H25725403   5.244   3.942   1.963  0.8890  0.7428  1.5812
   34MOL   H25825404   5.130   3.940   2.105  0.4372  2.1003 -1.0897
   34MOL   H25925405   4.980   3.802   2.013 -2.7172  2.7188 -2.0826
   34MOL   H26025406   5.020   3.933   1.897  1.1471  0.0866 -1.8738
   34MOL   H26125407   5.155   3.771   1.747  1.7856 -2.3143 -0.6170
   34MOL   H26225408   4.892   3.634   1.820 -1.9472  1.9459 -1.6708
   34MOL   H26325409   4.993   3.625   1.675 -2.2103 -0.8022 -0.7432
   34MOL   H26425410   4.849   4.046   1.739 -1.6819  1.6220  1.6021
   34MOL   H26525411   4.746   4.254   1.674  2.2544 -0.2527 -0.0439
   34MOL   H26625412   4.561   4.066   1.334  1.9561  1.1545 -0.1805
   34MOL   H26725413   4.644   3.854   1.408  0.7161 -0.0840  0.0791
   34MOL   C26825414   4.785   4.789   1.481 -0.3487 -0.3950 -0.1901
   34MOL   C26925415   4.718   4.673   1.543 -0.7784 -0.5314 -0.0713
   34MOL   C27025416   4.596   4.633   1.456  0.5440 -0.1433  0.5043
   34MOL   C27125417   4.508   4.520   1.521  0.1804  0.6144  0.1290
   34MOL   C27225418   4.501   4.754   1.420  0.2531  0.0159 -0.1226
   34MOL   C27325419   4.574   4.876   1.362 -0.6814  0.1493  0.4261
   34MOL   C27425420   4.699   4.915   1.447  0.6158  0.4758 -0.5575
   34MOL   C27525421   4.783   5.025   1.376  0.0482  0.5873 -0.0486
   34MOL   O27625422   4.735   5.151   1.366 -0.2450 -0.1627  0.1359
   34MOL   C27725423   4.808   5.253   1.294 -0.1672  0.0619 -0.1751
   34MOL   O27825424   4.925   5.243   1.251  0.2330 -0.2106  0.9124
   34MOL   C27925425   4.720   5.367   1.269  0.3227  0.0796 -0.5525
   34MOL   C28025426   4.764   5.478   1.193 -0.1650 -1.2566 -0.4978
   34MOL   C28125427   4.676   5.590   1.173 -0.6758 -0.2533  0.3092
   34MOL   C28225428   4.543   5.598   1.229 -0.2183 -0.9850 -0.2902
   34MOL   C28325429   4.455   5.718   1.215  0.3846  0.3125  0.0808
   34MOL   O28425430   4.361   5.732   1.291  0.6755 -0.1780 -0.3696
   34MOL   O28525431   4.484   5.798   1.107  0.4537 -0.5353 -0.2617
   34MOL   C28625432   4.499   5.483   1.300 -0.1872  0.9929 -0.4710
   34MOL   C28725433   4.585   5.370   1.320  0.3828 -0.3342  0.5559
   34MOL   H28825434   4.833   4.766   1.386  0.3105  0.9762 -0.1968
   34MOL   H28925435   4.866   4.813   1.549 -0.2654 -0.0915 -0.3979
   34MOL   H29025436   4.679   4.702   1.641  0.1321 -0.1718  0.1978
   34MOL   H29125437   4.784   4.590   1.569  0.3616  0.6434  0.8848
   34MOL   H29225438   4.625   4.601   1.356  1.8456 -0.8770  1.1150
   34MOL   H29325439   4.423   4.498   1.456 -0.0144  4.2524 -0.9409
   34MOL   H29425440   4.473   4.556   1.618 -2.3728 -0.4926 -0.3348
   34MOL   H29525441   4.448   4.796   1.506  1.2101 -1.3603  1.1665
   34MOL   H29625442   4.416   4.718   1.363 -0.2601 -0.3343  0.8611
   34MOL   H29725443   4.615   4.844   1.266  0.1343  3.7113 -0.4900
   34MOL   H29825444   4.510   4.960   1.335 -3.2576 -2.0562 -0.5109
   34MOL   H29925445   4.655   4.954   1.539  0.1111 -0.6621 -0.3023
   34MOL   H30025446   4.810   4.992   1.276  2.5041  1.5518  0.2644
   34MOL   H30125447   4.877   5.033   1.430 -0.7762  1.1615  1.3141
   34MOL   H30225448   4.864   5.469   1.153 -0.6568 -3.0790 -1.3604
   34MOL   H30325449   4.714   5.684   1.136  1.4944 -0.2753  2.3419
   34MOL   H30425450   4.401   5.481   1.345 -0.6247 -1.5105 -1.4883
   34MOL   H30525451   4.547   5.287   1.378  0.1350  0.4232  1.4958
   34MOL   C30625452   4.666   6.196   1.099  0.9622 -0.3615 -0.1098
   34MOL   C30725453   4.565   6.096   1.158 -0.7741  0.5319  0.4102
   34MOL   C30825454   4.500   6.036   1.034 -0.5215 -0.0587 -0.1892
   34MOL   C30925455   4.409   5.914   1.073  0.7283  0.2030 -0.4801
   34MOL   C31025456   4.416   6.134   0.947 -0.2576 -0.6147 -0.1291
   34MOL   C31125457   4.511   6.259   0.918  0.1444  0.4098 -0.3335
   34MOL   C31225458   4.592   6.318   1.032  0.3995 -0.3963 -0.3839
   34MOL   C31325459   4.680   6.429   0.984 -0.3591 -0.4654 -0.0172
   34MOL   O31425460   4.737   6.494   1.095 -0.1784 -0.1324 -0.1651
   34MOL   C31525461   4.860   6.457   1.143 -0.5656 -0.2413 -0.5455
   34MOL   O31625462   4.930   6.368   1.092  0.0388  0.2356 -0.0178
   34MOL   C31725463   4.915   6.541   1.254  0.8009 -0.8562 -0.6372
   34MOL   C31825464   5.024   6.484   1.327 -0.4510 -0.0107  0.0226
   34MOL   C31925465   5.093   6.563   1.416  0.0666  0.3844  0.2903
   34MOL   C32025466   5.038   6.681   1.463  0.2588 -0.4302  0.3229
   34MOL   C32125467   5.090   6.749   1.586  0.1067  0.1253 -0.0109
   34MOL   O32225468   5.061   6.865   1.615 -0.5272 -0.1348  0.0300
   34MOL   O32325469   5.164   6.672   1.667 -0.0146 -0.3010 -0.5202
   34MOL   C32425470   4.927   6.734   1.397 -0.5128 -0.4210  0.7722
   34MOL   C32525471   4.871   6.670   1.289  0.6990  0.7075  0.5243
   34MOL   H32625472   4.744   6.146   1.042  0.3395 -1.0481 -0.3756
   34MOL   H32725473   4.722   6.230   1.186  0.1173  0.2345  0.2092
   34MOL   H32825474   4.498   6.133   1.235 -2.0537  2.1263 -1.4216
   34MOL   H32925475   4.621   6.018   1.211 -1.1245 -0.2379 -0.3288
   34MOL   H33025476   4.567   5.991   0.961  0.7830  0.0226  0.9447
   34MOL   H33125477   4.342   5.890   0.991  0.2664  0.7205 -0.2655
   34MOL   H33225478   4.341   5.941   1.155 -0.7808 -0.3050 -1.5480
   34MOL   H33325479   4.329   6.159   1.008 -0.1592  2.7268 -1.2478
   34MOL   H33425480   4.389   6.094   0.850  0.4518 -2.2860  0.3609
   34MOL   H33525481   4.584   6.231   0.841  2.5083  1.3722  1.4963
   34MOL   H33625482   4.452   6.339   0.873 -1.6949  0.4381  2.0394
   34MOL   H33725483   4.529   6.371   1.103  0.7329 -1.0777  0.4262
   34MOL   H33825484   4.617   6.495   0.924  1.4199 -0.6790 -2.1782
   34MOL   H33925485   4.757   6.398   0.913  0.8806  1.3651  0.4668
   34MOL   H34025486   5.061   6.384   1.313  0.7702  0.3891  0.3635
   34MOL   H34125487   5.176   6.522   1.470  0.8383 -2.0506 -2.5977
   34MOL   H34225488   4.876   6.824   1.428 -0.1011 -0.7676  2.5060
   34MOL   H34325489   4.797   6.723   1.230  0.7320 -0.0855 -0.2444
   34MOL   C34425490   5.276   6.366   1.970 -0.3958 -0.1470 -0.3181
   34MOL   C34525491   5.217   6.464   1.869 -0.6279  0.2351  0.0489
   34MOL   C34625492   5.284   6.605   1.880 -0.3881 -0.2657  0.7385
   34MOL   C34725493   5.195   6.710   1.806 -0.0513 -0.1170  0.0224
   34MOL   C34825494   5.293   6.644   2.027  0.1914 -0.6096  0.0016
   34MOL   C34925495   5.374   6.547   2.103 -0.2981 -0.7831 -0.0659
   34MOL   C35025496   5.293   6.411   2.110 -0.0555  0.1931  0.6645
   34MOL   C35125497   5.354   6.306   2.216 -0.0909  0.5128 -0.2731
   34MOL   O35225498   5.496   6.288   2.198  0.5576  0.8841 -0.2882
   34MOL   C35325499   5.586   6.354   2.265  0.3989  0.4288  0.0263
   34MOL   O35425500   5.561   6.437   2.351  0.3677  0.5148  0.2528
   34MOL   C35525501   5.726   6.329   2.224  0.5888 -0.8151 -0.4410
   34MOL   C35625502   5.837   6.380   2.296  0.7073  0.4384 -0.0351
   34MOL   C35725503   5.968   6.335   2.270  0.2033 -0.3903 -0.2912
   34MOL   C35825504   5.994   6.254   2.158  0.2483  0.5507  0.4279
   34MOL   C35925505   6.134   6.208   2.135  0.0078  0.3338  0.2928
   34MOL   O36025506   6.214   6.185   2.227  0.2135 -0.2474  0.4630
   34MOL   O36125507   6.155   6.185   2.002 -0.3844  0.9000  0.7997
   34MOL   C36225508   5.886   6.213   2.078  0.7373  0.3529  0.5010
   34MOL   C36325509   5.750   6.244   2.117 -0.2799 -0.3086 -0.1147
   34MOL   H36425510   5.373   6.329   1.937  0.3744  1.0780  0.5128
   34MOL   H36525511   5.210   6.280   1.979 -0.2333 -0.3161 -0.7611
   34MOL   H36625512   5.113   6.484   1.895 -0.5189  0.2776  0.4441
   34MOL   H36725513   5.220   6.421   1.769 -0.1681 -0.7708  0.4872
   34MOL   H36825514   5.379   6.603   1.828 -0.8750  0.5551 -0.1977
   34MOL   H36925515   5.235   6.811   1.810  0.1986 -0.1504 -1.4126
   34MOL   H37025516   5.105   6.731   1.863  1.4961  5.5667  0.6837
   34MOL   H37125517   5.196   6.660   2.074  1.5272 -0.3321  2.7763
   34MOL   H37225518   5.350   6.737   2.026  0.5089 -0.8051 -0.1376
   34MOL   H37325519   5.467   6.524   2.051  1.4997 -0.3906  2.8533
   34MOL   H37425520   5.399   6.576   2.205 -1.6982 -0.3629  0.1679
   34MOL   H37525521   5.195   6.435   2.151  0.3204  1.9884  0.5857
   34MOL   H37625522   5.297   6.213   2.214 -0.0741  0.4775  0.6426
   34MOL   H37725523   5.337   6.352   2.313  3.1934 -0.8557  1.0191
   34MOL   H37825524   5.818   6.436   2.387  0.9622 -0.2138  0.4262
   34MOL   H37925525   6.053   6.367   2.328 -0.4991 -0.9236  1.0377
   34MOL   H38025526   5.906   6.147   1.995 -0.4318  0.6094  0.0016
   34MOL   H38125527   5.670   6.212   2.052 -0.1474  0.5400 -0.7078
   34MOL   C38225528   6.474   6.151   1.609 -0.1064 -0.2466 -0.1240
   34MOL   C38325529   6.420   6.093   1.739 -0.5406  0.0388  0.1251
   34MOL   C38425530   6.316   6.185   1.810 -0.3939 -0.6666  1.2690
   34MOL   C38525531   6.275   6.125   1.952 -0.4486  0.1701 -0.2290
   34MOL   C38625532   6.375   6.321   1.824 -0.1528 -0.3100  0.4984
   34MOL   C38725533   6.426   6.385   1.693  0.4607 -0.7373  0.3869
   34MOL   C38825534   6.542   6.294   1.637 -0.6550  0.0203  0.3894
   34MOL   C38925535   6.597   6.354   1.502 -0.4019 -0.3702  0.0061
   34MOL   O39025536   6.704   6.270   1.466 -0.2048 -1.3022 -0.4348
   34MOL   C39125537   6.705   6.189   1.359  0.3737 -0.6754 -0.7467
   34MOL   O39225538   6.610   6.176   1.280 -0.1350  0.0230 -1.4321
   34MOL   C39325539   6.834   6.106   1.346 -0.4750  0.1324  0.7501
   34MOL   C39425540   6.838   6.004   1.246  0.5101  0.0499 -0.0535
   34MOL   C39525541   6.950   5.914   1.239 -1.3979 -0.1199  0.4039
   34MOL   C39625542   7.066   5.935   1.319 -0.2617  0.7197  0.1583
   34MOL   C39725543   7.174   5.835   1.311 -0.0532 -0.5257  0.1601
   34MOL   O39825544   7.181   5.747   1.223  0.3182 -0.7618  0.1495
   34MOL   O39925545   7.271   5.858   1.401 -0.3631  0.2830  0.1835
   34MOL   C40025546   7.066   6.047   1.409 -0.5426  0.4606  0.0528
   34MOL   C40125547   6.949   6.125   1.421  0.2258  0.2148  0.1499
   34MOL   H40225548   6.403   6.138   1.528  0.5864 -1.0064 -0.6131
   34MOL   H40325549   6.551   6.082   1.575  2.1490  1.6701  0.9605
   34MOL   H40425550   6.507   6.084   1.804 -0.8070 -3.4158  0.0516
   34MOL   H40525551   6.379   5.992   1.736  1.1701 -0.6765  0.4363
   34MOL   H40625552   6.222   6.191   1.755  0.6813  0.4215 -0.4835
   34MOL   H40725553   6.353   6.146   2.026 -0.0790 -1.9461  0.0062
   34MOL   H40825554   6.274   6.016   1.953  1.6126  0.1319  1.2035
   34MOL   H40925555   6.464   6.316   1.886  0.1692  1.5497  0.2071
   34MOL   H41025556   6.300   6.389   1.864  0.1420  1.0150 -1.1316
   34MOL   H41125557   6.348   6.396   1.618 -0.0239  0.7557  1.0897
   34MOL   H41225558   6.469   6.485   1.709  1.1006 -1.1712  1.4604
   34MOL   H41325559   6.629   6.276   1.700  0.6102 -1.1972 -1.6417
   34MOL   H41425560   6.629   6.456   1.522  0.7729 -0.7206 -0.0324
   34MOL   H41525561   6.516   6.353   1.429 -0.7975  1.5745  0.4044
   34MOL   H41625562   6.755   6.004   1.177  1.5501  1.1075 -1.3073
   34MOL   H41725563   6.952   5.835   1.165 -0.7035  1.2283 -1.0622
   34MOL   H41825564   7.160   6.064   1.458 -0.3588  0.3162 -0.2493
   34MOL   H41925565   6.945   6.209   1.488  1.3160  0.3036  0.1099
   34MOL   C42025566   7.749   5.930   1.480  0.9463  0.1731 -0.1411
   34MOL   C42125567   7.651   5.834   1.414 -0.1298  0.1722  0.0536
   34MOL   C42225568   7.510   5.867   1.460  0.3253 -0.0755 -0.0894
   34MOL   C42325569   7.401   5.800   1.375 -0.9601 -0.0083 -0.5754
   34MOL   C42425570   7.492   5.845   1.613 -0.5419 -0.6137  0.1892
   34MOL   C42525571   7.585   5.941   1.686  0.5458 -0.4456  0.3090
   34MOL   C42625572   7.728   5.924   1.634 -0.1337 -0.0595 -0.6417
   34MOL   C42725573   7.806   6.039   1.700 -0.4502  0.7031 -0.2985
   34MOL   O42825574   7.944   6.003   1.677  0.4962  0.6293  0.4447
   34MOL   C42925575   8.004   5.934   1.780 -0.2705 -0.9695 -0.6846
   34MOL   O43025576   7.949   5.907   1.888  0.1656  0.4033 -0.5339
   34MOL   C43125577   0.116   5.917   1.765 -0.0850 -0.4402  0.3674
   34MOL   C43225578   0.201   5.835   1.849 -0.0304  0.0839  0.4099
   34MOL   C43325579   0.341   5.826   1.828  0.0075 -0.0872 -0.4750
   34MOL   C43425580   0.400   5.902   1.724 -0.4465 -0.5683  1.2814
   34MOL   C43525581   0.548   5.883   1.706  0.0521 -0.4941 -0.3867
   34MOL   O43625582   0.622   5.846   1.801 -0.6513 -0.0702  0.3204
   34MOL   O43725583   0.600   5.935   1.590  0.0800 -0.0852  0.2635
   34MOL   C43825584   0.321   5.993   1.648 -0.2430  0.2721  0.6920
   34MOL   C43925585   0.181   5.998   1.662  1.0732  0.1503 -0.5668
   34MOL   H44025586   7.715   6.025   1.440 -1.3529 -1.2156 -1.5532
   34MOL   H44125587   7.852   5.914   1.448  0.9812  1.3961 -0.6838
   34MOL   H44225588   7.674   5.730   1.437 -1.0292  0.3070  1.6191
   34MOL   H44325589   7.649   5.855   1.307  1.2624  0.6934  0.1151
   34MOL   H44425590   7.493   5.974   1.450  0.4779  0.2273  2.4733
   34MOL   H44525591   7.388   5.692   1.383 -2.5363  0.1164 -1.2172
   34MOL   H44625592   7.435   5.804   1.271  1.5051 -1.9812  0.1060
   34MOL   H44725593   7.508   5.740   1.637 -0.2685 -0.2793  1.4998
   34MOL   H44825594   7.386   5.856   1.636 -0.5818  1.0706 -0.7140
   34MOL   H44925595   7.547   6.042   1.671 -1.1713 -0.7950  2.1518
   34MOL   H45025596   7.591   5.907   1.790 -1.1270 -0.9004  0.2725
   34MOL   H45125597   7.766   5.827   1.666 -3.4082 -1.0583  0.4974
   34MOL   H45225598   7.788   6.060   1.805  2.1394 -0.0176  0.3246
   34MOL   H45325599   7.766   6.123   1.644  2.3058  0.7654 -2.2953
   34MOL   H45425600   0.155   5.777   1.928  1.6395 -0.6165  0.8885
   34MOL   H45525601   0.393   5.765   1.901 -1.7637  1.0531  1.8244
   34MOL   H45625602   0.362   6.062   1.576 -1.2470  1.4332  1.2358
   34MOL   H45725603   0.127   6.069   1.601  1.2917  2.1676  1.4946
   34MOL   C45825604   0.998   5.658   1.543  0.2655  0.5231  0.7972
   34MOL   C45925605   0.945   5.796   1.572 -0.8463 -0.6939  0.6683
   34MOL   C46025606   0.801   5.804   1.517 -0.4153  0.5148 -0.0668
   34MOL   C46125607   0.742   5.935   1.569  0.1037  0.0080  0.0571
   34MOL   C46225608   0.815   5.792   1.364  0.0496  0.7536 -0.0693
   34MOL   C46325609   0.866   5.661   1.323 -0.2305  0.0385 -0.0161
   34MOL   C46425610   1.003   5.639   1.391  0.0675  0.1986 -0.3642
   34MOL   C46525611   1.063   5.502   1.364  0.1650 -0.1373  0.1303
   34MOL   O46625612   1.070   5.478   1.225 -0.5530  0.5977 -0.1272
   34MOL   C46725613   1.184   5.451   1.161  0.0621 -0.0190  0.3700
   34MOL   O46825614   1.296   5.440   1.211 -0.4158 -0.6031 -0.8349
   34MOL   C46925615   1.153   5.430   1.018  0.1586 -0.0383  0.4319
   34MOL   C47025616   1.038   5.492   0.953 -0.2347  0.2209  0.7086
   34MOL   C47125617   1.012   5.481   0.813  0.2670 -0.1254  0.9779
   34MOL   C47225618   1.105   5.406   0.735  0.0633 -0.1463 -0.4656
   34MOL   C47325619   1.076   5.386   0.586 -0.0073 -0.2436 -0.1550
   34MOL   O47425620   1.136   5.307   0.517  0.0576  0.3372 -0.7957
   34MOL   O47525621   0.972   5.462   0.541 -0.9703  0.1106 -0.0022
   34MOL   C47625622   1.214   5.341   0.802  0.5867  0.4870 -0.2389
   34MOL   C47725623   1.233   5.345   0.946 -0.0953 -0.5081  0.0244
   34MOL   H47825624   0.933   5.580   1.583 -1.4588  0.8856 -1.1819
   34MOL   H47925625   1.101   5.648   1.578  0.4454  0.8394  0.3647
   34MOL   H48025626   1.019   5.869   1.540 -0.5377 -1.9077 -1.5089
   34MOL   H48125627   0.953   5.790   1.680  0.6451 -3.8693  0.4451
   34MOL   H48225628   0.759   5.713   1.559 -0.4101  0.6342  0.2009
   34MOL   H48325629   0.773   6.008   1.494 -2.9737  0.5940 -0.6930
   34MOL   H48425630   0.789   5.967   1.662 -0.6182  0.5801  0.2281
   34MOL   H48525631   0.886   5.865   1.325  0.1591 -0.0847 -1.4708
   34MOL   H48625632   0.717   5.800   1.317 -1.1703 -1.5383  1.9806
   34MOL   H48725633   0.799   5.582   1.358 -1.5695  0.6695 -1.1484
   34MOL   H48825634   0.880   5.660   1.215  0.5455  0.8252  0.0756
   34MOL   H48925635   1.077   5.705   1.345 -1.4024  0.6869 -2.0929
   34MOL   H49025636   1.000   5.422   1.402  0.0861 -0.1103  0.0546
   34MOL   H49125637   1.163   5.496   1.406  1.0098  1.1683 -1.5981
   34MOL   H49225638   0.977   5.555   1.016  0.0555  0.8656  0.3449
   34MOL   H49325639   0.923   5.527   0.775  0.7833 -0.3967 -0.5950
   34MOL   H49425640   1.291   5.282   0.754  0.2448  0.2919 -0.5511
   34MOL   H49525641   1.321   5.300   0.989 -0.9465 -1.8837  0.3689
   34MOL   C49625642   0.543   5.437   0.481  0.1299  0.1923  0.1169
   34MOL   C49725643   0.689   5.397   0.474  0.1721  0.2694 -0.1605
   34MOL   C49825644   0.778   5.509   0.417  0.3534  0.3979  0.4021
   34MOL   C49925645   0.931   5.468   0.410 -0.2929  0.4029 -0.1966
   34MOL   C50025646   0.719   5.542   0.276 -0.2634 -0.6820  0.2904
   34MOL   C50125647   0.569   5.578   0.272  0.1653 -0.2629 -0.4914
   34MOL   C50225648   0.491   5.467   0.339  0.0383 -1.0605  0.4848
   34MOL   C50325649   0.336   5.510   0.333  0.1322  0.5121  0.3743
   34MOL   O50425650   0.317   5.614   0.429 -0.6551 -0.1308 -0.4245
   34MOL   C50525651   0.210   5.690   0.428 -0.3865  0.9853  0.2774
   34MOL   O50625652   0.109   5.663   0.367 -0.3282 -0.1622 -0.4772
   34MOL   C50725653   0.235   5.812   0.512 -0.0474 -0.1207 -0.1784
   34MOL   C50825654   0.336   5.822   0.606 -0.2416  0.1213  0.0987
   34MOL   C50925655   0.344   5.936   0.687  0.4657 -0.5012  0.0950
   34MOL   C51025656   0.247   6.040   0.680  0.0947 -0.6916 -0.7506
   34MOL   C51125657   0.250   6.159   0.772  0.0242  0.1131  0.1609
   34MOL   O51225658   0.348   6.182   0.844  0.4202 -1.3005  0.5881
   34MOL   O51325659   0.139   6.228   0.761  0.1504 -0.6497  0.1195
   34MOL   C51425660   0.143   6.025   0.589  0.1647 -0.9724  0.5423
   34MOL   C51525661   0.135   5.914   0.504  0.8411 -0.5151  0.6302
   34MOL   H51625662   0.534   5.524   0.545 -0.8496 -0.1443  0.4595
   34MOL   H51725663   0.481   5.363   0.532  0.6480 -0.3958 -0.1001
   34MOL   H51825664   0.695   5.305   0.415 -0.8789  0.1275 -0.0555
   34MOL   H51925665   0.723   5.370   0.574  1.0392 -1.6102 -0.9345
   34MOL   H52025666   0.762   5.592   0.486 -1.5555  1.5299 -1.3092
   34MOL   H52125667   0.987   5.553   0.369 -1.6203  0.8010 -1.2352
   34MOL   H52225668   0.954   5.375   0.359  3.6389  0.5068  1.2731
   34MOL   H52325669   0.731   5.453   0.214 -1.4813 -1.3741  1.0421
   34MOL   H52425670   0.776   5.620   0.225  1.4864 -0.3726  2.6248
   34MOL   H52525671   0.560   5.675   0.321  0.2084  0.0358 -1.0744
   34MOL   H52625672   0.535   5.596   0.170  0.6952  0.4219 -0.5537
   34MOL   H52725673   0.498   5.375   0.282 -0.5167 -0.6711 -0.2350
   34MOL   H52825674   0.270   5.428   0.360  0.0202 -0.0657 -1.5687
   34MOL   H52925675   0.293   5.532   0.235 -0.8842  0.1091  0.7297
   34MOL   H53025676   0.400   5.735   0.621 -0.0060  0.4533  1.1107
   34MOL   H53125677   0.423   5.932   0.761 -0.0625  0.7982  0.7448
   34MOL   H53225678   0.061   6.094   0.583  1.0327  0.1730  1.7414
   34MOL   H53325679   0.052   5.902   0.437 -1.8441  1.0397  3.5765
   34MOL   C53425680   7.778   6.447   0.791  0.4596  0.1752  0.0031
   34MOL   C53525681   7.902   6.366   0.840 -0.2032  0.4281  0.1741
   34MOL   C53625682   0.001   6.424   0.785 -0.0089  0.1879 -0.3753
   34MOL   C53725683   0.124   6.345   0.837 -0.1295 -0.2147 -0.1046
   34MOL   C53825684   8.025   6.431   0.627 -0.0304  0.1090  0.3466
   34MOL   C53925685   7.912   6.528   0.597  0.3506  0.7098  0.1566
   34MOL   C54025686   7.779   6.472   0.642 -0.2723 -0.6232 -0.2960
   34MOL   C54125687   7.650   6.558   0.604  0.1691 -0.7850 -0.3097
   34MOL   O54225688   7.672   6.628   0.485 -0.3416 -0.9262  0.0439
   34MOL   C54325689   7.570   6.699   0.431  0.6339 -0.3624 -0.7813
   34MOL   O54425690   7.452   6.703   0.475  0.5170  0.3174 -0.3692
   34MOL   C54525691   7.614   6.784   0.322  0.3765  0.6111  0.6154
   34MOL   C54625692   7.746   6.782   0.283 -0.2449 -0.0399  0.3064
   34MOL   C54725693   7.790   6.843   0.167  0.3749 -0.4768  0.1933
   34MOL   C54825694   7.702   6.919   0.096  0.0022 -0.2565 -0.0476
   34MOL   C54925695   7.755   6.996   8.014  0.1900 -0.1692  0.6199
   34MOL   O55025696   7.834   6.955   7.929 -0.1859  0.1226 -0.6806
   34MOL   O55125697   7.696   7.116   8.004 -0.2209  0.3109 -0.6516
   34MOL   C55225698   7.566   6.935   0.138 -0.0128 -0.4272  0.2329
   34MOL   C55325699   7.519   6.856   0.240  0.0780  0.2856 -0.3787
   34MOL   H55425700   7.775   6.539   0.850 -1.5835 -0.5506  1.0908
   34MOL   H55525701   7.685   6.400   0.821 -0.0899  0.4272 -1.2739
   34MOL   H55625702   7.901   6.264   0.803  1.2169  0.7897 -0.8838
   34MOL   H55725703   7.897   6.354   0.949  0.3006  0.3557  0.1913
   34MOL   H55825704   0.009   6.527   0.817  1.0356 -0.8880  2.9724
   34MOL   H55925705   0.103   6.332   0.943  0.3902 -1.7627 -0.1754
   34MOL   H56025706   0.212   6.409   0.828 -0.1721 -0.2173 -0.5238
   34MOL   H56125707   8.005   6.333   0.584  1.1288 -0.0351  0.1413
   34MOL   H56225708   0.083   6.457   0.571 -2.1795 -1.4177 -4.0858
   34MOL   H56325709   7.934   6.624   0.644  0.9447  0.7983 -0.2972
   34MOL   H56425710   7.917   6.545   0.490  0.5206  0.0630  0.0593
   34MOL   H56525711   7.759   6.377   0.591  0.3367 -0.2121 -1.3276
   34MOL   H56625712   7.627   6.626   0.685  1.3725 -1.0175  0.2478
   34MOL   H56725713   7.568   6.487   0.609 -0.7286  0.2165 -0.6887
   34MOL   H56825714   7.824   6.738   0.344  0.5979  2.1646  0.8846
   34MOL   H56925715   7.893   6.833   0.137  0.7698  0.2156  1.3102
   34MOL   H57025716   7.520   7.017   0.085  1.9705 -0.6782 -1.9901
   34MOL   H57125717   7.415   6.856   0.268  0.4464  1.3266  1.0933
   34MOL   C57225718   7.600   7.343   7.588  0.2474 -0.4407  0.7807
   34MOL   C57325719   7.700   7.325   7.703  0.2150  0.3427  0.2456
   34MOL   C57425720   7.651   7.232   7.807 -0.4543  0.6351  0.3773
   34MOL   C57525721   7.755   7.214   7.916 -0.0052  0.0322 -0.4794
   34MOL   C57625722   7.512   7.278   7.857  1.0841 -0.3407  0.5706
   34MOL   C57725723   7.404   7.292   7.745  0.2861 -0.5960 -0.0845
   34MOL   C57825724   7.456   7.384   7.636 -0.6244  0.0435 -0.4739
   34MOL   C57925725   7.361   7.404   7.518 -0.1048  0.8314  0.4578
   34MOL   O58025726   7.240   7.463   7.555  0.2567  0.4926  0.3864
   34MOL   C58125727   7.126   7.441   7.475 -0.0786  0.0869  0.4720
   34MOL   O58225728   7.127   7.398   7.362 -0.0742 -0.4258 -0.6411
   34MOL   C58325729   7.002   7.489   7.538  0.4649 -0.4586 -0.8009
   34MOL   C58425730   6.987   7.483   7.676  0.6737 -0.1212  0.4147
   34MOL   C58525731   6.869   7.527   7.735  0.4371  0.3555 -0.7092
   34MOL   C58625732   6.759   7.566   7.661  0.3326 -1.3240  0.5207
   34MOL   C58725733   6.621   7.600   7.715  0.1105 -0.4324  0.4966
   34MOL   O58825734   6.520   7.635   7.640  0.2644  1.0005 -0.1170
   34MOL   O58925735   6.605   7.563   7.843  0.1138 -0.3918 -0.9853
   34MOL   C59025736   6.781   7.580   7.523  0.2020  0.3598 -0.1289
   34MOL   C59125737   6.901   7.548   7.462 -0.0595 -0.3806 -0.4443
   34MOL   H59225738   7.597   7.244   7.544  0.4207 -0.0484 -0.1261
   34MOL   H59325739   7.639   7.408   7.509  2.0112 -2.2602  0.1071
   34MOL   H59425740   7.716   7.424   7.746  2.2838  0.0694  0.1519
   34MOL   H59525741   7.799   7.301   7.664  1.7418  0.7293  3.6814
   34MOL   H59625742   7.640   7.134   7.761  0.0569  0.1817  1.2084
   34MOL   H59725743   7.771   7.304   7.975  2.5539 -1.4970  1.2410
   34MOL   H59825744   7.853   7.184   7.879  0.0226  1.0279 -1.2623
   34MOL   H59925745   7.530   7.365   7.921  1.3098  0.4833 -0.5905
   34MOL   H60025746   7.476   7.204   7.928 -0.4397 -0.1618  0.0025
   34MOL   H60125747   7.381   7.192   7.709  1.1922 -0.4542 -1.0706
   34MOL   H60225748   7.319   7.342   7.792  0.6967  0.4481 -0.4268
   34MOL   H60325749   7.455   7.482   7.684 -0.7677 -0.7088  1.0863
   34MOL   H60425750   7.355   7.316   7.454  0.5219  2.2934 -1.6356
   34MOL   H60525751   7.409   7.473   7.448 -1.7133  2.1347  0.6024
   34MOL   H60625752   7.065   7.443   7.738 -0.5837 -0.7609  1.6126
   34MOL   H60725753   6.857   7.514   7.841 -3.3452  0.4758 -1.0649
   34MOL   H60825754   6.704   7.616   7.457  0.8400 -0.4013 -1.3126
   34MOL   H60925755   6.920   7.560   7.356 -0.6343  1.7864 -0.3229
   34MOL   C61025756   6.495   7.524   0.259  0.3400  0.3994 -0.4173
   34MOL   C61125757   6.530   7.578   0.123  0.3091  0.2668  0.2877
   34MOL   C61225758   6.458   7.508   0.006  1.3278 -0.3043  0.1704
   34MOL   C61325759   6.470   7.573   7.896 -0.6898  0.2344 -0.2397
   34MOL   C61425760   6.496   7.357   0.011 -0.4314  0.2481  0.3996
   34MOL   C61525761   6.457   7.295   0.144 -0.3776  0.3079  0.0024
   34MOL   C61625762   6.518   7.367   0.263 -0.5806  0.1500 -0.4500
   34MOL   C61725763   6.466   7.319   0.406 -0.3604 -0.3569  0.7358
   34MOL   O61825764   6.555   7.357   0.508  0.2893 -0.4901 -0.0263
   34MOL   C61925765   6.526   7.358   0.638  0.0604 -0.4409 -0.6976
   34MOL   O62025766   6.416   7.352   0.679 -0.0310 -0.2543  0.6185
   34MOL   C62125767   6.642   7.394   0.721 -0.2750 -0.2421  0.2226
   34MOL   C62225768   6.767   7.438   0.673 -0.6339 -0.7052 -0.3035
   34MOL   C62325769   6.873   7.454   0.771  0.1365 -0.3973  0.0700
   34MOL   C62425770   6.857   7.417   0.903 -0.3224  0.2776  0.2059
   34MOL   C62525771   6.975   7.439   0.992  0.5467 -0.0026  0.5189
   34MOL   O62625772   7.087   7.477   0.960 -0.4055 -0.4023 -0.2228
   34MOL   O62725773   6.944   7.408   1.119  0.5342  0.1726 -0.4340
   34MOL   C62825774   6.737   7.366   0.950 -0.2497 -0.6313 -1.0507
   34MOL   C62925775   6.631   7.363   0.863 -0.3239 -0.3775  0.6139
   34MOL   H63025776   6.390   7.548   0.273  0.9583  3.0612 -0.0286
   34MOL   H63125777   6.549   7.558   0.347  1.0383  0.7644 -0.9801
   34MOL   H63225778   6.639   7.582   0.112  0.1252  1.2662 -1.2795
   34MOL   H63325779   6.493   7.681   0.124  1.4826  0.7338  3.8722
   34MOL   H63425780   6.352   7.521   0.028  1.5169  0.1348  0.8275
   34MOL   H63525781   6.459   7.681   7.906 -0.7767  0.0629  1.5459
   34MOL   H63625782   6.403   7.542   7.816 -1.8164  0.5902  0.5597
   34MOL   H63725783   6.602   7.340   8.026 -0.1482  1.3349  1.0399
   34MOL   H63825784   6.459   7.299   7.959  0.3390  0.2284  0.0675
   34MOL   H63925785   6.348   7.297   0.150 -0.2596  0.4742  2.4942
   34MOL   H64025786   6.477   7.189   0.154 -2.9484 -0.0679  1.5842
   34MOL   H64125787   6.626   7.350   0.259 -0.5157  0.8502 -2.2499
   34MOL   H64225788   6.458   7.211   0.418  0.2168 -0.1537  3.2862
   34MOL   H64325789   6.368   7.364   0.417 -0.4043  0.4211 -2.3416
   34MOL   H64425790   6.786   7.454   0.568  0.5622 -1.3323 -0.1972
   34MOL   H64525791   6.967   7.492   0.735 -0.4688  1.5336  0.4598
   34MOL   H64625792   6.725   7.345   1.056  0.1653  0.3448 -0.7978
   34MOL   H64725793   6.535   7.325   0.897 -1.5478  2.4565  0.4366
   34MOL   C64825794   7.165   7.061   1.342 -0.0838 -0.1647  1.1952
   34MOL   C64925795   7.065   7.181   1.327 -0.5666 -0.2333 -0.2044
   34MOL   C65025796   7.131   7.293   1.243 -0.0327 -0.3561  0.3663
   34MOL   C65125797   7.040   7.425   1.226  0.0493  0.3023 -0.1478
   34MOL   C65225798   7.256   7.342   1.313 -0.2349 -0.4144  0.3503
   34MOL   C65325799   7.355   7.223   1.333 -0.3964  0.1338 -0.1274
   34MOL   C65425800   7.293   7.099   1.409  0.2285  0.2205  0.3175
   34MOL   C65525801   7.400   6.991   1.408  0.7933 -0.5758  0.1128
   34MOL   O65625802   7.370   6.896   1.512 -0.0620 -0.5011  0.1947
   34MOL   C65725803   7.427   6.778   1.515 -0.2409 -0.2263 -0.2620
   34MOL   O65825804   7.502   6.731   1.429 -0.0517 -0.0137  0.0741
   34MOL   C65925805   7.404   6.702   1.643  0.1216 -0.1148  0.5855
   34MOL   C66025806   7.286   6.730   1.715 -0.8082  0.4093  0.0433
   34MOL   C66125807   7.265   6.658   1.838 -0.3277 -0.2292  0.3842
   34MOL   C66225808   7.363   6.566   1.886 -0.4129  0.5752  0.0587
   34MOL   C66325809   7.356   6.504   2.019  0.3624  0.4028 -0.4636
   34MOL   O66425810   7.431   6.420   2.067 -0.5096  0.5464  0.5396
   34MOL   O66525811   7.233   6.536   2.080 -0.1082 -0.4139 -0.2331
   34MOL   C66625812   7.480   6.538   1.812  0.4437 -0.5493  0.0190
   34MOL   C66725813   7.500   6.610   1.691  0.9809  0.1585  0.4803
   34MOL   H66825814   7.174   7.009   1.247 -1.9361 -0.5388  1.1986
   34MOL   H66925815   7.114   6.986   1.402  0.4158 -2.2293 -0.9168
   34MOL   H67025816   7.025   7.219   1.421 -0.3111  0.4637 -0.3772
   34MOL   H67125817   6.976   7.140   1.280 -0.0989 -1.4353 -0.0692
   34MOL   H67225818   7.161   7.269   1.141 -0.0242  0.6191  0.1302
   34MOL   H67325819   7.117   7.496   1.197 -1.3367  0.3010 -4.0834
   34MOL   H67425820   6.987   7.446   1.319 -0.6666 -0.1981 -0.4348
   34MOL   H67525821   7.227   7.388   1.407 -0.9345  0.7048 -0.4023
   34MOL   H67625822   7.304   7.423   1.257 -0.5715  1.1978  2.3139
   34MOL   H67725823   7.397   7.203   1.235  0.6249  2.9628 -0.3197
   34MOL   H67825824   7.444   7.258   1.386 -1.4747  0.3253  1.5907
   34MOL   H67925825   7.266   7.136   1.507 -2.2712 -1.6767  0.3926
   34MOL   H68025826   7.493   7.027   1.452 -0.6633  1.0450  1.9489
   34MOL   H68125827   7.416   6.945   1.311  1.1121 -0.4891  0.1245
   34MOL   H68225828   7.208   6.796   1.678  1.4227  3.0784 -0.0564
   34MOL   H68325829   7.176   6.687   1.893 -1.8081 -1.3433 -1.3361
   34MOL   H68425830   7.553   6.472   1.857  2.0048  1.4120  0.4504
   34MOL   H68525831   7.592   6.603   1.635  0.3384  2.8292 -0.9930
   34MOL   C68625832   7.159   6.738   2.485 -0.4280 -0.0356  0.8975
   34MOL   C68725833   7.226   6.658   2.370 -0.0197  0.3916  0.2314
   34MOL   C68825834   7.121   6.568   2.295 -0.2428  0.0376 -0.4233
   34MOL   C68925835   7.193   6.467   2.202 -0.2058 -0.2448  0.3096
   34MOL   C69025836   7.025   6.487   2.392 -0.7839 -0.3150  0.7149
   34MOL   C69125837   6.981   6.569   2.507  0.2073 -0.2906 -0.5562
   34MOL   C69225838   7.091   6.640   2.585  0.0209  0.4387  0.7473
   34MOL   C69325839   7.025   6.721   2.698  0.1914 -0.1710  0.2779
   34MOL   O69425840   6.956   6.637   2.786 -0.3044  0.1531  0.9026
   34MOL   C69525841   6.820   6.648   2.819  0.5397 -0.4333 -0.2801
   34MOL   O69625842   6.736   6.719   2.759 -0.4660 -0.6267  0.1813
   34MOL   C69725843   6.791   6.558   2.931 -0.6554  0.0201 -0.2403
   34MOL   C69825844   6.895   6.487   2.998  0.7602  0.4059 -0.0342
   34MOL   C69925845   6.862   6.412   3.109 -0.2805 -0.2023 -0.0668
   34MOL   C70025846   6.730   6.393   3.156  0.8257 -0.8409  0.1865
   34MOL   C70125847   6.704   6.308   3.275  0.3801 -0.0485 -0.0872
   34MOL   O70225848   6.793   6.251   3.329  0.1270  0.5090  0.1124
   34MOL   O70325849   6.570   6.298   3.300 -0.6123 -0.7101  0.6001
   34MOL   C70425850   6.627   6.446   3.075  0.4966 -0.5268  0.3982
   34MOL   C70525851   6.654   6.530   2.967  0.7104 -0.3381  0.2615
   34MOL   H70625852   7.087   6.814   2.454 -1.4515 -1.3212  0.0801
   34MOL   H70725853   7.231   6.801   2.536 -0.6648  1.5235 -0.6339
   34MOL   H70825854   7.319   6.609   2.398 -0.4085  0.2330  1.2780
   34MOL   H70925855   7.267   6.724   2.293  0.6130  0.6491  0.7816
   34MOL   H71025856   7.050   6.621   2.232  1.2488  2.0303 -0.4704
   34MOL   H71125857   7.126   6.389   2.168  1.7214 -1.3863 -0.9354
   34MOL   H71225858   7.275   6.417   2.254  1.4787  0.2432 -1.7952
   34MOL   H71325859   7.075   6.395   2.423  0.8902 -0.1212 -1.2884
   34MOL   H71425860   6.935   6.476   2.331  1.4386 -0.3545 -2.7312
   34MOL   H71525861   6.926   6.652   2.460 -0.0778  0.1176  0.4900
   34MOL   H71625862   6.918   6.504   2.567  0.6549  1.2017  1.6006
   34MOL   H71725863   7.156   6.569   2.636  1.4982  0.0109 -1.6482
   34MOL   H71825864   6.951   6.778   2.642 -1.3656 -0.4074  2.0783
   34MOL   H71925865   7.096   6.783   2.753  2.5359 -1.6989 -0.9340
   34MOL   H72025866   6.998   6.492   2.966  0.2829  2.4040 -1.3778
   34MOL   H72125867   6.939   6.360   3.165  1.9030  4.1158  1.1625
   34MOL   H72225868   6.521   6.435   3.096 -0.2772  1.7624 -2.1215
   34MOL   H72325869   6.572   6.562   2.904 -0.0018 -2.3092  0.1282
   34MOL   C72425870   6.196   6.383   3.541 -0.0747 -0.0222  0.0023
   34MOL   C72525871   6.294   6.335   3.428 -0.1189  0.4595  0.5092
   34MOL   C72625872   6.425   6.271   3.487 -0.1245 -0.7139 -0.0533
   34MOL   C72725873   6.517   6.206   3.391 -1.0512  0.3748 -0.6466
   34MOL   C72825874   6.489   6.367   3.596 -0.6861 -0.0976  0.3227
   34MOL   C72925875   6.388   6.402   3.705  0.1960  0.5210  0.8931
   34MOL   C73025876   6.273   6.476   3.638  0.6263  0.2801  0.2598
   34MOL   C73125877   6.186   6.531   3.752  0.8194 -0.3369  0.2484
   34MOL   O73225878   6.046   6.548   3.722 -0.2154 -0.9350 -0.3697
   34MOL   C73325879   6.002   6.676   3.709  0.1592 -0.3594 -0.2673
   34MOL   O73425880   6.070   6.776   3.721 -0.5031 -0.0916  0.7877
   34MOL   C73525881   5.855   6.684   3.683  0.3059 -0.0393 -0.3902
   34MOL   C73625882   5.776   6.570   3.683  0.7896  0.1041 -0.4526
   34MOL   C73725883   5.636   6.584   3.647  0.2333 -0.7123  0.2050
   34MOL   C73825884   5.577   6.713   3.626  0.4967  1.0276  0.1380
   34MOL   C73925885   5.433   6.727   3.589  0.6189  0.1378  0.0817
   34MOL   O74025886   5.375   6.833   3.603  0.2750 -0.5931 -0.0228
   34MOL   O74125887   5.379   6.624   3.516  0.2386  0.1539  0.2726
   34MOL   C74225888   5.663   6.828   3.625 -0.5013 -0.1740  0.3013
   34MOL   C74325889   5.797   6.810   3.654 -0.4027 -0.0774 -0.7116
   34MOL   H74425890   6.154   6.294   3.588  1.2287 -0.6494 -0.0057
   34MOL   H74525891   6.115   6.444   3.499 -0.7606 -1.3664 -0.6750
   34MOL   H74625892   6.325   6.419   3.366  1.5316  1.1543  2.2236
   34MOL   H74725893   6.238   6.267   3.365  0.2827  0.8863 -0.3133
   34MOL   H74825894   6.393   6.182   3.542  1.6762 -0.1230  2.0353
   34MOL   H74925895   6.463   6.131   3.332  0.1367 -0.5722 -0.5354
   34MOL   H75025896   6.595   6.162   3.452 -1.9643  0.4328  0.5961
   34MOL   H75125897   6.529   6.464   3.566 -1.4286  0.5124  1.2631
   34MOL   H75225898   6.574   6.315   3.640 -0.3107  0.3829  0.1739
   34MOL   H75325899   6.353   6.306   3.743 -1.4263  0.4821 -0.6352
   34MOL   H75425900   6.424   6.473   3.779  0.0747  1.5738 -0.0449
   34MOL   H75525901   6.309   6.561   3.579  1.5066  1.2342  2.1380
   34MOL   H75625902   6.222   6.624   3.796 -0.6280  0.8988 -1.1487
   34MOL   H75725903   6.187   6.465   3.839  0.7782 -0.0549  0.4610
   34MOL   H75825904   5.812   6.470   3.704 -1.7992 -0.9828 -0.9798
   34MOL   H75925905   5.563   6.505   3.653  0.0420 -0.5865 -0.3744
   34MOL   H76025906   5.630   6.928   3.599 -2.3951 -0.7622  0.3563
   34MOL   H76125907   5.864   6.895   3.658 -1.3079  0.6796 -1.4465
   34MOL   H76225908   5.298   6.657   3.482 -0.8722 -0.4248  2.2620
   35MOL     C125909   2.015   6.321   0.449  0.1620 -0.3034 -0.1173
   35MOL     C225910   2.029   6.470   0.438  0.2497  0.4364  0.1397
   35MOL     C325911   2.152   6.516   0.510 -0.4377 -0.3392 -0.0169
   35MOL     C425912   2.172   6.665   0.496  0.9621  0.5341 -0.1062
   35MOL     C525913   2.140   6.475   0.656  0.1243  0.1469  0.1349
   35MOL     C625914   2.133   6.321   0.665  0.7274 -0.6007  0.6287
   35MOL     C725915   2.016   6.268   0.591 -0.6281 -0.2992  0.1892
   35MOL     C825916   2.012   6.114   0.589 -0.9904 -0.4243 -0.3090
   35MOL     O925917   1.880   6.061   0.556 -0.0670  0.5847 -0.3196
   35MOL    C1025918   1.801   6.005   0.649 -0.2734 -1.5408 -0.2177
   35MOL    O1125919   1.833   5.991   0.765  0.4148 -0.2996  0.0815
   35MOL    C1225920   1.671   5.962   0.594  0.2433 -0.2907  0.3671
   35MOL    C1325921   1.583   5.881   0.674  0.3149  0.2251 -0.8581
   35MOL    C1425922   1.461   5.836   0.625 -0.2148 -0.1961 -0.7228
   35MOL    C1525923   1.419   5.866   0.497  0.1860  1.0246  0.9491
   35MOL    C1625924   1.284   5.814   0.444 -0.2908 -0.2794  0.0015
   35MOL    O1725925   1.208   5.743   0.514 -0.0786 -0.3116  0.2534
   35MOL    O1825926   1.253   5.851   0.314  0.4440  0.1985  0.2526
   35MOL    C1925927   1.504   5.945   0.415  0.6899 -0.2481  0.5751
   35MOL    C2025928   1.626   5.985   0.462  0.0389 -0.1841  0.0343
   35MOL    H2125929   2.090   6.265   0.393 -0.4171 -0.0519 -1.1646
   35MOL    H2225930   1.914   6.290   0.422 -0.2183 -0.7395  1.7289
   35MOL    H2325931   1.946   6.527   0.481 -1.3905 -1.4778 -0.4240
   35MOL    H2425932   2.038   6.494   0.333 -2.4132 -2.2018 -0.7592
   35MOL    H2525933   2.230   6.457   0.463 -2.0727 -0.4676 -2.6781
   35MOL    H2625934   2.138   6.697   0.398 -0.1471 -0.4183 -0.0470
   35MOL    H2725935   2.265   6.702   0.538  0.8052 -1.0362  1.7034
   35MOL    H2825936   2.067   6.522   0.721  0.0720 -2.0500  1.7117
   35MOL    H2925937   2.237   6.500   0.700 -0.0207  2.1091 -0.5886
   35MOL    H3025938   2.226   6.285   0.621  0.0697 -1.8531  0.2206
   35MOL    H3125939   2.138   6.289   0.770  1.5041 -0.0795  0.7585
   35MOL    H3225940   1.929   6.303   0.646  0.5175  1.8230  0.6860
   35MOL    H3325941   2.042   6.077   0.687 -0.6370  1.3943  0.2822
   35MOL    H3425942   2.094   6.080   0.527 -0.1188 -0.0191  0.6016
   35MOL    H3525943   1.616   5.852   0.772 -2.3071  0.5952  0.1803
   35MOL    H3625944   1.398   5.772   0.686  2.8663 -1.2154  1.5249
   35MOL    H3725945   1.489   5.966   0.310 -0.8305  0.5942  0.9588
   35MOL    H3825946   1.695   6.040   0.400 -2.6527  0.9631 -2.0349
   35MOL    H3925947   2.092   6.710   0.555  0.7275  1.0124 -0.7853
   35MOL    C4025948   0.979   5.846   7.929  0.7815  0.2530  0.2043
   35MOL    C4125949   0.991   5.830   0.049  0.5017  0.3272 -0.7498
   35MOL    C4225950   1.128   5.851   0.113  0.1499 -0.5676  0.8312
   35MOL    C4325951   1.129   5.805   0.259  0.3025  0.1037  0.4070
   35MOL    C4425952   1.239   5.771   0.039 -0.5579 -0.8266  0.0519
   35MOL    C4525953   1.235   5.806   7.917  0.4609  0.0836  0.3657
   35MOL    C4625954   1.099   5.772   7.853 -0.1286 -0.3453 -0.4010
   35MOL    C4725955   1.082   5.800   7.702 -0.0619 -0.6240 -0.7106
   35MOL    O4825956   1.176   5.739   7.617 -0.6734 -0.5234  0.0419
   35MOL    C4925957   1.271   5.806   7.551 -0.4418  0.2779  0.8162
   35MOL    O5025958   1.277   5.932   7.562 -0.0412  0.6482  0.2582
   35MOL    C5125959   1.359   5.716   7.485 -0.6508  0.7600  0.0938
   35MOL    C5225960   1.381   5.584   7.543  0.3717 -0.2224  0.0104
   35MOL    C5325961   1.461   5.490   7.481 -0.1504  0.2952  0.8360
   35MOL    C5425962   1.539   5.525   7.369 -0.1393  0.9050  0.1163
   35MOL    C5525963   1.646   5.427   7.321 -0.3940 -0.4381 -0.8063
   35MOL    O5625964   1.659   5.311   7.363  0.6302 -0.1725  0.1340
   35MOL    O5725965   1.728   5.480   7.231  0.2707 -0.2138 -0.4580
   35MOL    C5825966   1.526   5.656   7.310  0.5172 -0.4080  0.8282
   35MOL    C5925967   1.442   5.748   7.374 -0.1394 -0.2419 -0.2476
   35MOL    H6025968   0.984   5.953   7.914  0.1646  0.5147  1.7199
   35MOL    H6125969   0.882   5.813   7.892  1.4099 -0.3176 -0.9449
   35MOL    H6225970   0.971   5.727   0.078  0.9221  0.6333  0.6637
   35MOL    H6325971   0.921   5.895   0.102 -0.1882 -1.5403  0.6692
   35MOL    H6425972   1.144   5.959   0.116 -0.4843 -0.5148  3.2566
   35MOL    H6525973   1.145   5.697   0.268  0.8297 -0.0393 -2.0323
   35MOL    H6625974   1.040   5.837   0.313 -0.1958 -0.8148  0.1372
   35MOL    H6725975   1.224   5.665   0.060 -2.4371 -0.6794 -0.5385
   35MOL    H6825976   1.338   5.799   0.077  0.6955 -2.0619 -2.1910
   35MOL    H6925977   1.260   5.909   7.890 -0.0547  0.1314  0.0529
   35MOL    H7025978   1.319   5.756   7.869 -1.4797 -0.4324 -2.6498
   35MOL    H7125979   1.083   5.667   7.878  0.7753  0.4541  3.9501
   35MOL    H7225980   1.091   5.908   7.685 -0.1737 -0.2280  1.5810
   35MOL    H7325981   0.981   5.773   7.670  0.1601 -0.9939 -1.1016
   35MOL    H7425982   1.331   5.553   7.633  2.7993  2.0989  2.2786
   35MOL    H7525983   1.472   5.400   7.539 -0.3765 -1.0658 -1.1697
   35MOL    H7625984   1.589   5.700   7.235 -0.4151 -2.0840 -0.9995
   35MOL    H7725985   1.445   5.850   7.341  1.0556 -0.7461 -1.7578
   35MOL    C7825986   2.070   5.485   6.883 -0.7363 -0.6188  0.0051
   35MOL    C7925987   2.009   5.402   6.997 -0.0557 -0.3903  0.0798
   35MOL    C8025988   1.886   5.476   7.058 -0.1703  1.4502  0.0827
   35MOL    C8125989   1.837   5.409   7.181 -0.4136  0.3452 -0.1107
   35MOL    C8225990   1.926   5.623   7.094  0.3959 -0.0773  0.4683
   35MOL    C8325991   1.988   5.704   6.977  0.4143  0.1195 -0.1336
   35MOL    C8425992   2.110   5.625   6.927  0.2718  0.2113 -0.2622
   35MOL    C8525993   2.169   5.694   6.801 -0.5024 -0.3851  0.5404
   35MOL    O8625994   2.060   5.719   6.705 -0.1306 -0.1280 -0.4634
   35MOL    C8725995   2.063   5.837   6.638 -0.8662 -0.1688  0.0436
   35MOL    O8825996   2.156   5.915   6.637 -0.2145  0.4165 -0.1435
   35MOL    C8925997   1.934   5.874   6.574  0.4781 -0.0132  0.0864
   35MOL    C9025998   1.926   5.993   6.498 -0.0927  0.3008 -0.1863
   35MOL    C9125999   1.820   6.016   6.412  0.5235 -0.0895  0.2001
   35MOL    C9226000   1.709   5.935   6.420 -0.4259  0.1383 -0.3739
   35MOL    C9326001   1.588   5.968   6.335 -0.7355  0.1071  0.4374
   35MOL    O9426002   1.596   6.028   6.228 -0.1969  0.2319 -0.3931
   35MOL    O9526003   1.474   5.930   6.387 -0.0345 -0.0527 -0.2811
   35MOL    C9626004   1.710   5.814   6.499 -0.1491 -0.7335  0.7691
   35MOL    C9726005   1.819   5.787   6.581  0.2432  0.2586 -0.0187
   35MOL    H9826006   1.992   5.506   6.809 -1.4091  2.2488  1.4463
   35MOL    H9926007   2.165   5.440   6.855 -0.9353 -2.6994  2.4765
   35MOL   H10026008   2.080   5.386   7.078  1.0176  1.1566 -0.5166
   35MOL   H10126009   1.973   5.306   6.961  2.2889 -0.9016 -0.9624
   35MOL   H10226010   1.809   5.477   6.981  0.1168  1.2599 -0.2109
   35MOL   H10326011   1.919   5.430   7.251  0.7262 -0.2074 -1.2595
   35MOL   H10426012   1.826   5.301   7.167 -0.6308  0.6623 -2.5806
   35MOL   H10526013   2.014   5.609   7.157 -0.4038 -0.8707  1.4207
   35MOL   H10626014   1.846   5.674   7.147 -1.6850 -1.3549 -1.3789
   35MOL   H10726015   1.914   5.714   6.897  0.3152 -0.0709 -0.0661
   35MOL   H10826016   2.013   5.807   7.003  1.7099 -0.3762  0.6770
   35MOL   H10926017   2.189   5.612   7.001  0.1557 -0.6823 -0.2884
   35MOL   H11026018   2.228   5.624   6.742 -0.6209 -0.1366  0.1268
   35MOL   H11126019   2.232   5.779   6.827  0.1115 -1.0064  1.1202
   35MOL   H11226020   2.011   6.060   6.494  1.1002 -1.0899  1.2203
   35MOL   H11326021   1.810   6.108   6.355 -2.1299  0.6464  1.7381
   35MOL   H11426022   1.622   5.751   6.498 -1.5591  1.1767  0.1172
   35MOL   H11526023   1.827   5.701   6.645 -0.3470  2.3382  2.9281
   35MOL   C11626024   1.049   5.884   6.543  0.2490  0.3402 -0.2895
   35MOL   C11726025   1.177   5.950   6.495  0.1056 -0.4593  0.6132
   35MOL   C11826026   1.243   5.872   6.382  0.2249 -0.1067  0.3468
   35MOL   C11926027   1.359   5.939   6.305 -0.1309 -0.1827 -0.3644
   35MOL   C12026028   1.276   5.728   6.430 -0.1612  1.0026  0.0139
   35MOL   C12126029   1.155   5.651   6.491 -0.3011  0.8552  0.8052
   35MOL   C12226030   1.082   5.740   6.596 -0.0181  0.3411 -0.2262
   35MOL   C12326031   0.969   5.670   6.661 -0.0689 -0.2041 -0.4594
   35MOL   O12426032   0.892   5.590   6.566 -0.5022  0.4241 -0.5114
   35MOL   C12526033   0.779   5.629   6.501  0.0264  0.1013 -0.4765
   35MOL   O12626034   0.733   5.738   6.525  0.1206 -0.3880  0.3825
   35MOL   C12726035   0.718   5.529   6.411  0.1746  0.8233  0.2299
   35MOL   C12826036   0.775   5.403   6.388  0.2233 -0.8681  0.0673
   35MOL   C12926037   0.708   5.303   6.314 -1.0267  0.5391 -0.6127
   35MOL   C13026038   0.573   5.325   6.269 -0.6962  0.1992 -0.1124
   35MOL   C13126039   0.498   5.210   6.210 -0.3683 -0.3512 -0.6168
   35MOL   O13226040   0.420   5.223   6.117 -0.5861 -0.3882 -0.2878
   35MOL   O13326041   0.533   5.097   6.271 -0.4233 -0.1106  0.0792
   35MOL   C13426042   0.522   5.457   6.285 -0.2976  0.2854 -0.4774
   35MOL   C13526043   0.587   5.560   6.361 -0.3811  0.4907  0.0001
   35MOL   H13626044   0.986   5.866   6.455  2.0042  0.5285 -1.6297
   35MOL   H13726045   0.997   5.954   6.608  0.7113  0.2517  0.1741
   35MOL   H13826046   1.253   5.974   6.569  1.0074 -0.5638 -0.2749
   35MOL   H13926047   1.168   6.057   6.475  0.9720 -0.8388 -1.8591
   35MOL   H14026048   1.172   5.873   6.299 -1.0146  0.8513  1.4023
   35MOL   H14126049   1.342   6.043   6.278  1.2685  0.5569  1.4899
   35MOL   H14226050   1.379   5.886   6.213 -1.3446  2.9490 -2.5204
   35MOL   H14326051   1.361   5.722   6.498 -0.3028  0.7462  0.1667
   35MOL   H14426052   1.310   5.669   6.345  1.5670  2.8618 -0.6521
   35MOL   H14526053   1.087   5.614   6.414  2.5755  1.4587 -2.1388
   35MOL   H14626054   1.190   5.560   6.539 -1.1208  0.0343 -0.1526
   35MOL   H14726055   1.149   5.756   6.680 -1.8496 -2.8805  1.9622
   35MOL   H14826056   0.906   5.744   6.710 -0.4753  1.3741 -3.2784
   35MOL   H14926057   1.012   5.611   6.742 -0.4279  1.1602  0.7246
   35MOL   H15026058   0.874   5.386   6.428  0.8529  0.2669 -0.9746
   35MOL   H15126059   0.758   5.208   6.303 -0.5646  0.7929 -0.7321
   35MOL   H15226060   0.421   5.476   6.250 -0.1609  4.7055  1.1176
   35MOL   H15326061   0.539   5.655   6.372 -0.6562  0.2524  0.9494
   35MOL   C15426062   0.402   4.630   6.392 -0.4246  0.2875 -0.5207
   35MOL   C15526063   0.398   4.745   6.291 -0.5259 -0.2230  0.0675
   35MOL   C15626064   0.470   4.867   6.343  0.6105  0.1239  0.9847
   35MOL   C15726065   0.465   4.977   6.235  0.0341  0.3561 -0.6487
   35MOL   C15826066   0.418   4.911   6.477 -0.2612  0.1960 -0.0449
   35MOL   C15926067   0.411   4.797   6.587  0.2949 -0.0795 -0.2068
   35MOL   C16026068   0.353   4.668   6.530 -0.2103  1.0494  0.7789
   35MOL   C16126069   0.382   4.546   6.628  0.2971  0.0801 -0.0033
   35MOL   O16226070   0.287   4.442   6.594 -0.3928  0.0865 -0.4163
   35MOL   C16326071   0.260   4.339   6.675  0.8839  0.1961 -0.5652
   35MOL   O16426072   0.290   4.335   6.798 -0.6680  0.5213 -0.0131
   35MOL   C16526073   0.206   4.218   6.605 -0.3125 -0.6616 -0.0358
   35MOL   C16626074   0.201   4.093   6.672 -0.3803 -1.0181  0.4340
   35MOL   C16726075   0.151   3.977   6.604  0.5927  0.1040 -0.0312
   35MOL   C16826076   0.113   3.992   6.469 -0.5148 -0.4459  0.3702
   35MOL   C16926077   0.059   3.875   6.403 -0.2856 -0.5836 -0.0945
   35MOL   O17026078   0.066   3.764   6.450  0.0268  0.1888  0.5759
   35MOL   O17126079   0.005   3.901   6.275  0.6731 -0.2806  0.0019
   35MOL   C17226080   0.123   4.114   6.399  0.0717  0.1544  0.5527
   35MOL   C17326081   0.166   4.229   6.469 -0.3666  0.6307  0.1717
   35MOL   H17426082   0.502   4.587   6.390 -0.6778 -0.2301 -2.2530
   35MOL   H17526083   0.335   4.551   6.358 -1.7213 -0.6423  3.9097
   35MOL   H17626084   0.294   4.775   6.277 -0.1675 -0.6447 -4.1872
   35MOL   H17726085   0.454   4.717   6.201 -0.8109 -3.8656  0.9287
   35MOL   H17826086   0.574   4.837   6.356  0.9847  0.8763 -0.2051
   35MOL   H17926087   0.364   5.005   6.205  0.1025  0.0422 -1.1773
   35MOL   H18026088   0.505   4.953   6.137 -0.5134 -1.4319 -0.4547
   35MOL   H18126089   0.321   4.961   6.471 -0.4303  0.3005  2.6996
   35MOL   H18226090   0.477   4.994   6.517  0.9890 -0.7892  0.2023
   35MOL   H18326091   0.514   4.778   6.618 -0.0497  0.5889  1.4026
   35MOL   H18426092   0.358   4.841   6.672  0.5899  2.1453 -1.1242
   35MOL   H18526093   0.245   4.679   6.527 -0.5359 -2.2252 -0.8719
   35MOL   H18626094   0.350   4.575   6.728 -1.6461 -2.5950  0.2401
   35MOL   H18726095   0.485   4.512   6.620 -0.0217 -1.6869  2.8053
   35MOL   H18826096   0.217   4.079   6.777 -2.9210 -0.6830  0.8918
   35MOL   H18926097   0.155   3.883   6.657 -0.0188 -0.7157 -1.4220
   35MOL   H19026098   0.092   4.135   6.298  0.1466 -0.4292  0.4043
   35MOL   H19126099   0.188   4.317   6.411 -0.3789  1.1084  0.8914
   35MOL   C19226100   0.340   3.813   5.994 -1.2018 -0.1331 -0.2316
   35MOL   C19326101   0.237   3.812   6.114 -0.0525 -0.0692 -0.1555
   35MOL   C19426102   0.092   3.816   6.064  0.0001  0.0598 -0.5375
   35MOL   C19526103   8.025   3.794   6.179  0.3118 -0.6445 -0.9864
   35MOL   C19626104   0.065   3.948   5.992  0.0331  0.0930  0.0943
   35MOL   C19726105   0.159   3.952   5.866  0.7868  0.3046 -0.3984
   35MOL   C19826106   0.312   3.934   5.906 -0.1595 -0.7680  0.0882
   35MOL   C19926107   0.403   3.945   5.779  0.4855 -0.0087 -0.7137
   35MOL   O20026108   0.527   3.995   5.818  0.2554  0.3141 -0.0533
   35MOL   C20126109   0.639   3.964   5.744  0.2653  0.1961  0.8411
   35MOL   O20226110   0.640   3.896   5.643  0.3325 -0.1637 -0.3839
   35MOL   C20326111   0.766   4.028   5.802 -0.5390 -0.1905 -0.1450
   35MOL   C20426112   0.895   4.023   5.744 -0.6504 -0.6821  0.1315
   35MOL   C20526113   1.007   4.072   5.813 -0.3773  0.2802 -0.6573
   35MOL   C20626114   0.992   4.128   5.945 -0.5619 -0.2540  0.0028
   35MOL   C20726115   1.111   4.175   6.021  0.5700 -0.0776  0.1978
   35MOL   O20826116   1.223   4.192   5.972 -0.4803 -0.3775  0.1510
   35MOL   O20926117   1.082   4.193   6.148 -0.7396 -0.4469 -0.3223
   35MOL   C21026118   0.861   4.153   5.993  0.7079 -0.1901  0.3767
   35MOL   C21126119   0.751   4.095   5.926  0.6143 -0.5315 -0.3643
   35MOL   H21226120   0.327   3.719   5.942 -3.2459  0.8209 -1.5245
   35MOL   H21326121   0.443   3.816   6.029 -1.0906 -0.5937 -0.5210
   35MOL   H21426122   0.242   3.897   6.181  0.3333  1.2975 -1.9005
   35MOL   H21526123   0.249   3.721   6.173  0.8301 -0.1209 -0.4076
   35MOL   H21626124   0.070   3.743   5.986 -3.1052  0.1825  0.1481
   35MOL   H21726125   8.023   3.695   6.225  1.0320 -1.0437 -1.7982
   35MOL   H21826126   7.920   3.805   6.152  0.6644 -0.6992 -2.4316
   35MOL   H21926127   0.082   4.034   6.056  0.7830 -0.6115  0.8631
   35MOL   H22026128   7.989   3.951   5.976 -0.0087 -0.4825  0.2557
   35MOL   H22126129   0.136   3.881   5.787  1.2218  1.2576 -1.3944
   35MOL   H22226130   0.140   4.049   5.820 -2.2636 -0.5895 -1.0728
   35MOL   H22326131   0.337   4.022   5.966 -0.5784 -0.5627 -0.0368
   35MOL   H22426132   0.359   4.013   5.705 -1.2054 -1.0196 -0.6704
   35MOL   H22526133   0.396   3.849   5.727 -2.6046 -1.4110  2.1571
   35MOL   H22626134   0.920   3.981   5.648  3.4811 -0.3115  0.9600
   35MOL   H22726135   1.104   4.055   5.770  0.0858  1.4104 -0.0950
   35MOL   H22826136   0.848   4.212   6.081  1.0875  1.7327 -0.8288
   35MOL   H22926137   0.653   4.112   5.969  0.8462  1.3819 -0.5743
   35MOL   C23026138   0.932   4.342   6.524  0.3452  0.3930  0.1566
   35MOL   C23126139   0.992   4.344   6.378  0.3741  0.6797 -0.1416
   35MOL   C23226140   1.098   4.229   6.373 -0.5301 -0.2254 -0.6552
   35MOL   C23326141   1.175   4.234   6.240 -0.4618  0.0108 -0.1965
   35MOL   C23426142   1.199   4.252   6.491  1.1800  0.5839 -0.1927
   35MOL   C23526143   1.135   4.253   6.631  0.3555  0.1940 -0.3348
   35MOL   C23626144   1.034   4.362   6.640  0.1271  0.7096 -0.4919
   35MOL   C23726145   0.974   4.374   6.776 -0.3510 -0.5673  0.5132
   35MOL   O23826146   0.900   4.249   6.791  0.1921  0.1827 -0.2438
   35MOL   C23926147   0.770   4.248   6.800  0.9585 -0.1396 -0.2149
   35MOL   O24026148   0.692   4.340   6.789  0.2185 -0.8672 -0.2874
   35MOL   C24126149   0.723   4.115   6.812 -0.4075 -0.0737 -0.4658
   35MOL   C24226150   0.811   4.017   6.859  0.2331 -0.1919 -0.2883
   35MOL   C24326151   0.765   3.883   6.855 -0.8533  0.0140 -0.4812
   35MOL   C24426152   0.633   3.848   6.820  0.4499  0.1934  0.5758
   35MOL   C24526153   0.595   3.707   6.818 -0.3175  0.4031 -0.1896
   35MOL   O24626154   0.662   3.618   6.870  0.5997  0.4436 -0.3670
   35MOL   O24726155   0.487   3.682   6.740  0.2292  0.4876 -0.3867
   35MOL   C24826156   0.542   3.952   6.794  0.0522  0.3473  0.2238
   35MOL   C24926157   0.588   4.083   6.787  0.6867 -0.6831  0.6535
   35MOL   H25026158   0.863   4.260   6.543  1.4709 -0.5394  0.2245
   35MOL   H25126159   0.862   4.425   6.533 -1.0981 -0.8325  0.4145
   35MOL   H25226160   1.039   4.442   6.365 -2.4132  1.9377 -1.0143
   35MOL   H25326161   0.928   4.349   6.291  1.0964 -1.2092 -0.8011
   35MOL   H25426162   1.048   4.131   6.375  1.1452 -1.1084  2.4100
   35MOL   H25526163   1.264   4.171   6.242  0.9501  1.9027 -2.3542
   35MOL   H25626164   1.209   4.336   6.226 -1.8654  0.4354 -0.5633
   35MOL   H25726165   1.256   4.344   6.476 -1.0466  1.8154 -1.2467
   35MOL   H25826166   1.268   4.168   6.494  0.2545 -0.1649  0.8449
   35MOL   H25926167   1.082   4.159   6.641 -0.7672  0.7114 -1.3835
   35MOL   H26026168   1.212   4.259   6.708 -1.3244  0.4605  1.3581
   35MOL   H26126169   1.088   4.457   6.629 -1.8224  1.9524  0.3669
   35MOL   H26226170   0.909   4.461   6.782 -0.7438 -0.6287 -2.0739
   35MOL   H26326171   1.041   4.392   6.859 -1.3782 -0.5962  1.3671
   35MOL   H26426172   0.915   4.036   6.883  0.6759  0.1897 -2.4473
   35MOL   H26526173   0.836   3.803   6.871  0.1390  1.3015  1.6877
   35MOL   H26626174   0.442   3.933   6.758  0.1663 -1.8375  0.9606
   35MOL   H26726175   0.518   4.159   6.755 -0.3581 -1.5200  0.9413
   35MOL   C26826176   0.056   3.614   6.781 -0.9936 -0.2030 -0.3742
   35MOL   C26926177   0.204   3.611   6.806 -0.0587 -0.1032 -0.6062
   35MOL   C27026178   0.284   3.576   6.682  0.2751 -0.0661  0.0021
   35MOL   C27126179   0.429   3.558   6.714 -0.4604 -0.5080  0.4303
   35MOL   C27226180   0.221   3.449   6.623  0.2808 -0.4892 -0.1346
   35MOL   C27326181   0.072   3.456   6.592 -0.0566  0.0933  0.3471
   35MOL   C27426182   8.023   3.486   6.723  0.8202 -0.0330 -0.3700
   35MOL   C27526183   7.867   3.498   6.701 -0.4210  0.0615  0.6934
   35MOL   O27626184   7.829   3.612   6.630  0.3863 -0.2688  0.5728
   35MOL   C27726185   7.786   3.604   6.497 -0.4279  0.2913  0.1530
   35MOL   O27826186   7.788   3.498   6.436  0.2869  0.2325  0.3464
   35MOL   C27926187   7.736   3.731   6.438  0.7736  0.1281  0.7279
   35MOL   C28026188   7.658   3.720   6.320 -0.5133  0.5555 -0.0080
   35MOL   C28126189   7.616   3.838   6.260 -0.3216 -0.4314 -0.5688
   35MOL   C28226190   7.652   3.967   6.309  0.0156  0.5742  0.4203
   35MOL   C28326191   7.616   4.098   6.242 -0.5937  0.4375 -0.0490
   35MOL   O28426192   7.630   4.210   6.298 -0.0039  0.1539  0.0120
   35MOL   O28526193   7.591   4.078   6.107  0.6140  0.0002 -0.0670
   35MOL   C28626194   7.732   3.971   6.432 -0.5926 -0.0459  0.0047
   35MOL   C28726195   7.765   3.858   6.502  0.3861 -0.3736 -0.3140
   35MOL   H28826196   0.033   3.695   6.713  0.8807 -0.1358 -0.9279
   35MOL   H28926197   0.002   3.635   6.874 -0.0901 -0.7981  0.2986
   35MOL   H29026198   0.228   3.535   6.881  0.5539  0.4076 -0.2765
   35MOL   H29126199   0.237   3.708   6.843 -0.2888 -0.1090 -0.3857
   35MOL   H29226200   0.265   3.654   6.608 -1.3988  0.1524  0.6429
   35MOL   H29326201   0.478   3.505   6.633 -0.4418 -0.1734  0.2229
   35MOL   H29426202   0.437   3.492   6.801 -1.4382 -0.2776  0.7101
   35MOL   H29526203   0.250   3.370   6.693  1.6619  1.8283  1.9722
   35MOL   H29626204   0.270   3.426   6.529  1.5645 -0.3919  0.5019
   35MOL   H29726205   0.049   3.532   6.517 -0.8354 -0.3019  0.1852
   35MOL   H29826206   0.048   3.355   6.558 -0.2276 -0.2525  1.4808
   35MOL   H29926207   0.006   3.405   6.794 -0.5515  0.1905  0.1906
   35MOL   H30026208   7.814   3.504   6.796  0.6287  0.6914  1.2433
   35MOL   H30126209   7.827   3.399   6.677  0.5207  0.3065 -2.0566
   35MOL   H30226210   7.631   3.624   6.279 -2.6222  1.2504 -0.3120
   35MOL   H30326211   7.557   3.833   6.170 -2.2646  3.4423  0.3856
   35MOL   H30426212   7.762   4.063   6.480 -2.6608  0.4473  0.4263
   35MOL   H30526213   7.826   3.857   6.591  0.3761  0.4202 -0.2958
   35MOL   C30626214   7.794   4.443   5.848  0.1971  0.1469  0.7128
   35MOL   C30726215   7.657   4.383   5.888  0.0988 -0.6551 -0.0500
   35MOL   C30826216   7.678   4.251   5.963 -0.1860 -0.2670 -0.0914
   35MOL   C30926217   7.545   4.183   6.026  0.6438  0.0787 -0.4120
   35MOL   C31026218   7.740   4.150   5.867 -0.7334  0.2814  0.5373
   35MOL   C31126219   7.870   4.204   5.801 -0.3489 -0.4630 -0.2958
   35MOL   C31226220   7.860   4.347   5.744 -0.3584  0.1269  0.3658
   35MOL   C31326221   7.994   4.404   5.701 -0.1023 -0.3059  0.4660
   35MOL   O31426222   0.057   4.403   5.805  0.6558 -0.3215  0.0335
   35MOL   C31526223   0.156   4.485   5.803 -0.2297  0.3364 -0.5097
   35MOL   O31626224   0.166   4.584   5.731  0.0964  0.1981 -0.1196
   35MOL   C31726225   0.265   4.454   5.904 -0.0266 -0.0578 -0.3728
   35MOL   C31826226   0.383   4.532   5.906 -0.3194 -0.2361 -0.8248
   35MOL   C31926227   0.482   4.498   6.002 -0.3681 -0.6884 -1.0149
   35MOL   C32026228   0.467   4.381   6.083  0.2848 -0.0258 -0.0810
   35MOL   C32126229   0.569   4.347   6.187 -0.1851 -0.2301 -0.0018
   35MOL   O32226230   0.666   4.417   6.207  0.2694  0.1125 -0.2579
   35MOL   O32326231   0.544   4.232   6.253 -0.6419 -0.0928 -0.4216
   35MOL   C32426232   0.348   4.303   6.082 -0.0171 -0.1246 -0.1160
   35MOL   C32526233   0.245   4.343   5.991 -0.4169 -0.1209  0.4736
   35MOL   H32626234   7.862   4.465   5.930  1.4479 -0.9529 -0.0069
   35MOL   H32726235   7.775   4.543   5.809 -0.3326 -0.9357 -1.9276
   35MOL   H32826236   7.582   4.374   5.810 -0.0223  0.0883 -0.0224
   35MOL   H32926237   7.605   4.449   5.957  0.0314  1.8127 -2.3821
   35MOL   H33026238   7.737   4.273   6.052  1.1984  0.2922 -1.1284
   35MOL   H33126239   7.485   4.154   5.939  0.4342 -0.3996 -0.1028
   35MOL   H33226240   7.491   4.261   6.081  1.3878  0.5625 -0.3589
   35MOL   H33326241   7.675   4.132   5.781 -0.0407 -0.0734  0.0748
   35MOL   H33426242   7.766   4.055   5.913 -0.4656  0.0461 -0.0964
   35MOL   H33526243   7.960   4.190   5.861 -0.3175  1.9884  0.2688
   35MOL   H33626244   7.888   4.136   5.718 -0.1643  0.5019 -1.0597
   35MOL   H33726245   7.803   4.350   5.652  1.3915  0.5311 -0.7257
   35MOL   H33826246   7.974   4.503   5.660 -1.2254 -0.2635  1.1272
   35MOL   H33926247   0.010   4.356   5.615  0.9126 -0.9290  1.3709
   35MOL   H34026248   0.396   4.613   5.837 -0.0500 -1.4114 -2.1824
   35MOL   H34126249   0.579   4.545   6.009 -1.1452  1.0191 -1.4889
   35MOL   H34226250   0.325   4.221   6.148 -0.9607  1.8461  2.0746
   35MOL   H34326251   0.155   4.285   5.986 -0.6403  0.3297 -1.2251
   35MOL   C34426252   0.759   3.828   6.375  0.2251 -0.4762  0.3886
   35MOL   C34526253   0.733   3.972   6.333 -0.0977  0.5214  0.2305
   35MOL   C34626254   0.611   4.041   6.403 -0.0255 -0.0322  0.0956
   35MOL   C34726255   0.613   4.195   6.377  0.5395  0.5362  0.5395
   35MOL   C34826256   0.487   3.967   6.360  0.0615  0.2935 -0.2232
   35MOL   C34926257   0.500   3.818   6.416  0.2251  0.6469 -0.3483
   35MOL   C35026258   0.629   3.741   6.357  0.4687 -0.4787 -0.1549
   35MOL   C35126259   0.636   3.604   6.431  0.4136  0.4543  0.5076
   35MOL   O35226260   0.742   3.533   6.359  0.2507 -0.7044 -0.0427
   35MOL   C35326261   0.857   3.502   6.422  0.2046  0.1975 -0.6334
   35MOL   O35426262   0.872   3.539   6.539 -0.1416  0.5377 -0.1522
   35MOL   C35526263   0.960   3.439   6.334  0.5414  0.3491 -0.7943
   35MOL   C35626264   1.088   3.416   6.386  0.0661  0.2505  0.5908
   35MOL   C35726265   1.171   3.336   6.309 -0.1592 -0.1334 -0.1061
   35MOL   C35826266   1.146   3.290   6.181  0.7087 -0.6834  0.1398
   35MOL   C35926267   1.239   3.197   6.099 -0.1546 -0.1717  0.3471
   35MOL   O36026268   1.349   3.170   6.137 -0.0526  0.6543  0.8535
   35MOL   O36126269   1.188   3.151   5.990  0.3257 -0.7883  0.1739
   35MOL   C36226270   1.022   3.328   6.122  0.7224  0.1466  0.1025
   35MOL   C36326271   0.931   3.405   6.202 -0.0242 -0.0481  0.5620
   35MOL   H36426272   0.775   3.824   6.483 -0.8821 -0.2006  0.5636
   35MOL   H36526273   0.846   3.789   6.322 -1.9891 -2.3040 -2.0270
   35MOL   H36626274   0.723   3.974   6.224 -0.5463  2.5244  0.2969
   35MOL   H36726275   0.822   4.029   6.358  1.3666 -0.9443 -1.4886
   35MOL   H36826276   0.625   4.035   6.511 -2.8562 -0.9961  0.4452
   35MOL   H36926277   0.717   4.224   6.386  0.8043 -0.0799 -0.5504
   35MOL   H37026278   0.559   4.247   6.457  0.2518 -0.2563  0.8638
   35MOL   H37126279   0.456   3.974   6.256  2.2718 -0.6975 -0.9631
   35MOL   H37226280   0.404   4.005   6.420 -0.3559 -2.6051  1.1405
   35MOL   H37326281   0.502   3.811   6.525 -2.6155 -1.5975 -0.3859
   35MOL   H37426282   0.415   3.760   6.380 -0.1125  0.8926  0.0576
   35MOL   H37526283   0.608   3.723   6.252  1.8064  0.7713 -0.6567
   35MOL   H37626284   0.544   3.545   6.427  1.8888 -1.9408  0.6928
   35MOL   H37726285   0.663   3.622   6.535  0.4874 -0.9337  0.7348
   35MOL   H37826286   1.106   3.450   6.487 -1.1085  1.0348  0.5501
   35MOL   H37926287   1.269   3.308   6.343 -0.7038 -0.1345  1.4792
   35MOL   H38026288   0.994   3.290   6.025 -1.0603  0.6228  0.3974
   35MOL   H38126289   0.831   3.418   6.163 -0.0720  0.2059  0.7651
   35MOL   C38226290   1.257   2.723   6.141  0.0840  0.0998 -0.6787
   35MOL   C38326291   1.284   2.876   6.109  0.7760  0.4054 -0.1161
   35MOL   C38426292   1.222   2.905   5.973  0.2070 -0.1975 -0.8359
   35MOL   C38526293   1.248   3.049   5.916  0.1089  0.3330  0.6457
   35MOL   C38626294   1.273   2.805   5.865  0.1801  0.2311  0.0263
   35MOL   C38726295   1.265   2.658   5.906 -0.0774 -0.3433  0.4330
   35MOL   C38826296   1.323   2.624   6.042  0.5744  0.4961 -0.2621
   35MOL   C38926297   1.299   2.481   6.079  0.1462  0.0282  0.0032
   35MOL   O39026298   1.388   2.386   6.013  0.3315 -0.3766 -0.5274
   35MOL   C39126299   1.372   2.255   6.041 -0.2175  0.0021  0.3743
   35MOL   O39226300   1.272   2.214   6.097  0.3923  0.6591 -0.5964
   35MOL   C39326301   1.492   2.180   6.008 -0.4297  0.7583 -0.1037
   35MOL   C39426302   1.485   2.037   6.010 -0.1459  0.2841  0.0492
   35MOL   C39526303   1.581   1.951   5.961  0.0690 -0.3590  0.0092
   35MOL   C39626304   1.708   2.010   5.920 -1.5593  0.2278 -0.1986
   35MOL   C39726305   1.829   1.921   5.886 -0.0512 -0.0816 -0.2495
   35MOL   O39826306   1.942   1.967   5.864 -1.0882 -0.0960 -0.3468
   35MOL   O39926307   1.793   1.788   5.888 -0.8496  0.4924 -0.2437
   35MOL   C40026308   1.718   2.150   5.912  0.6483  0.3678  0.8518
   35MOL   C40126309   1.612   2.235   5.956  0.1535  0.0699  0.0670
   35MOL   H40226310   1.150   2.708   6.155  0.5094 -2.0576  0.3764
   35MOL   H40326311   1.289   2.700   6.243 -0.3104 -0.5159 -0.6978
   35MOL   H40426312   1.391   2.896   6.117  1.1863 -1.9435  0.6151
   35MOL   H40526313   1.251   2.927   6.199 -2.2702 -0.6479 -0.5839
   35MOL   H40626314   1.115   2.883   5.981 -0.0286  0.1713 -2.6910
   35MOL   H40726315   1.226   3.061   5.810 -0.7532 -0.7738  0.7008
   35MOL   H40826316   1.356   3.061   5.924  0.1337 -0.2512  1.2240
   35MOL   H40926317   1.380   2.816   5.846  0.0510  1.1145 -0.1734
   35MOL   H41026318   1.208   2.813   5.778  1.4645 -1.2086 -1.0987
   35MOL   H41126319   1.162   2.623   5.902 -0.2583  0.0194  1.9041
   35MOL   H41226320   1.323   2.610   5.827 -1.2184 -0.4318 -0.3690
   35MOL   H41326321   1.432   2.633   6.041  0.5579  0.8130  0.1916
   35MOL   H41426322   1.198   2.452   6.052  0.3431 -2.2138  1.4736
   35MOL   H41526323   1.300   2.464   6.187  0.2177 -0.4872 -0.0772
   35MOL   H41626324   1.398   1.987   6.048 -0.7070  3.2857  3.0046
   35MOL   H41726325   1.561   1.845   5.959  0.6148 -0.4669  0.2291
   35MOL   H41826326   1.801   2.194   5.858  1.2946  1.2188  2.5107
   35MOL   H41926327   1.630   2.341   5.942 -0.7605  0.2823  0.4133
   35MOL   C42026328   2.079   1.459   5.624 -0.1927 -0.6156 -0.6229
   35MOL   C42126329   2.046   1.527   5.759 -0.0418 -0.6707 -0.2057
   35MOL   C42226330   1.916   1.607   5.765 -0.5375  0.5780  0.3245
   35MOL   C42326331   1.900   1.694   5.894 -0.1733  0.1260  0.4954
   35MOL   C42426332   1.898   1.691   5.632  0.2511 -0.0412  0.3902
   35MOL   C42526333   1.937   1.621   5.501  0.1587  0.6492 -0.2548
   35MOL   C42626334   2.078   1.562   5.505 -0.3184 -0.7121 -0.7031
   35MOL   C42726335   2.122   1.500   5.368 -0.0513  0.1194 -0.5542
   35MOL   O42826336   2.075   1.362   5.350  0.2521  0.4693 -0.6684
   35MOL   C42926337   2.102   1.297   5.238 -0.2451  0.3979  0.9800
   35MOL   O43026338   2.148   1.354   5.135  0.0467 -0.3980 -0.1348
   35MOL   C43126339   2.086   1.151   5.253  0.5141  0.5091  0.2448
   35MOL   C43226340   2.096   1.069   5.140 -0.0153 -0.2035 -0.0676
   35MOL   C43326341   2.091   0.928   5.153 -0.2661  0.1647 -0.6837
   35MOL   C43426342   2.069   0.865   5.276  0.3535  0.1142 -0.5334
   35MOL   C43526343   2.064   0.721   5.282 -0.0667 -0.6126 -0.8004
   35MOL   O43626344   2.052   0.656   5.182  0.4654 -0.3212 -0.2023
   35MOL   O43726345   2.077   0.674   5.408 -0.3780 -0.1809 -0.3187
   35MOL   C43826346   2.056   0.954   5.390  0.1986  0.3324  0.9627
   35MOL   C43926347   2.064   1.096   5.379 -0.4905 -0.1123  0.2932
   35MOL   H44026348   2.016   1.375   5.595 -1.8857  0.2509  0.5121
   35MOL   H44126349   2.177   1.411   5.631  0.0270 -0.1179 -0.3032
   35MOL   H44226350   2.137   1.575   5.796 -0.2614 -0.4956  0.1071
   35MOL   H44326351   2.037   1.447   5.833 -1.1354 -0.1713  0.1993
   35MOL   H44426352   1.837   1.532   5.765  1.9736 -2.1934  1.9046
   35MOL   H44526353   1.994   1.732   5.932  0.6775 -0.0067 -1.3838
   35MOL   H44626354   1.874   1.634   5.981 -0.1445 -0.5049  0.0730
   35MOL   H44726355   1.961   1.780   5.635  0.9012 -0.3756 -2.0862
   35MOL   H44826356   1.796   1.731   5.632  0.6945  1.1310  1.4448
   35MOL   H44926357   1.875   1.536   5.471  2.8015 -1.9440  1.2800
   35MOL   H45026358   1.924   1.705   5.433 -0.1212  0.1469 -0.8290
   35MOL   H45126359   2.159   1.632   5.524 -0.1724 -0.9388 -0.4780
   35MOL   H45226360   2.229   1.513   5.349  0.7696 -1.3272  2.7312
   35MOL   H45326361   2.080   1.555   5.284 -0.5412  2.3012  1.0856
   35MOL   H45426362   2.108   1.115   5.043 -1.5567 -0.9709 -0.6343
   35MOL   H45526363   2.108   0.880   5.058  0.9900  1.4721 -1.1360
   35MOL   H45626364   2.046   0.910   5.488 -0.1086 -0.7305  0.4563
   35MOL   H45726365   2.044   1.159   5.464  1.1496  0.4917  0.2425
   35MOL   C45826366   1.733   0.377   5.609  0.2427  0.4855 -0.4396
   35MOL   C45926367   1.887   0.412   5.593  0.3964  0.2383  0.1666
   35MOL   C46026368   1.915   0.486   5.462 -0.6418 -0.0098 -0.8644
   35MOL   C46126369   2.064   0.535   5.442 -0.4542  0.2082  0.8918
   35MOL   C46226370   1.865   0.410   5.340  0.0131  0.4089 -0.1279
   35MOL   C46326371   1.714   0.378   5.355 -0.7344  0.0464 -0.6706
   35MOL   C46426372   1.686   0.293   5.483 -0.1950 -0.1673 -0.1707
   35MOL   C46526373   1.535   0.255   5.488 -0.0862  0.1401 -0.4526
   35MOL   O46626374   1.501   0.183   5.604  0.4052 -0.4450 -0.3771
   35MOL   C46726375   1.469   0.057   5.596 -0.0592  0.4352 -0.1309
   35MOL   O46826376   1.454   8.032   5.490  0.2330  0.0965 -0.3617
   35MOL   C46926377   1.443   0.001   5.730 -0.3955  0.4038  0.1631
   35MOL   C47026378   1.392   7.900   5.739 -1.1228  1.0318 -1.0307
   35MOL   C47126379   1.351   7.861   5.867  0.0602  0.0103 -0.1192
   35MOL   C47226380   1.352   7.942   5.982  1.0914 -0.7847  0.5280
   35MOL   C47326381   1.289   7.892   6.106  0.6350 -0.0145  0.1818
   35MOL   O47426382   1.251   7.774   6.103 -0.0812 -0.2472  0.2059
   35MOL   O47526383   1.275   7.986   6.209  0.4364 -0.4096  0.3301
   35MOL   C47626384   1.412   0.037   5.976  0.0195  0.2920  0.1940
   35MOL   C47726385   1.456   0.083   5.850 -0.1382  0.1087 -0.1065
   35MOL   H47826386   1.680   0.472   5.606 -0.7038 -0.0213  0.1629
   35MOL   H47926387   1.713   0.332   5.706  1.2811  1.9425  0.4767
   35MOL   H48026388   1.937   0.316   5.599  1.5315  0.8089 -0.1608
   35MOL   H48126389   1.910   0.469   5.683  0.0942  0.2251  0.2546
   35MOL   H48226390   1.858   0.578   5.478 -0.8217 -0.3098  0.2910
   35MOL   H48326391   2.103   0.480   5.357 -2.1784  1.7558 -0.9539
   35MOL   H48426392   2.120   0.494   5.526  0.6923 -2.8252 -1.2612
   35MOL   H48526393   1.916   0.314   5.327 -0.1954  0.1934  0.6639
   35MOL   H48626394   1.877   0.468   5.249  0.8821  0.4802  0.0322
   35MOL   H48726395   1.655   0.470   5.352  1.0999  1.4152  2.6182
   35MOL   H48826396   1.685   0.315   5.270  1.5191 -3.9917  1.4425
   35MOL   H48926397   1.730   0.193   5.486  1.5359  0.6180  1.1789
   35MOL   H49026398   1.498   0.206   5.398 -0.1824  0.9667 -0.8760
   35MOL   H49126399   1.474   0.345   5.490  1.5389  1.2781 -0.5217
   35MOL   H49226400   1.390   7.832   5.656  2.4623 -0.9637  0.4238
   35MOL   H49326401   1.300   7.766   5.873 -0.0939  0.0466 -0.8434
   35MOL   H49426402   1.422   0.107   6.058  0.0442 -0.6299  0.9719
   35MOL   H49526403   1.490   0.185   5.840 -0.8012  0.3552  0.1435
   35MOL   C49626404   1.199   0.009   6.700  0.0820  0.0557  0.3014
   35MOL   C49726405   1.201   7.954   6.575 -0.8830 -0.3415 -0.0711
   35MOL   C49826406   1.227   0.007   6.451 -0.5262 -0.2029  0.5364
   35MOL   C49926407   1.221   7.936   6.333  0.0580 -0.8497 -0.3492
   35MOL   C50026408   1.118   0.114   6.439  0.1052 -0.0045  0.8258
   35MOL   C50126409   1.096   0.190   6.573 -0.3082  0.0179 -0.6315
   35MOL   C50226410   1.085   0.102   6.697 -0.1525  0.8874  0.1782
   35MOL   C50326411   1.076   0.175   6.833  0.7222 -0.5368 -0.3686
   35MOL   O50426412   0.950   0.237   6.848  0.6484 -0.2359  0.0333
   35MOL   C50526413   0.865   0.195   6.939  0.2191  0.5140 -0.0954
   35MOL   O50626414   0.875   0.100   7.014 -0.5867  0.0584 -0.3047
   35MOL   C50726415   0.739   0.272   6.928  0.0459 -0.5900  0.2020
   35MOL   C50826416   0.731   0.396   6.862 -0.0464  0.1907  0.2715
   35MOL   C50926417   0.603   0.456   6.850  0.3026 -0.3318  0.0925
   35MOL   C51026418   0.486   0.391   6.897  0.2842  0.4243 -0.6335
   35MOL   C51126419   0.349   0.456   6.877 -0.6488 -0.7466 -0.5166
   35MOL   O51226420   0.242   0.418   6.922 -0.1352 -0.2735  0.3571
   35MOL   O51326421   0.353   0.561   6.795  0.6179 -0.0261 -0.1198
   35MOL   C51426422   0.497   0.266   6.954 -0.0679 -0.0856 -0.0166
   35MOL   C51526423   0.621   0.211   6.977 -0.0503  0.1192  0.3993
   35MOL   H51626424   1.292   0.060   6.724 -0.2852 -0.3548  2.6683
   35MOL   H51726425   1.167   7.975   6.781 -1.3433 -2.3428 -2.1023
   35MOL   H51826426   1.104   7.904   6.575 -1.7509  1.2978  1.3176
   35MOL   H51926427   1.287   7.889   6.590 -0.7577 -0.8734 -2.8548
   35MOL   H52026428   1.325   0.055   6.462 -1.3347  1.7894 -0.6614
   35MOL   H52126429   1.118   7.907   6.314 -0.4807  0.1589  0.9895
   35MOL   H52226430   1.271   7.843   6.357 -1.7380 -1.3668  1.4559
   35MOL   H52326431   1.024   0.077   6.399  1.2686 -2.6351  0.4265
   35MOL   H52426432   1.163   0.183   6.367  2.2935 -2.4583 -0.2567
   35MOL   H52526433   1.193   0.240   6.584 -1.7670  2.9718 -0.6111
   35MOL   H52626434   1.016   0.265   6.572 -0.1753  0.3046  3.0240
   35MOL   H52726435   0.994   0.044   6.675  0.4123  0.7209 -1.8226
   35MOL   H52826436   1.155   0.247   6.854  0.2225 -0.2550  0.6002
   35MOL   H52926437   1.085   0.095   6.908 -1.5731  0.2646  0.7975
   35MOL   H53026438   0.816   0.452   6.825  0.2890 -0.8053 -0.4911
   35MOL   H53126439   0.598   0.550   6.796 -1.8923  0.6495  1.9331
   35MOL   H53226440   0.416   0.220   7.009  0.7506 -0.7323  0.6729
   35MOL   H53326441   0.626   0.110   7.015  0.0440  0.6064  1.7057
   35MOL   C53426442   0.017   0.912   6.912  0.1753 -0.5085 -0.3370
   35MOL   C53526443   0.061   0.815   6.807  0.3693  0.0591  0.3517
   35MOL   C53626444   0.178   0.732   6.861 -0.9404 -0.3660  0.6961
   35MOL   C53726445   0.236   0.631   6.754  0.2791  0.2825  0.7374
   35MOL   C53826446   0.292   0.812   6.926  0.1861  0.2571 -0.0934
   35MOL   C53926447   0.243   0.923   7.025 -0.1515  0.5665  0.1474
   35MOL   C54026448   0.134   1.008   6.955 -0.4598  0.6649  0.4055
   35MOL   C54126449   0.075   1.129   7.040 -0.1941  0.0046 -0.6889
   35MOL   O54226450   0.050   1.096   7.180 -0.3702  0.0123 -0.1880
   35MOL   C54326451   0.041   1.203   7.260  0.1218  0.1223  0.2145
   35MOL   O54426452   0.070   1.321   7.228 -1.0468 -0.3494  0.1761
   35MOL   C54526453   8.024   1.168   7.397 -0.3056 -0.1602 -0.9301
   35MOL   C54626454   7.985   1.034   7.429  0.0415  0.1035  0.3125
   35MOL   C54726455   7.948   0.999   7.560 -0.6909 -0.0110 -0.0593
   35MOL   C54826456   7.945   1.104   7.660 -0.2917  0.0244 -0.6228
   35MOL   C54926457   7.916   1.069   7.802 -0.3887  0.2017 -0.0146
   35MOL   O55026458   7.937   1.155   7.890  0.8359  0.9375 -0.2829
   35MOL   O55126459   7.857   0.953   7.810 -0.2615  0.0628  0.3008
   35MOL   C55226460   7.994   1.233   7.635 -0.4368 -0.1996 -0.2805
   35MOL   C55326461   8.029   1.261   7.502 -0.1529  0.1318  0.1923
   35MOL   H55426462   8.019   0.863   7.005 -1.7924  3.3509  1.1648
   35MOL   H55526463   7.969   0.976   6.875  0.1168  1.0880  2.4151
   35MOL   H55626464   0.098   0.871   6.721 -0.2570  0.3272  0.2531
   35MOL   H55726465   8.001   0.768   6.770  0.5155  1.7665 -2.2938
   35MOL   H55826466   0.155   0.670   6.948  2.5803  0.9581  2.6693
   35MOL   H55926467   0.247   0.686   6.660  0.7025 -2.2882 -0.7683
   35MOL   H56026468   0.160   0.560   6.720 -2.0882  2.4556  1.2771
   35MOL   H56126469   0.368   0.849   6.857  0.3721  0.1926  0.0771
   35MOL   H56226470   0.341   0.730   6.979  1.3544  0.1694 -1.2922
   35MOL   H56326471   0.201   0.868   7.109  0.4315 -1.0830 -0.6025
   35MOL   H56426472   0.321   0.985   7.069  0.5958  0.1014 -0.5011
   35MOL   H56526473   0.184   1.038   6.863  0.2616 -1.2988  0.1327
   35MOL   H56626474   8.012   1.169   7.004 -0.3710  1.5208  1.3883
   35MOL   H56726475   0.145   1.211   7.026  1.2201 -0.4413  3.2235
   35MOL   H56826476   7.996   0.956   7.355  0.1408 -0.8838  1.3486
   35MOL   H56926477   7.927   0.898   7.594  1.5179 -1.1590 -2.0224
   35MOL   H57026478   8.018   1.311   7.706 -2.3095  1.3997 -1.3502
   35MOL   H57126479   0.038   1.359   7.482  0.2059 -0.1710 -0.5697
   35MOL   C57226480   8.015   0.605   0.029  0.1123 -1.1116  0.1128
   35MOL   C57326481   7.918   0.703   7.975 -0.3024  0.2930 -0.2845
   35MOL   C57426482   7.922   0.846   8.019  0.5820  0.5049  0.3313
   35MOL   C57526483   7.814   0.908   7.939 -0.4807 -0.0789  0.5074
   35MOL   C57626484   7.894   0.845   0.143 -0.3302 -0.2110 -0.5231
   35MOL   C57726485   7.985   0.751   0.222  0.5346  0.8505  0.0931
   35MOL   C57826486   7.984   0.597   0.178  0.3023 -0.5786  0.5949
   35MOL   C57926487   0.062   0.517   0.249 -0.1979 -0.3490 -0.6099
   35MOL   O58026488   0.055   0.372   0.215 -0.2735 -0.0452  0.1106
   35MOL   C58126489   0.010   0.284   0.313 -0.3913 -0.5356 -0.0930
   35MOL   O58226490   8.015   0.322   0.430  0.7096  0.5873  0.6536
   35MOL   C58326491   8.020   0.147   0.265  0.6399  0.1698 -0.2826
   35MOL   C58426492   0.006   0.108   0.131  0.4321 -0.6707  0.0001
   35MOL   C58526493   8.017   8.011   0.080  0.0231 -0.3337  0.8215
   35MOL   C58626494   7.972   7.909   0.167 -0.2672 -0.1508  0.4622
   35MOL   C58726495   7.937   7.777   0.125 -0.8753 -0.4176 -0.1833
   35MOL   O58826496   7.929   7.680   0.196  0.1904 -0.4538 -1.1151
   35MOL   O58926497   7.920   7.775   8.028  0.1273 -0.2677 -0.3626
   35MOL   C59026498   7.957   7.942   0.307  0.4097 -0.2714 -0.4697
   35MOL   C59126499   7.988   0.044   0.355  0.0227  0.4957  0.1266
   35MOL   H59226500   0.086   0.640   0.025  0.2163 -1.4183  0.0680
   35MOL   H59326501   8.010   0.499   0.004  1.8185 -0.8696 -1.3359
   35MOL   H59426502   7.821   0.654   7.980 -0.1472 -0.4159 -3.2603
   35MOL   H59526503   7.934   0.688   7.868 -0.1855  1.6591 -0.4628
   35MOL   H59626504   8.018   0.894   7.999  0.5523  2.6195  4.5848
   35MOL   H59726505   7.771   0.992   7.994  0.8782  1.2979 -0.4847
   35MOL   H59826506   7.735   0.835   7.919 -0.4838 -0.0748  0.5040
   35MOL   H59926507   7.789   0.815   0.146 -0.5514  0.1819 -3.2126
   35MOL   H60026508   7.906   0.946   0.180  0.0340  0.6572 -2.9170
   35MOL   H60126509   0.059   0.776   0.231  0.9244 -1.0839  1.0603
   35MOL   H60226510   7.969   0.755   0.329 -0.1455 -2.1796  0.1468
   35MOL   H60326511   7.887   0.550   0.194  0.0117  0.1620  1.0264
   35MOL   H60426512   0.064   0.534   0.357  1.8988 -0.2203 -0.6516
   35MOL   H60526513   0.160   0.558   0.223 -0.0176 -0.2158  0.2642
   35MOL   H60626514   0.041   0.190   0.070  0.1462 -1.2196 -0.9303
   35MOL   H60726515   8.019   8.004   8.004 -0.4484 -0.8505  0.8400
   35MOL   H60826516   7.928   7.875   0.386 -1.5215  1.8837  0.7024
   35MOL   H60926517   7.989   0.075   0.458 -2.0249  4.1367 -0.8388
   35MOL   C61026518   0.193   7.583   7.777  0.1744  0.0497  0.6223
   35MOL   C61126519   0.099   7.615   7.896 -0.0403 -0.2724  0.3556
   35MOL   C61226520   7.983   7.639   7.848 -0.2260 -0.1813 -0.5672
   35MOL   C61326521   7.888   7.656   7.967 -0.0008  0.2070  0.3838
   35MOL   C61426522   7.974   7.748   7.733 -0.2259 -0.3139  0.5435
   35MOL   C61526523   0.032   7.705   7.614 -0.1095 -0.9129 -0.2449
   35MOL   C61626524   0.181   7.682   7.652  0.2407  0.0924 -0.6944
   35MOL   C61726525   0.254   7.625   7.533  0.2444  0.7139  0.5350
   35MOL   O61826526   0.304   7.732   7.455  0.4455  0.0688  0.1727
   35MOL   C61926527   0.432   7.729   7.406 -0.2317  0.7459  0.7666
   35MOL   O62026528   0.501   7.624   7.410  0.8953 -0.0227  0.8358
   35MOL   C62126529   0.488   7.862   7.374 -0.2635  0.0416  0.1634
   35MOL   C62226530   0.408   7.976   7.372 -0.2393  0.1981 -0.3290
   35MOL   C62326531   0.461   0.078   7.360 -0.0237 -0.3028 -0.5787
   35MOL   C62426532   0.594   0.094   7.324  0.2044 -0.4345 -0.2822
   35MOL   C62526533   0.658   0.232   7.300  0.0131 -0.0685  0.2479
   35MOL   O62626534   0.775   0.257   7.264  0.0935 -0.2732 -0.2152
   35MOL   O62726535   0.578   0.335   7.325  0.1645 -0.1356 -0.0503
   35MOL   C62826536   0.671   8.005   7.301 -0.7587  0.6094  0.1691
   35MOL   C62926537   0.622   7.879   7.335  0.1008  0.1169 -0.7769
   35MOL   H63026538   0.186   7.479   7.743 -0.4306  0.0848  0.6358
   35MOL   H63126539   0.295   7.586   7.815  0.2465 -0.3933  0.4679
   35MOL   H63226540   0.137   7.706   7.943  0.0076 -0.4327  0.6287
   35MOL   H63326541   0.104   7.546   7.980  1.3370  0.8365  1.2165
   35MOL   H63426542   7.958   7.547   7.795  0.4432 -0.4041 -0.4949
   35MOL   H63526543   7.905   7.568   8.030  2.6488  0.6818  0.4019
   35MOL   H63626544   7.782   7.666   7.947  0.0612  0.6020  0.2486
   35MOL   H63726545   8.007   7.847   7.766  2.1137  0.5175 -3.9254
   35MOL   H63826546   7.873   7.754   7.692  0.0954 -0.1338 -0.2227
   35MOL   H63926547   8.028   7.608   7.581 -0.9911 -0.3886 -0.8624
   35MOL   H64026548   0.037   7.783   7.537  2.7937 -1.0158 -0.2233
   35MOL   H64126549   0.237   7.767   7.692  2.5348 -0.2593 -3.0145
   35MOL   H64226550   0.207   7.562   7.458  0.5397  2.3432 -1.0498
   35MOL   H64326551   0.339   7.572   7.577 -0.6497 -0.1159  1.2780
   35MOL   H64426552   0.302   7.968   7.393  0.5230 -0.0199  3.7892
   35MOL   H64526553   0.394   0.162   7.370 -0.6978 -0.9000 -0.0380
   35MOL   H64626554   0.770   8.016   7.260 -0.4921  0.5427  0.7923
   35MOL   H64726555   0.689   7.795   7.326  2.2097  1.5550  1.0906
   35MOL   C64826556   0.401   0.660   7.544 -0.3984  0.1244 -0.3278
   35MOL   C64926557   0.490   0.545   7.489 -0.2687 -0.2827  0.4351
   35MOL   C65026558   0.517   0.559   7.341 -0.1383  0.1732 -0.2856
   35MOL   C65126559   0.615   0.462   7.285 -0.3327  0.5731  0.1867
   35MOL   C65226560   0.391   0.567   7.260  0.4497  0.1127 -0.0540
   35MOL   C65326561   0.299   0.684   7.312 -0.3724 -0.7988 -1.3205
   35MOL   C65426562   0.278   0.672   7.464  0.5735  0.4751 -0.0094
   35MOL   C65526563   0.193   0.795   7.523  0.1685 -0.7856 -0.7264
   35MOL   O65626564   0.252   0.923   7.497  0.1234  0.4905  0.2873
   35MOL   C65726565   0.295   1.001   7.602  0.3154  0.1801 -0.4674
   35MOL   O65826566   0.308   0.965   7.718 -0.4737  0.0986 -0.1023
   35MOL   C65926567   0.321   1.139   7.564 -0.2471 -0.0680 -0.4970
   35MOL   C66026568   0.318   1.240   7.661  1.0416  0.3252  0.0478
   35MOL   C66126569   0.338   1.378   7.629  0.2036  0.0729 -0.0798
   35MOL   C66226570   0.351   1.413   7.491  0.1683  0.3838  0.1062
   35MOL   C66326571   0.368   1.554   7.445  0.6560 -0.4101  0.1649
   35MOL   O66426572   0.362   1.586   7.323  0.1588  0.1319 -0.0402
   35MOL   O66526573   0.379   1.636   7.546 -0.3283  0.4322 -0.3030
   35MOL   C66626574   0.366   1.309   7.391 -0.4726  0.4452 -0.0914
   35MOL   C66726575   0.355   1.171   7.427  0.7468 -0.5918 -0.8288
   35MOL   H66826576   0.458   0.753   7.543  0.3085 -0.3012  0.0096
   35MOL   H66926577   0.376   0.645   7.649 -1.9978  0.1421 -0.6873
   35MOL   H67026578   0.432   0.455   7.510 -1.3325 -0.2078 -2.0101
   35MOL   H67126579   0.580   0.531   7.549  0.0994 -0.4729 -0.1667
   35MOL   H67226580   0.565   0.657   7.328  1.0865 -0.3294  0.3362
   35MOL   H67326581   0.718   0.477   7.318  0.4980 -3.1368 -0.5305
   35MOL   H67426582   0.615   0.456   7.177  0.1640 -0.1379  0.2218
   35MOL   H67526583   0.336   0.473   7.266 -0.1696  0.6142  2.3869
   35MOL   H67626584   0.426   0.603   7.163 -1.0228  1.2285 -0.2060
   35MOL   H67726585   0.345   0.779   7.288  0.8922 -1.2014 -0.5266
   35MOL   H67826586   0.199   0.680   7.267 -0.1241  1.0962 -2.0652
   35MOL   H67926587   0.223   0.580   7.485  2.9505 -0.8978  0.4158
   35MOL   H68026588   0.171   0.788   7.629  3.4036  1.5575  0.1727
   35MOL   H68126589   0.097   0.793   7.471 -0.2098  0.4829 -0.0791
   35MOL   H68226590   0.283   1.201   7.755 -3.4208 -0.7883 -1.9413
   35MOL   H68326591   0.334   1.455   7.706  1.6063 -1.3793  1.4888
   35MOL   H68426592   0.397   1.340   7.292  0.1628 -0.9978 -0.3607
   35MOL   H68526593   0.355   1.092   7.354 -1.2706 -1.3038 -0.0963
   35MOL   C68626594   0.777   1.838   7.695  0.5070  0.2388 -0.0392
   35MOL   C68726595   0.625   1.814   7.679  0.0690  0.3372 -0.0931
   35MOL   C68826596   0.582   1.776   7.537  0.2480 -0.8188 -0.9924
   35MOL   C68926597   0.432   1.767   7.526  0.1472  0.1783 -0.7760
   35MOL   C69026598   0.647   1.888   7.450 -0.0579  0.3439 -0.2258
   35MOL   C69126599   0.806   1.909   7.448 -0.2069 -0.8905  0.0872
   35MOL   C69226600   0.839   1.948   7.595  0.4409  0.2441 -0.2148
   35MOL   C69326601   0.992   1.951   7.607 -0.0271  0.4081  0.3652
   35MOL   O69426602   1.072   2.053   7.538 -0.4426 -0.0159  0.4060
   35MOL   C69526603   1.138   2.029   7.414 -0.1885 -0.3825 -0.8788
   35MOL   O69626604   1.113   1.920   7.358 -0.2093 -0.2521  0.2797
   35MOL   C69726605   1.218   2.147   7.363 -1.2188  0.3457  0.3920
   35MOL   C69826606   1.234   2.264   7.439  0.0169 -0.0055  0.1373
   35MOL   C69926607   1.307   2.373   7.381  0.0199 -0.1180  0.6693
   35MOL   C70026608   1.359   2.369   7.246  0.1476  0.6291 -0.3160
   35MOL   C70126609   1.434   2.483   7.191 -0.2906 -0.5595  0.6045
   35MOL   O70226610   1.487   2.569   7.258 -0.2194  0.0539 -0.4902
   35MOL   O70326611   1.427   2.483   7.057 -0.2885  0.2563 -0.2870
   35MOL   C70426612   1.343   2.245   7.177  0.5219 -0.5982  0.1338
   35MOL   C70526613   1.275   2.137   7.235  0.3608  0.1072  0.7952
   35MOL   H70626614   0.834   1.745   7.686 -1.1079 -0.7239 -0.5490
   35MOL   H70726615   0.798   1.867   7.798  0.6354  0.6353 -0.1772
   35MOL   H70826616   0.568   1.893   7.727 -1.0875 -1.6989  1.9724
   35MOL   H70926617   0.605   1.719   7.728  0.5455  0.2053 -0.1483
   35MOL   H71026618   0.632   1.683   7.510  1.7520 -0.4228  0.3793
   35MOL   H71126619   0.406   1.812   7.430  0.3169  3.2937  0.5846
   35MOL   H71226620   0.397   1.827   7.610 -0.5203 -1.3273  0.0401
   35MOL   H71326621   0.599   1.984   7.473  2.3421  1.5598 -0.1751
   35MOL   H71426622   0.613   1.866   7.349  1.2065  0.3736 -0.6574
   35MOL   H71526623   0.855   1.820   7.409 -0.8795 -1.0990 -0.2852
   35MOL   H71626624   0.829   1.995   7.385 -3.2395  0.4852  0.7428
   35MOL   H71726625   0.802   2.047   7.623  0.1732  0.4220 -1.1887
   35MOL   H71826626   1.033   1.852   7.591  1.9252  1.0932  1.0431
   35MOL   H71926627   1.004   1.966   7.714 -0.6537 -0.4019  0.5539
   35MOL   H72026628   1.200   2.278   7.540 -1.5994 -0.6853 -0.2946
   35MOL   H72126629   1.332   2.463   7.436 -0.7713  1.9872 -2.3054
   35MOL   H72226630   1.388   2.237   7.079  0.1688 -0.9219 -0.0018
   35MOL   H72326631   1.248   2.045   7.184  1.8837 -0.2069  0.5306
   35MOL   C72426632   1.351   2.749   6.632  0.3442  0.2940  0.1775
   35MOL   C72526633   1.425   2.736   6.771 -0.1822  0.5927 -0.7441
   35MOL   C72626634   1.393   2.604   6.854  0.3420  0.0451 -0.1551
   35MOL   C72726635   1.459   2.605   6.990  0.5956  0.5144 -0.1081
   35MOL   C72826636   1.242   2.580   6.863 -0.4583 -0.2817 -0.5144
   35MOL   C72926637   1.181   2.590   6.723 -0.0239 -0.5431  0.2647
   35MOL   C73026638   1.204   2.725   6.658 -0.2644  0.1993 -0.6368
   35MOL   C73126639   1.128   2.735   6.524 -0.0941  0.1561 -0.3317
   35MOL   O73226640   0.984   2.709   6.535  0.1474  0.6838 -0.4878
   35MOL   C73326641   0.903   2.683   6.431 -0.4577 -0.3148  0.1077
   35MOL   O73426642   0.939   2.680   6.316 -0.3604 -0.2131  0.0497
   35MOL   C73526643   0.766   2.666   6.487 -0.5948 -0.4350 -0.0596
   35MOL   C73626644   0.746   2.659   6.623 -0.7990 -0.5869  0.3823
   35MOL   C73726645   0.618   2.654   6.677 -0.0004  0.8333  0.0192
   35MOL   C73826646   0.512   2.635   6.584 -0.3909  0.5945  0.0621
   35MOL   C73926647   0.375   2.621   6.643  0.7598  0.5633 -0.0072
   35MOL   O74026648   0.352   2.605   6.762 -0.0690  0.6457 -0.6676
   35MOL   O74126649   0.273   2.641   6.560  0.7052 -0.1197 -0.6467
   35MOL   C74226650   0.537   2.621   6.446 -0.4172  0.0873  0.0845
   35MOL   C74326651   0.661   2.636   6.394  0.3393 -0.6810 -0.6156
   35MOL   H74426652   1.380   2.670   6.563  0.0649  1.3499 -1.1775
   35MOL   H74526653   1.370   2.850   6.595 -0.4650  0.8111  1.1360
   35MOL   H74626654   1.399   2.817   6.839 -0.6249 -1.2759  1.3781
   35MOL   H74726655   1.533   2.733   6.760 -0.0560 -1.2379  0.6881
   35MOL   H74826656   1.448   2.526   6.802  3.7874  1.8233  0.6362
   35MOL   H74926657   1.442   2.702   7.035 -0.0662  0.5030 -0.3373
   35MOL   H75026658   1.568   2.605   6.986  0.6595 -0.5870  1.4186
   35MOL   H75126659   1.194   2.659   6.920  0.1745  0.3919 -0.8970
   35MOL   H75226660   1.224   2.485   6.913 -0.1741 -0.0545  0.0226
   35MOL   H75326661   1.220   2.507   6.664 -2.1142 -0.7568 -0.8851
   35MOL   H75426662   1.074   2.567   6.727  0.1885 -1.5788  0.1735
   35MOL   H75526663   1.170   2.803   6.726  2.3500 -0.6758  1.7464
   35MOL   H75626664   1.165   2.666   6.448 -1.3810 -1.2247  0.2659
   35MOL   H75726665   1.147   2.833   6.480  0.8966  0.6352  1.1162
   35MOL   H75826666   0.821   2.686   6.695  1.3483  0.5479 -2.2007
   35MOL   H75926667   0.597   2.669   6.782  1.9422  0.4966  0.4634
   35MOL   H76026668   0.455   2.602   6.379 -1.0930 -1.0808  1.2351
   35MOL   H76126669   0.684   2.617   6.290 -0.2269  0.9917 -1.0532
   35MOL   H76226670   0.187   2.625   6.596  0.9365  0.3087  0.1209
   36MOL     C126671   1.395   7.291   5.174  0.5660 -0.1439 -0.0182
   36MOL     C226672   1.485   7.390   5.253  0.0252  0.5549  0.3227
   36MOL     C326673   1.410   7.527   5.260  0.5509  0.2441  0.0776
   36MOL     C426674   1.500   7.628   5.320  0.0591 -0.4462 -0.7948
   36MOL     C526675   1.364   7.570   5.122 -0.1920 -0.2253  0.0004
   36MOL     C626676   1.274   7.471   5.059  0.2387 -0.2639  0.0330
   36MOL     C726677   1.339   7.332   5.041 -0.4997 -0.0368 -0.0561
   36MOL     C826678   1.240   7.230   4.981  0.4117 -0.2247  0.3655
   36MOL     O926679   1.316   7.112   4.945 -0.5382 -0.2272 -0.8543
   36MOL    C1026680   1.264   6.993   4.953  0.0731  0.0251 -0.3109
   36MOL    O1126681   1.155   6.974   5.007  0.2946 -0.3827 -0.6207
   36MOL    C1226682   1.333   6.880   4.888 -0.2565 -0.1332 -0.4232
   36MOL    C1326683   1.310   6.749   4.931 -0.3972 -0.0530  0.5072
   36MOL    C1426684   1.382   6.641   4.869  0.3268 -0.1410  0.5473
   36MOL    C1526685   1.468   6.666   4.752 -0.5899  0.3901  0.7590
   36MOL    C1626686   1.541   6.557   4.685 -0.0414  0.0184  0.0685
   36MOL    O1726687   1.639   6.577   4.611  0.0969  0.0132  0.8623
   36MOL    O1826688   1.480   6.438   4.698  0.0227 -0.3264 -0.1381
   36MOL    C1926689   1.484   6.805   4.716  0.1804  0.0884  0.6137
   36MOL    C2026690   1.419   6.904   4.780 -0.7570 -0.5109  0.3355
   36MOL    H2126691   1.318   7.256   5.242  1.1132 -2.9434 -0.7775
   36MOL    H2226692   1.449   7.199   5.150 -2.0658 -0.7706 -3.8961
   36MOL    H2326693   1.580   7.406   5.202  0.5293 -0.0956  1.0397
   36MOL    H2426694   1.506   7.358   5.355  4.8294  0.3168 -0.6133
   36MOL    H2526695   1.324   7.511   5.325  0.4386  1.6515  0.2859
   36MOL    H2626696   1.542   7.580   5.409 -0.3842  0.4480 -0.0957
   36MOL    H2726697   1.458   7.727   5.337  0.3022 -0.4121 -0.3633
   36MOL    H2826698   1.454   7.578   5.061 -0.3932  2.6450  0.0201
   36MOL    H2926699   1.315   7.667   5.114  2.2206  0.8214 -3.3625
   36MOL    H3026700   1.188   7.462   5.125 -0.3617  0.0000 -0.6959
   36MOL    H3126701   1.238   7.513   4.965 -2.2651 -2.5950 -0.0882
   36MOL    H3226702   1.425   7.340   4.974 -0.5871 -2.5584 -0.5055
   36MOL    H3326703   1.192   7.261   4.888 -1.1622  0.7766  1.4825
   36MOL    H3426704   1.163   7.212   5.057  0.8441 -1.4733  0.5176
   36MOL    H3526705   1.248   6.737   5.019 -1.4339 -2.5292 -0.5369
   36MOL    H3626706   1.368   6.546   4.917 -0.6554 -0.1270  0.3130
   36MOL    H3726707   1.552   6.823   4.634 -0.1651  0.1958  0.3500
   36MOL    H3826708   1.431   7.001   4.735 -0.7992 -1.0670 -0.9029
   36MOL    H3926709   1.599   7.631   5.274  0.0409 -0.1058 -0.8083
   36MOL    C4026710   1.281   6.074   4.805  0.0555 -0.1631  0.5055
   36MOL    C4126711   1.390   6.183   4.791 -0.3953  0.5820  0.5055
   36MOL    C4226712   1.416   6.219   4.644 -0.5863  0.1326 -0.2513
   36MOL    C4326713   1.529   6.330   4.626  0.1199 -0.4002  0.0777
   36MOL    C4426714   1.447   6.097   4.556 -0.0249 -0.4081 -0.7372
   36MOL    C4526715   1.352   5.979   4.584 -0.5197 -0.3142  0.3786
   36MOL    C4626716   1.325   5.948   4.733 -0.1796 -0.9224 -0.3862
   36MOL    C4726717   1.251   5.819   4.762 -0.3294 -1.2238  0.4904
   36MOL    O4826718   1.319   5.717   4.698 -0.0789  0.2763  0.5426
   36MOL    C4926719   1.261   5.593   4.678 -0.4233 -0.1032 -0.6569
   36MOL    O5026720   1.146   5.561   4.699  0.0053  0.1169 -0.1942
   36MOL    C5126721   1.355   5.493   4.620  0.5766  0.3719  0.4181
   36MOL    C5226722   1.497   5.502   4.635  0.0060  0.6651 -0.1490
   36MOL    C5326723   1.582   5.394   4.589  0.6751 -0.0918 -0.2575
   36MOL    C5426724   1.519   5.281   4.533  0.4523  0.3211  0.4511
   36MOL    C5526725   1.604   5.179   4.475 -0.6028  0.3007  0.3963
   36MOL    O5626726   1.569   5.108   4.378  0.1448  0.2452  0.1226
   36MOL    O5726727   1.724   5.177   4.536 -0.0121 -0.4765 -0.0681
   36MOL    C5826728   1.379   5.268   4.527  0.2379 -0.1481  0.5412
   36MOL    C5926729   1.301   5.374   4.562 -0.3729  0.0376 -0.3092
   36MOL    H6026730   1.189   6.107   4.757  1.6309 -0.4399 -2.8733
   36MOL    H6126731   1.275   6.047   4.911 -0.6900 -1.5765  0.1219
   36MOL    H6226732   1.483   6.147   4.835 -0.5188 -0.6921 -0.2426
   36MOL    H6326733   1.369   6.274   4.846  2.9975  0.6055  1.8775
   36MOL    H6426734   1.333   6.274   4.598 -0.4929 -0.3920 -1.0406
   36MOL    H6526735   1.534   6.351   4.519 -1.2860  2.2352  0.4857
   36MOL    H6626736   1.623   6.287   4.662  0.1754 -2.6745 -2.5950
   36MOL    H6726737   1.546   6.059   4.582  0.0693  0.8465  0.8587
   36MOL    H6826738   1.449   6.132   4.453  1.3449  2.4032  0.2062
   36MOL    H6926739   1.251   5.999   4.548 -0.1470  1.1097  0.0825
   36MOL    H7026740   1.396   5.890   4.537 -1.4404  0.1721 -1.4702
   36MOL    H7126741   1.422   5.933   4.780 -1.1545 -1.2492  1.5910
   36MOL    H7226742   1.148   5.823   4.726 -0.1250  0.3750  0.0462
   36MOL    H7326743   1.233   5.808   4.869  1.0366  3.5836  1.3514
   36MOL    H7426744   1.539   5.586   4.689  2.0781 -0.0572 -0.5713
   36MOL    H7526745   1.688   5.407   4.602  0.5876 -0.9117  1.3740
   36MOL    H7626746   1.328   5.182   4.486 -0.5396 -0.0402  1.2553
   36MOL    H7726747   1.193   5.367   4.554 -0.3892 -0.0049 -0.0492
   36MOL    C7826748   2.087   5.171   4.745 -0.1894  0.2158 -0.6344
   36MOL    C7926749   1.995   5.199   4.620 -0.6168  0.0151 -0.5014
   36MOL    C8026750   1.932   5.071   4.580 -0.3070  0.0701  0.4217
   36MOL    C8126751   1.811   5.082   4.491 -0.1071  0.5516  0.1903
   36MOL    C8226752   2.036   4.969   4.529  0.3016  0.8584  0.3642
   36MOL    C8326753   2.144   4.940   4.640  0.1366 -0.7266  0.1912
   36MOL    C8426754   2.195   5.068   4.711  0.3484  0.1777  0.3864
   36MOL    C8526755   2.291   5.044   4.827 -0.1432 -0.8952  0.3091
   36MOL    O8626756   2.237   4.947   4.908 -0.4130  0.4194  0.0015
   36MOL    C8726757   2.181   4.975   5.029 -0.1385 -0.1745 -0.8195
   36MOL    O8826758   2.199   5.081   5.094  0.1709 -0.2842  0.2274
   36MOL    C8926759   2.077   4.876   5.066 -0.0723 -0.7414 -0.3211
   36MOL    C9026760   2.003   4.890   5.188  0.1650 -0.6733  0.3417
   36MOL    C9126761   1.888   4.811   5.208  0.1850  0.4802  0.4036
   36MOL    C9226762   1.849   4.725   5.101  0.4716 -0.6897  0.1950
   36MOL    C9326763   1.735   4.623   5.123  0.3038 -0.2843 -0.8332
   36MOL    O9426764   1.690   4.606   5.236  0.1814 -0.7402 -0.1909
   36MOL    O9526765   1.682   4.572   5.009 -0.4268 -0.0006 -0.1505
   36MOL    C9626766   1.926   4.709   4.988 -0.8984 -0.1916 -0.7448
   36MOL    C9726767   2.042   4.779   4.971  1.0304 -0.0532 -0.1623
   36MOL    H9826768   2.035   5.140   4.836  0.3586  1.1669  0.0144
   36MOL    H9926769   2.137   5.259   4.785 -0.3596 -0.4967  1.2296
   36MOL   H10026770   2.043   5.255   4.540  1.7964 -0.2108  0.7314
   36MOL   H10126771   1.913   5.262   4.655 -1.1089 -0.6432 -0.4703
   36MOL   H10226772   1.902   5.031   4.678 -0.8869 -3.0353 -0.9575
   36MOL   H10326773   1.764   4.984   4.496  2.0606 -0.4992  0.4134
   36MOL   H10426774   1.844   5.102   4.388 -0.7674  1.1038  0.0814
   36MOL   H10526775   2.084   5.009   4.440  0.0302  1.6718  0.5781
   36MOL   H10626776   1.996   4.874   4.495  2.2790 -1.7230  4.7520
   36MOL   H10726777   2.102   4.875   4.716  0.2536  0.0615  0.9421
   36MOL   H10826778   2.223   4.878   4.597 -1.8656 -3.3318  0.1906
   36MOL   H10926779   2.252   5.114   4.631 -0.3229  0.2454 -0.0610
   36MOL   H11026780   2.304   5.138   4.881 -2.0452 -0.2462 -0.3379
   36MOL   H11126781   2.385   5.016   4.780  0.6729  1.7794  0.2471
   36MOL   H11226782   2.045   4.966   5.253  0.4729 -1.1260  0.6721
   36MOL   H11326783   1.830   4.804   5.298  1.6766  1.3861  1.4457
   36MOL   H11426784   1.892   4.652   4.902 -1.2678  0.5622 -1.1020
   36MOL   H11526785   2.103   4.748   4.886  0.8299  1.0389 -0.7177
   36MOL   C11626786   1.536   4.270   4.726 -0.7009 -0.0263 -0.3422
   36MOL   C11726787   1.594   4.340   4.853 -0.2718  0.7360 -1.0791
   36MOL   C11826788   1.504   4.461   4.881  0.6224  0.6819 -0.4291
   36MOL   C11926789   1.553   4.513   5.015  0.2996  0.3504 -0.6772
   36MOL   C12026790   1.518   4.557   4.770  0.4734  0.0598 -0.8782
   36MOL   C12126791   1.461   4.500   4.645 -0.4075 -0.1137  0.1966
   36MOL   C12226792   1.534   4.365   4.609 -0.4325  0.6235  0.1288
   36MOL   C12326793   1.471   4.303   4.483 -0.1944 -0.4679 -0.2810
   36MOL   O12426794   1.527   4.192   4.421 -0.0254 -0.4916  0.4251
   36MOL   C12526795   1.476   4.066   4.436 -0.8830  0.4208  0.1892
   36MOL   O12626796   1.386   4.037   4.511  0.2222  0.1543  0.0557
   36MOL   C12726797   1.540   3.961   4.353  0.0399  0.4780  0.2728
   36MOL   C12826798   1.500   3.826   4.361  0.0642  0.3662  0.1442
   36MOL   C12926799   1.561   3.723   4.286  0.4704  0.5555 -0.5780
   36MOL   C13026800   1.664   3.754   4.188 -0.4043  0.1008  0.1963
   36MOL   C13126801   1.731   3.645   4.108  0.3780  0.2620 -0.6427
   36MOL   O13226802   1.785   3.669   3.998  0.7479 -0.3801  0.4998
   36MOL   O13326803   1.712   3.527   4.164 -0.1730 -0.1013 -0.2804
   36MOL   C13426804   1.697   3.891   4.173 -0.0405  0.4436 -0.5172
   36MOL   C13526805   1.636   3.994   4.254  0.4401  0.1223  0.5209
   36MOL   H13626806   1.433   4.245   4.751 -0.8854 -1.8792 -2.7543
   36MOL   H13726807   1.587   4.175   4.708 -0.7620 -0.6380  2.3940
   36MOL   H13826808   1.697   4.368   4.830  0.2724 -0.7340 -0.5130
   36MOL   H13926809   1.588   4.274   4.939  1.7327  0.1030 -1.3857
   36MOL   H14026810   1.403   4.426   4.901  1.3913 -0.8016  1.0329
   36MOL   H14126811   1.548   4.436   5.092  1.8767  1.8856  1.0016
   36MOL   H14226812   1.479   4.583   5.052 -0.2643  0.6926 -2.4215
   36MOL   H14326813   1.620   4.591   4.754  1.1009 -0.2164  2.2740
   36MOL   H14426814   1.455   4.639   4.805  2.0052 -0.2326  2.7597
   36MOL   H14526815   1.353   4.491   4.657 -0.2269 -1.5606  0.8099
   36MOL   H14626816   1.477   4.581   4.574 -1.5277  0.2631  0.3742
   36MOL   H14726817   1.635   4.389   4.576 -0.6693  0.4411 -0.7631
   36MOL   H14826818   1.461   4.390   4.418  0.8889  1.1415  1.6407
   36MOL   H14926819   1.368   4.272   4.503  0.0073 -0.1130  1.3956
   36MOL   H15026820   1.435   3.793   4.442  2.4472 -0.9586  1.5708
   36MOL   H15126821   1.529   3.621   4.302  0.2689  0.8103  0.6959
   36MOL   H15226822   1.769   3.918   4.097  1.2805 -3.4457 -0.7297
   36MOL   H15326823   1.675   4.095   4.250 -0.2464  0.3623 -0.2998
   36MOL   C15426824   1.750   3.115   4.345  0.0670  0.2271  0.0601
   36MOL   C15526825   1.786   3.248   4.281 -0.0561 -0.2249 -0.3425
   36MOL   C15626826   1.705   3.282   4.152  0.3470 -0.0427  0.6233
   36MOL   C15726827   1.759   3.415   4.095 -0.7687 -0.4142 -0.2988
   36MOL   C15826828   1.711   3.168   4.058 -0.1069  0.6534  0.5854
   36MOL   C15926829   1.656   3.039   4.125 -0.4288 -0.5606 -0.4103
   36MOL   C16026830   1.746   2.997   4.242 -0.6933  1.0445 -0.4409
   36MOL   C16126831   1.707   2.868   4.306 -0.9156 -0.3899 -0.4997
   36MOL   O16226832   1.716   2.770   4.202 -0.0600 -0.2415  0.0460
   36MOL   C16326833   1.697   2.642   4.230 -0.1787  0.1886 -0.5522
   36MOL   O16426834   1.686   2.602   4.348 -1.0571  0.2083 -0.0093
   36MOL   C16526835   1.701   2.553   4.110 -0.4156  0.3105 -0.6932
   36MOL   C16626836   1.716   2.602   3.981 -0.5233  0.1553  0.2183
   36MOL   C16726837   1.726   2.519   3.867 -0.2453  0.6067  0.2914
   36MOL   C16826838   1.736   2.378   3.885  0.1982 -0.1682  0.2833
   36MOL   C16926839   1.757   2.281   3.774  0.1958 -0.2701 -0.1595
   36MOL   O17026840   1.718   2.159   3.775 -0.4439  0.0974  0.7534
   36MOL   O17126841   1.830   2.343   3.675 -0.4707 -0.6316 -0.1715
   36MOL   C17226842   1.729   2.327   4.015  0.4189 -0.6834 -0.0345
   36MOL   C17326843   1.706   2.412   4.127  1.1875 -0.4835 -0.1756
   36MOL   H17426844   1.653   3.139   4.389 -1.2743 -2.6828 -1.1734
   36MOL   H17526845   1.827   3.098   4.421  0.5093  0.1189 -0.4119
   36MOL   H17626846   1.887   3.224   4.248 -0.3834 -1.2638 -0.5926
   36MOL   H17726847   1.785   3.335   4.348  0.8547 -0.1556 -0.4085
   36MOL   H17826848   1.599   3.293   4.172 -0.0810 -2.0253 -0.3244
   36MOL   H17926849   1.740   3.412   3.988  0.8308 -4.0333 -0.5708
   36MOL   H18026850   1.866   3.396   4.092 -0.3996  1.3512  1.1094
   36MOL   H18126851   1.812   3.154   4.019  0.8204  2.0881  2.4016
   36MOL   H18226852   1.663   3.194   3.964  0.2362 -0.9705 -0.0652
   36MOL   H18326853   1.560   3.063   4.171 -0.6485 -0.2784 -1.0068
   36MOL   H18426854   1.641   2.959   4.052 -3.7534  1.4947 -2.1184
   36MOL   H18526855   1.847   2.980   4.204 -0.8565  0.3841 -0.5849
   36MOL   H18626856   1.613   2.869   4.361 -1.1563 -1.0555 -0.8974
   36MOL   H18726857   1.775   2.832   4.383  0.6918 -1.3594 -2.3555
   36MOL   H18826858   1.721   2.710   3.972  0.8229  0.1089  0.3672
   36MOL   H18926859   1.739   2.556   3.766 -0.5311 -0.7620 -0.2626
   36MOL   H19026860   1.747   2.224   4.042  2.8418 -0.4104 -0.4718
   36MOL   H19126861   1.699   2.367   4.225 -2.7544 -1.3449 -0.7669
   36MOL   C19226862   1.836   2.483   3.270  0.9768  0.1941  0.1380
   36MOL   C19326863   1.801   2.405   3.402 -0.0578  0.6782  0.1536
   36MOL   C19426864   1.937   2.355   3.469 -0.3013 -0.4548 -0.0166
   36MOL   C19526865   1.904   2.266   3.581  0.3427  0.0487 -0.2218
   36MOL   C19626866   2.020   2.270   3.369  0.4745  0.0557  0.2208
   36MOL   C19726867   2.058   2.357   3.246  0.9788 -0.1203 -0.0717
   36MOL   C19826868   1.933   2.405   3.175  0.0284 -0.4822 -0.7100
   36MOL   C19926869   1.981   2.480   3.048  0.2678 -0.1063  0.3302
   36MOL   O20026870   2.030   2.605   3.080 -0.3672 -0.6953 -0.3883
   36MOL   C20126871   1.993   2.720   3.018  0.0954  0.3990  0.3787
   36MOL   O20226872   1.935   2.722   2.906 -0.3465  0.0372 -0.5434
   36MOL   C20326873   2.030   2.842   3.092  0.3457 -0.1186  0.4117
   36MOL   C20426874   2.008   2.962   3.025 -0.3296 -0.4081  0.7759
   36MOL   C20526875   2.020   3.089   3.088 -0.3676 -0.1042  0.4619
   36MOL   C20626876   2.090   3.095   3.209 -0.6235  1.1042 -0.1694
   36MOL   C20726877   2.109   3.221   3.276  0.1696 -0.4650  0.0950
   36MOL   O20826878   2.159   3.229   3.389  0.4238 -0.1381  0.0594
   36MOL   O20926879   2.065   3.329   3.202  0.2717 -0.2657 -0.3758
   36MOL   C21026880   2.121   2.975   3.283 -0.2770  0.4473 -0.2877
   36MOL   C21126881   2.091   2.850   3.224 -0.6489  0.2510 -0.0579
   36MOL   H21226882   1.873   2.585   3.283  0.6559  0.4562 -0.9508
   36MOL   H21326883   1.742   2.493   3.216  0.7418  0.9531  0.6875
   36MOL   H21426884   1.743   2.321   3.365 -0.4210  0.7034  0.6513
   36MOL   H21526885   1.759   2.474   3.476  0.6030 -0.9891  2.1095
   36MOL   H21626886   1.996   2.441   3.498 -0.8188 -1.3006  3.7898
   36MOL   H21726887   1.997   2.249   3.633  0.0348  0.0245  0.3260
   36MOL   H21826888   1.852   2.176   3.550 -0.5019  0.8510 -1.2030
   36MOL   H21926889   1.958   2.184   3.343 -2.4928  2.1046  0.1519
   36MOL   H22026890   2.106   2.232   3.424 -1.1068 -1.1328  1.9437
   36MOL   H22126891   2.122   2.439   3.279 -1.1199  2.0383 -1.2354
   36MOL   H22226892   2.119   2.304   3.172  0.0678 -0.0910 -0.8523
   36MOL   H22326893   1.883   2.314   3.139  0.7676 -0.7998 -0.9428
   36MOL   H22426894   1.898   2.482   2.978  2.4685 -0.5126 -2.4112
   36MOL   H22526895   2.066   2.429   3.001  0.7465  0.6831  0.3252
   36MOL   H22626896   1.967   2.952   2.926  0.4662  1.7486  0.2158
   36MOL   H22726897   1.990   3.173   3.028 -0.2077  0.9244  1.8184
   36MOL   H22826898   2.150   2.985   3.386 -1.7542  1.1264  0.0718
   36MOL   H22926899   2.108   2.762   3.284 -3.4230  0.4066  1.0226
   36MOL   C23026900   1.816   3.753   3.157 -0.3421  0.3307 -0.6720
   36MOL   C23126901   1.867   3.650   3.260 -0.0400  0.2753  0.7040
   36MOL   C23226902   1.956   3.545   3.177  0.5742  0.3464  0.0733
   36MOL   C23326903   2.021   3.442   3.277 -0.2739  0.0579 -0.4797
   36MOL   C23426904   1.864   3.477   3.066 -0.7888 -0.0153  0.2062
   36MOL   C23526905   1.806   3.581   2.966  0.1013  0.8807  0.8159
   36MOL   C23626906   1.734   3.689   3.043 -0.0285 -0.0568 -0.3528
   36MOL   C23726907   1.684   3.808   2.952  0.7308  0.3126 -0.6039
   36MOL   O23826908   1.576   3.755   2.886  0.6356 -0.3754  0.4118
   36MOL   C23926909   1.454   3.817   2.879  0.6631  0.2522  0.1991
   36MOL   O24026910   1.427   3.930   2.928 -0.8889  0.4595  0.5201
   36MOL   C24126911   1.362   3.736   2.802  0.0003 -0.5875 -0.3807
   36MOL   C24226912   1.389   3.601   2.766 -0.3210 -0.6744 -0.8255
   36MOL   C24326913   1.281   3.520   2.713  0.5813 -0.0547  0.5168
   36MOL   C24426914   1.167   3.582   2.661 -0.1216 -0.1712 -0.5698
   36MOL   C24526915   1.084   3.512   2.559  0.1428 -0.4259  0.0082
   36MOL   O24626916   1.084   3.389   2.547  0.5062 -0.0317 -0.3856
   36MOL   O24726917   1.008   3.598   2.487  0.3351 -0.7005  0.5120
   36MOL   C24826918   1.145   3.720   2.695 -0.7387 -0.4942  0.7406
   36MOL   C24926919   1.241   3.795   2.764  0.0402 -0.1632  0.4853
   36MOL   H25026920   1.900   3.812   3.120  0.4608  0.0081  0.5707
   36MOL   H25126921   1.755   3.826   3.212 -2.6832 -0.6020 -1.9817
   36MOL   H25226922   1.781   3.606   3.311 -0.6070  2.0954  1.3355
   36MOL   H25326923   1.929   3.692   3.339 -1.3415  0.9317  1.3829
   36MOL   H25426924   2.029   3.605   3.124 -0.3529 -0.2798 -1.9460
   36MOL   H25526925   1.961   3.409   3.362  0.6601  0.1919  0.2415
   36MOL   H25626926   2.103   3.502   3.315 -0.7629  0.9084 -0.7504
   36MOL   H25726927   1.782   3.420   3.109 -0.7527 -2.1637 -2.4314
   36MOL   H25826928   1.920   3.402   3.010  0.6209  0.8678  0.4021
   36MOL   H25926929   1.892   3.612   2.905  0.1873 -1.4824 -0.3263
   36MOL   H26026930   1.746   3.533   2.889  2.4411 -1.0513  0.0912
   36MOL   H26126931   1.646   3.649   3.094 -0.4623  0.1347 -0.9493
   36MOL   H26226932   1.755   3.847   2.879  0.0386  0.7577 -1.0385
   36MOL   H26326933   1.651   3.894   3.011 -2.9433 -0.6872 -1.0763
   36MOL   H26426934   1.485   3.557   2.788 -1.2486 -2.2194  0.2396
   36MOL   H26526935   1.300   3.417   2.689 -0.7109  0.1113 -1.2725
   36MOL   H26626936   1.054   3.769   2.664 -0.8740  0.0062  1.8888
   36MOL   H26726937   1.226   3.900   2.785  3.2140  0.5504 -0.5042
   36MOL   C26826938   1.025   3.660   1.993 -0.4422 -0.1361 -1.0719
   36MOL   C26926939   0.954   3.595   2.112  0.5193 -0.4483 -0.5092
   36MOL   C27026940   1.017   3.621   2.245 -0.1972  0.7956 -0.5913
   36MOL   C27126941   0.951   3.555   2.368 -0.0672 -0.1383  0.4953
   36MOL   C27226942   1.167   3.580   2.230  0.5833  0.6171  0.4715
   36MOL   C27326943   1.242   3.645   2.117 -0.0877  0.0550  0.6666
   36MOL   C27426944   1.172   3.615   1.984  0.0008 -0.1358  0.4460
   36MOL   C27526945   1.253   3.676   1.871 -0.0203  0.1504 -0.3082
   36MOL   O27626946   1.237   3.816   1.860 -0.1162  0.0412 -0.3305
   36MOL   C27726947   1.202   3.872   1.747  0.1311  0.5102  0.2703
   36MOL   O27826948   1.159   3.804   1.648 -1.0527 -0.3834  0.2165
   36MOL   C27926949   1.232   4.019   1.736  0.3446  0.4759  0.2785
   36MOL   C28026950   1.317   4.078   1.832  0.4317  0.0336 -0.5588
   36MOL   C28126951   1.348   4.213   1.812 -0.0990  0.4047  0.1834
   36MOL   C28226952   1.280   4.290   1.711  0.7865 -0.1078  1.1407
   36MOL   C28326953   1.309   4.437   1.694 -0.1528  1.4571  0.2100
   36MOL   O28426954   1.389   4.502   1.764  0.4343 -0.0953  0.2689
   36MOL   O28526955   1.239   4.490   1.589 -0.1768  0.1701 -0.2431
   36MOL   C28626956   1.189   4.225   1.622 -0.1721 -0.4410  0.1139
   36MOL   C28726957   1.170   4.088   1.631  0.1261 -0.1498  0.1419
   36MOL   H28826958   1.014   3.768   1.987 -1.5641  0.0559  3.2130
   36MOL   H28926959   0.966   3.637   1.904 -0.2921 -0.6884 -1.0327
   36MOL   H29026960   0.940   3.490   2.084 -1.3234 -0.3329 -0.1215
   36MOL   H29126961   0.856   3.643   2.107 -0.1744 -1.8261 -0.6035
   36MOL   H29226962   1.004   3.728   2.265 -2.4684  0.4365  0.0279
   36MOL   H29326963   0.944   3.447   2.354 -0.9008 -0.0814  0.4740
   36MOL   H29426964   0.850   3.596   2.367  0.6580  1.6765  0.8610
   36MOL   H29526965   1.171   3.473   2.207  0.6340  0.7660 -0.2486
   36MOL   H29626966   1.223   3.587   2.323  1.0757  1.0335  0.1431
   36MOL   H29726967   1.273   3.749   2.119  0.5555 -0.0436 -2.0020
   36MOL   H29826968   1.338   3.596   2.108  0.0588  0.2229  1.2641
   36MOL   H29926969   1.176   3.507   1.973 -1.0660 -0.0811 -0.5145
   36MOL   H30026970   1.227   3.622   1.780 -0.8525 -2.4490  1.4367
   36MOL   H30126971   1.360   3.670   1.889 -0.6783 -1.9717  3.3098
   36MOL   H30226972   1.356   4.031   1.921 -1.3915 -1.0242 -0.2829
   36MOL   H30326973   1.402   4.269   1.887 -1.2323 -0.3228  1.5759
   36MOL   H30426974   1.131   4.275   1.545  1.4776 -1.3690 -1.7479
   36MOL   H30526975   1.090   4.052   1.568 -0.7521  0.3686  0.9526
   36MOL   C30626976   1.116   4.627   1.197  0.4375 -0.4154  0.1813
   36MOL   C30726977   1.107   4.605   1.348 -0.4788 -0.5984 -0.5731
   36MOL   C30826978   1.237   4.659   1.404 -0.4888 -0.4509 -0.2972
   36MOL   C30926979   1.246   4.635   1.555  0.0777  0.3952  0.1793
   36MOL   C31026980   1.367   4.591   1.336 -0.3104 -0.5099 -0.0392
   36MOL   C31126981   1.368   4.600   1.189 -0.1453  0.5912 -0.1053
   36MOL   C31226982   1.231   4.557   1.128  0.1045 -0.3284  0.0580
   36MOL   C31326983   1.232   4.571   0.976 -0.5661 -0.4644 -0.4395
   36MOL   O31426984   1.332   4.485   0.927 -0.3540  0.3889 -0.2421
   36MOL   C31526985   1.302   4.383   0.843  0.4855  0.0053  0.6224
   36MOL   O31626986   1.192   4.362   0.781  0.3900 -0.3535  0.0574
   36MOL   C31726987   1.420   4.309   0.796  0.2997  0.0506 -0.2700
   36MOL   C31826988   1.536   4.296   0.873 -0.0674  0.2711 -0.0977
   36MOL   C31926989   1.651   4.227   0.829 -0.1695  0.0823 -0.6766
   36MOL   C32026990   1.645   4.155   0.706 -0.5809 -0.0977  0.1182
   36MOL   C32126991   1.759   4.079   0.651 -0.7949 -0.3048 -0.6055
   36MOL   O32226992   1.870   4.072   0.712 -0.2311  0.6639 -0.0174
   36MOL   O32326993   1.741   4.016   0.540 -0.6076 -0.1596  0.5832
   36MOL   C32426994   1.524   4.154   0.635  0.3320 -0.4446  0.5022
   36MOL   C32526995   1.415   4.238   0.673 -0.0533 -0.3061  0.3176
   36MOL   H32626996   1.140   4.732   1.179  0.7749 -0.8072 -1.7737
   36MOL   H32726997   1.022   4.614   1.144  0.9878  0.1266 -0.9579
   36MOL   H32826998   1.093   4.503   1.382  4.1015 -0.7945  1.0872
   36MOL   H32926999   1.024   4.659   1.393  1.4429  2.1553 -0.2147
   36MOL   H33027000   1.244   4.767   1.393  2.6743 -0.4171  1.5149
   36MOL   H33127001   1.156   4.679   1.596 -0.4096 -0.1368 -0.3082
   36MOL   H33227002   1.339   4.678   1.594  0.3136  0.7532 -0.7549
   36MOL   H33327003   1.379   4.487   1.367 -0.0586 -0.4617  0.0266
   36MOL   H33427004   1.451   4.649   1.375  0.2094 -0.2773 -1.4483
   36MOL   H33527005   1.391   4.701   1.154  0.5896 -0.1746 -1.9086
   36MOL   H33627006   1.447   4.544   1.139 -1.2494 -2.7180  1.7372
   36MOL   H33727007   1.209   4.453   1.153 -1.9044 -0.1083 -0.6654
   36MOL   H33827008   1.243   4.675   0.944  0.0605 -0.2151  0.5904
   36MOL   H33927009   1.137   4.549   0.926 -1.7334  2.1292  0.5402
   36MOL   H34027010   1.551   4.353   0.963 -2.7653  0.5911  0.1932
   36MOL   H34127011   1.744   4.234   0.882 -0.5097 -2.5585  0.3605
   36MOL   H34227012   1.519   4.095   0.545  0.3882  0.4179 -0.0718
   36MOL   H34327013   1.325   4.246   0.614 -0.3762  0.2703  0.8826
   36MOL   C34427014   1.642   3.643   0.310  0.0801  0.0274  0.1006
   36MOL   C34527015   1.698   3.719   0.430 -0.5403 -0.4226  0.0941
   36MOL   C34627016   1.795   3.832   0.376  0.0502 -0.2280 -0.3581
   36MOL   C34727017   1.841   3.926   0.486  0.9612 -0.3132 -0.2907
   36MOL   C34827018   1.911   3.770   0.306  0.6967 -0.9710  0.6843
   36MOL   C34927019   1.868   3.696   0.176 -0.5361 -0.2503 -0.7775
   36MOL   C35027020   1.761   3.593   0.212 -0.0993 -0.2041 -0.0372
   36MOL   C35127021   1.700   3.528   0.084 -0.6881  0.5607 -0.7917
   36MOL   O35227022   1.616   3.626   0.024 -0.1110  0.1130  0.1619
   36MOL   C35327023   1.573   3.631   7.922  0.0427  0.1174  0.2680
   36MOL   O35427024   1.590   3.534   7.844 -0.5156 -0.5689 -0.4166
   36MOL   C35527025   1.485   3.750   7.889 -0.1405 -0.5395  0.4809
   36MOL   C35627026   1.478   3.858   7.976  0.3066  1.0574  0.5601
   36MOL   C35727027   1.404   3.978   7.947  0.0457 -0.7036 -0.1038
   36MOL   C35827028   1.328   3.986   7.827  0.2325 -0.1456 -0.0405
   36MOL   C35927029   1.226   4.091   7.808  0.0656 -0.2530  0.3943
   36MOL   O36027030   1.141   4.096   7.721  0.3112 -0.0771  0.0569
   36MOL   O36127031   1.239   4.183   7.907  0.3912 -0.0416  0.2513
   36MOL   C36227032   1.343   3.873   7.739 -0.0489  0.7948 -0.1577
   36MOL   C36327033   1.427   3.763   7.765 -0.1776  0.2896 -0.0984
   36MOL   H36427034   1.574   3.708   0.255 -1.1899 -0.5951  0.8996
   36MOL   H36527035   1.578   3.559   0.338  1.4284 -0.8751  0.5336
   36MOL   H36627036   1.755   3.646   0.487 -3.7362 -1.6185  1.8693
   36MOL   H36727037   1.633   3.768   0.502 -0.3236  1.9833 -1.2907
   36MOL   H36827038   1.754   3.883   0.289 -1.4845  0.1583  0.5761
   36MOL   H36927039   1.928   3.988   0.461 -1.3558  2.5861 -1.4191
   36MOL   H37027040   1.877   3.864   0.568  1.0288  2.0972  1.5513
   36MOL   H37127041   1.960   3.697   0.371 -1.1664 -2.1720  0.7622
   36MOL   H37227042   1.979   3.850   0.276  0.4023 -1.7431 -2.1605
   36MOL   H37327043   1.820   3.764   0.106 -1.5042 -0.4517 -0.3217
   36MOL   H37427044   1.958   3.654   0.131 -0.2337 -1.2018  0.6712
   36MOL   H37527045   1.807   3.508   0.262 -2.2989 -0.6591  1.2407
   36MOL   H37627046   1.648   3.437   0.111  0.8702 -0.2601 -0.4899
   36MOL   H37727047   1.781   3.500   0.016 -2.3748 -1.1586 -2.1182
   36MOL   H37827048   1.535   3.855   0.035 -1.3299 -1.5747  1.5666
   36MOL   H37927049   1.403   4.059   8.018 -0.1389 -0.2202 -0.6501
   36MOL   H38027050   1.288   3.865   7.647 -0.7557 -0.1953  0.3443
   36MOL   H38127051   1.429   3.678   7.698 -1.5839 -1.7744  2.4113
   36MOL   C38227052   1.218   4.681   7.831  0.5448  0.8702  0.0726
   36MOL   C38327053   1.148   4.555   7.894  0.0789 -0.6235 -0.2034
   36MOL   C38427054   1.223   4.428   7.856  0.0632 -0.3242 -0.4707
   36MOL   C38527055   1.157   4.298   7.908 -0.5268  0.1466 -0.6480
   36MOL   C38627056   1.261   4.417   7.708  0.2137 -0.0057  0.0009
   36MOL   C38727057   1.337   4.537   7.660 -0.2797 -1.0175  0.2861
   36MOL   C38827058   1.254   4.668   7.683  0.1197  1.5139 -0.2647
   36MOL   C38927059   1.332   4.789   7.616  0.5684  0.5604  0.3759
   36MOL   O39027060   1.436   4.847   7.702  0.2886  0.0945  0.1209
   36MOL   C39127061   1.399   4.949   7.790 -0.3683  0.6934  0.4397
   36MOL   O39227062   1.288   5.003   7.802  0.5526  0.0553 -0.0388
   36MOL   C39327063   1.510   4.990   7.879  0.3853 -0.5266 -0.7742
   36MOL   C39427064   1.627   4.910   7.894  0.7356 -0.4500  0.0005
   36MOL   C39527065   1.733   4.959   7.973 -0.5250  0.1933 -0.5250
   36MOL   C39627066   1.717   5.074   0.023  0.6452  0.0856 -0.4154
   36MOL   C39727067   1.831   5.105   0.122  0.2651  0.2915  0.7583
   36MOL   O39827068   1.815   5.180   0.221  0.3524  0.0532  0.0020
   36MOL   O39927069   1.938   5.052   0.084  0.6015 -0.3907 -0.2557
   36MOL   C40027070   1.604   5.153   0.012  0.5903 -0.5161 -0.3280
   36MOL   C40127071   1.501   5.108   7.952 -0.0632  0.2456  0.1849
   36MOL   H40227072   1.303   4.697   7.898  0.5629  0.2214  0.2102
   36MOL   H40327073   1.145   4.761   7.848  0.9829  2.0344 -3.2844
   36MOL   H40427074   1.045   4.550   7.859 -0.0610 -0.2688  0.1543
   36MOL   H40527075   1.131   4.571   8.000 -1.2217  0.5133 -0.5552
   36MOL   H40627076   1.310   4.442   7.921  1.6917 -0.9526 -2.4755
   36MOL   H40727077   1.069   4.284   7.846 -1.3292 -1.7008  0.8629
   36MOL   H40827078   1.125   4.305   8.012  0.0387 -1.0792 -0.3773
   36MOL   H40927079   1.174   4.404   7.644  1.4569  0.1291 -1.7615
   36MOL   H41027080   1.317   4.324   7.692  1.9204  1.2134 -1.3027
   36MOL   H41127081   1.428   4.553   7.718 -0.1381  0.0839 -0.2232
   36MOL   H41227082   1.361   4.527   7.554  0.8972  1.3179  0.2911
   36MOL   H41327083   1.163   4.652   7.624  0.7287 -0.3637 -0.7299
   36MOL   H41427084   1.263   4.867   7.585 -0.7559 -1.0464 -0.7996
   36MOL   H41527085   1.382   4.739   7.534 -0.6276 -1.2479  0.7224
   36MOL   H41627086   1.646   4.819   7.839 -1.0080 -0.4485 -0.6290
   36MOL   H41727087   1.818   4.892   7.975 -1.2549 -0.7198  1.6240
   36MOL   H41827088   1.590   5.238   0.077 -1.3363 -0.4017 -0.8603
   36MOL   H41927089   1.417   5.173   7.932 -0.0293 -0.5419 -2.7230
   36MOL   C42027090   2.299   4.931   7.930  0.5264 -0.3732 -0.7995
   36MOL   C42127091   2.191   5.018   7.996  0.4233 -0.5118 -0.7442
   36MOL   C42227092   2.169   4.981   0.111  0.1308 -0.1683 -0.2187
   36MOL   C42327093   2.049   5.065   0.165 -0.7378  0.1994  0.3159
   36MOL   C42427094   2.125   4.836   0.130 -0.0003  0.2907  0.1298
   36MOL   C42527095   2.236   4.747   0.076 -0.6385  0.3407  0.0512
   36MOL   C42627096   2.284   4.778   7.960  0.8600  0.5007  0.3378
   36MOL   C42727097   2.404   4.691   7.913 -0.7228 -0.0016 -0.3823
   36MOL   O42827098   2.486   4.649   8.023 -0.0174  0.1545 -0.0029
   36MOL   C42927099   2.589   4.564   7.997  0.3115 -0.5630  0.0836
   36MOL   O43027100   2.634   4.542   7.885  0.4260  0.3888  0.2872
   36MOL   C43127101   2.641   4.502   0.090  0.0852  0.1054 -0.1181
   36MOL   C43227102   2.718   4.385   0.074  0.0310  0.3715  0.5818
   36MOL   C43327103   2.769   4.319   0.183  0.4179 -0.0825  0.3933
   36MOL   C43427104   2.740   4.363   0.313 -0.9034 -0.1751  0.1081
   36MOL   C43527105   2.798   4.287   0.427 -0.0412 -0.4061  0.8790
   36MOL   O43627106   2.875   4.194   0.412  0.3781  0.0199 -0.2787
   36MOL   O43727107   2.758   4.344   0.547  0.3416 -0.0849 -0.0187
   36MOL   C43827108   2.655   4.472   0.332  0.3571  0.7378  0.2825
   36MOL   C43927109   2.607   4.540   0.218  0.1807  0.1774 -0.6582
   36MOL   H44027110   2.390   4.967   7.979  0.1104  0.8095 -0.8738
   36MOL   H44127111   2.296   4.955   7.824 -1.2934 -1.5385 -1.0306
   36MOL   H44227112   2.096   5.010   7.942 -0.6013 -1.3483  1.1228
   36MOL   H44327113   2.218   5.123   7.991 -0.4934 -0.1538  1.2749
   36MOL   H44427114   2.261   5.007   0.164  0.1294  0.4058 -0.5014
   36MOL   H44527115   2.074   5.171   0.162 -2.1447  0.5455  0.4627
   36MOL   H44627116   2.023   5.030   0.265 -1.7802 -1.5365 -0.5287
   36MOL   H44727117   2.027   4.822   0.085 -0.8363  0.5565  1.8277
   36MOL   H44827118   2.105   4.814   0.235  1.1505 -0.2230  0.2453
   36MOL   H44927119   2.328   4.776   0.127  0.2904 -1.4754 -0.5486
   36MOL   H45027120   2.238   4.639   0.089  0.0376  0.1984 -1.1552
   36MOL   H45127121   2.199   4.740   7.903  0.2859  1.8925  0.2505
   36MOL   H45227122   2.457   4.736   7.829  1.3759 -3.2199 -0.8760
   36MOL   H45327123   2.353   4.602   7.876 -2.2465  0.9472 -0.6366
   36MOL   H45427124   2.748   4.350   8.008  0.5039  0.8301  0.5610
   36MOL   H45527125   2.840   4.238   0.176  1.7717  0.5412  5.2133
   36MOL   H45627126   2.638   4.514   0.430 -0.4184 -1.7230  1.2351
   36MOL   H45727127   2.549   4.629   0.235 -1.3440 -0.2546 -3.3824
   36MOL   C45827128   3.189   4.343   0.806 -0.5928 -0.3294 -0.3831
   36MOL   C45927129   3.040   4.295   0.801  0.7416 -0.2722 -0.0519
   36MOL   C46027130   2.967   4.348   0.671  0.1912 -0.1946  0.1136
   36MOL   C46127131   2.819   4.299   0.662 -0.2113 -0.2169 -0.1771
   36MOL   C46227132   2.988   4.505   0.654 -0.3222  0.0696  0.1329
   36MOL   C46327133   3.139   4.552   0.681  0.1936 -0.4455  0.3027
   36MOL   C46427134   3.197   4.497   0.815  0.4954  0.0663 -0.5388
   36MOL   C46527135   3.340   4.536   0.859 -0.6195 -0.5110 -0.2405
   36MOL   O46627136   3.437   4.457   0.789 -0.2224  0.4229 -0.2582
   36MOL   C46727137   3.500   4.509   0.679 -0.0290 -0.4415  0.3545
   36MOL   O46827138   3.488   4.627   0.648 -0.6914  0.0153  0.2377
   36MOL   C46927139   3.588   4.410   0.612 -0.4083 -0.0671 -0.0852
   36MOL   C47027140   3.691   4.461   0.532  0.0734 -0.1881 -0.8619
   36MOL   C47127141   3.778   4.379   0.458  0.5379 -0.3326 -0.1459
   36MOL   C47227142   3.758   4.242   0.465  0.1475  0.2957  0.5904
   36MOL   C47327143   3.850   4.149   0.394 -0.1314  0.3944  0.0390
   36MOL   O47427144   3.952   4.180   0.338  0.1203  0.4464 -0.1323
   36MOL   O47527145   3.817   4.022   0.410 -0.0842 -0.3894 -0.8845
   36MOL   C47627146   3.652   4.187   0.545  0.4770  0.2945 -0.0211
   36MOL   C47727147   3.571   4.271   0.627 -0.6768  0.4270 -0.5968
   36MOL   H47827148   3.245   4.315   0.716 -1.5819 -1.7574 -0.5752
   36MOL   H47927149   3.239   4.301   0.893  1.0165  1.2856 -0.4913
   36MOL   H48027150   2.988   4.329   0.890  1.6750  3.2404 -0.7833
   36MOL   H48127151   3.042   4.186   0.792 -3.9042 -0.3361 -1.6042
   36MOL   H48227152   3.016   4.293   0.590  2.9279 -0.0483  1.6029
   36MOL   H48327153   2.769   4.347   0.746  0.4424 -1.4992  0.9755
   36MOL   H48427154   2.812   4.191   0.674  2.4760 -0.2283  1.9457
   36MOL   H48527155   2.934   4.559   0.732 -2.0536  0.7812 -1.5124
   36MOL   H48627156   2.968   4.545   0.555 -1.9167 -2.1551 -0.4984
   36MOL   H48727157   3.203   4.515   0.600  0.3970  0.8374 -0.1243
   36MOL   H48827158   3.155   4.659   0.687  1.9003 -0.7142  1.0191
   36MOL   H48927159   3.140   4.542   0.896  0.6509 -1.8199  0.6479
   36MOL   H49027160   3.370   4.521   0.963  0.9584 -0.1909 -0.6497
   36MOL   H49127161   3.357   4.642   0.837 -0.3720 -0.3541  0.6564
   36MOL   H49227162   3.700   4.568   0.521  2.9669 -0.2219  0.6191
   36MOL   H49327163   3.867   4.421   0.413  0.8321  0.4289  1.1187
   36MOL   H49427164   3.632   4.081   0.548  0.3161  0.3506  1.3207
   36MOL   H49527165   3.500   4.232   0.697 -0.5065 -0.9149 -1.1540
   36MOL   C49627166   3.747   3.596   0.512 -0.0231  0.2231  0.3248
   36MOL   C49727167   3.796   3.741   0.493 -0.2195  0.3060  0.3025
   36MOL   C49827168   3.805   3.785   0.348 -0.4323  0.4644  0.4158
   36MOL   C49927169   3.875   3.921   0.330 -0.4007  0.1322  0.2339
   36MOL   C50027170   3.868   3.685   0.251  0.0425  0.0608 -0.0650
   36MOL   C50127171   3.813   3.540   0.274 -0.0791  0.1145  0.2541
   36MOL   C50227172   3.831   3.499   0.423  0.3131  0.4853 -0.2052
   36MOL   C50327173   3.805   3.349   0.439  0.4392  0.2745 -0.0989
   36MOL   O50427174   3.673   3.325   0.389 -0.2590 -0.0037  0.0717
   36MOL   C50527175   3.603   3.218   0.433 -0.0546 -0.6048 -0.2101
   36MOL   O50627176   3.643   3.138   0.509 -0.4170 -0.5351  0.5223
   36MOL   C50727177   3.462   3.221   0.389  0.2986 -0.4341  0.5387
   36MOL   C50827178   3.365   3.126   0.430 -0.3982 -0.2606  0.8103
   36MOL   C50927179   3.229   3.140   0.399  0.5130 -0.2888 -0.7065
   36MOL   C51027180   3.185   3.244   0.310 -0.0923  0.0154  0.6141
   36MOL   C51127181   3.043   3.258   0.261 -0.0391 -1.0414 -0.4971
   36MOL   O51227182   2.951   3.203   0.321  0.1431  0.4185 -0.2162
   36MOL   O51327183   3.028   3.339   0.161 -0.2825  0.3539  0.2156
   36MOL   C51427184   3.288   3.320   0.245 -0.6804  0.4116  0.1891
   36MOL   C51527185   3.426   3.310   0.291 -0.0587  0.5067  0.9022
   36MOL   H51627186   3.643   3.582   0.481  0.2084 -0.5048 -0.1295
   36MOL   H51727187   3.754   3.555   0.612 -1.1705 -0.2219  0.2325
   36MOL   H51827188   3.897   3.743   0.534  0.5919  3.4669 -1.5927
   36MOL   H51927189   3.725   3.811   0.537 -1.6839 -0.3360 -0.9857
   36MOL   H52027190   3.702   3.807   0.321  0.2453 -0.6364 -3.2494
   36MOL   H52127191   3.882   3.947   0.225  0.4844 -2.1996 -0.3006
   36MOL   H52227192   3.980   3.911   0.357 -0.6695 -0.1496  1.2086
   36MOL   H52327193   3.977   3.689   0.261 -0.1638 -1.1892  3.4297
   36MOL   H52427194   3.844   3.710   0.148  0.8711  0.1117 -0.2517
   36MOL   H52527195   3.710   3.524   0.240 -0.0301 -0.6389  0.4357
   36MOL   H52627196   3.875   3.481   0.207 -2.1393  0.1437 -1.7639
   36MOL   H52727197   3.935   3.515   0.452  0.2103 -1.3396  1.2939
   36MOL   H52827198   3.816   3.324   0.545  1.6051 -1.8644 -0.6820
   36MOL   H52927199   3.876   3.285   0.386  0.2794 -0.6354  0.7504
   36MOL   H53027200   3.390   3.049   0.502  2.6932  1.2796  1.4649
   36MOL   H53127201   3.148   3.078   0.434  1.1581 -0.1332  1.1490
   36MOL   H53227202   3.259   3.396   0.175 -0.2982 -0.5506 -1.0460
   36MOL   H53327203   3.498   3.381   0.250  0.6841 -0.3008  0.7980
   36MOL   C53427204   3.001   3.552   7.805 -0.3835 -0.2745  0.1527
   36MOL   C53527205   2.992   3.515   7.959  0.0337  0.0288  0.5739
   36MOL   C53627206   2.900   3.394   7.986  0.1195 -0.3507  0.0654
   36MOL   C53727207   2.900   3.369   0.110 -1.0896 -0.3621  0.2090
   36MOL   C53827208   2.757   3.429   7.931 -0.2768  0.0403 -0.2636
   36MOL   C53927209   2.760   3.466   7.786 -0.2535  0.0017  0.3359
   36MOL   C54027210   2.861   3.584   7.749 -0.0700  0.0777  0.1727
   36MOL   C54127211   2.853   3.595   7.592 -0.5783 -0.1088  0.1622
   36MOL   O54227212   2.940   3.691   7.536 -0.5626 -0.9700  0.2588
   36MOL   C54327213   3.054   3.659   7.462 -0.5253 -0.7063  0.1650
   36MOL   O54427214   3.078   3.545   7.424  0.2242 -0.0977 -0.2136
   36MOL   C54527215   3.133   3.782   7.422 -0.6565  0.0919 -0.3831
   36MOL   C54627216   3.100   3.913   7.461 -0.0417 -0.7432  0.1119
   36MOL   C54727217   3.182   4.020   7.422 -0.3931 -0.0960  0.2884
   36MOL   C54827218   3.307   4.003   7.354  0.1428  0.3169 -0.3753
   36MOL   C54927219   3.400   4.108   7.314  0.5127  0.6362  0.4260
   36MOL   O55027220   3.487   4.091   7.228 -0.1962  0.6468 -0.2308
   36MOL   O55127221   3.382   4.218   7.379  0.2471  0.1689 -0.2754
   36MOL   C55227222   3.339   3.868   7.326 -0.6595 -0.5723 -0.2295
   36MOL   C55327223   3.257   3.761   7.351 -0.1876 -0.5281  0.0792
   36MOL   H55427224   3.051   3.464   7.764  0.6289  0.5857 -0.4822
   36MOL   H55527225   3.075   3.628   7.782 -1.6255  0.2330 -2.2411
   36MOL   H55627226   2.954   3.598   8.019  0.6317  1.6423 -1.2115
   36MOL   H55727227   3.092   3.490   7.993  1.1179  0.7631 -1.9766
   36MOL   H55827228   2.941   3.305   7.938  1.7180  1.3021 -1.7275
   36MOL   H55927229   2.828   3.288   0.117 -0.6639 -0.7426  0.1663
   36MOL   H56027230   2.868   3.460   0.161  0.3846  1.0440 -1.2955
   36MOL   H56127231   2.714   3.503   7.999  2.9409  2.4875 -0.7539
   36MOL   H56227232   2.693   3.341   7.942  0.1483 -0.2472 -0.0664
   36MOL   H56327233   2.801   3.372   7.748  0.7657 -0.5540  2.7438
   36MOL   H56427234   2.661   3.487   7.744 -0.0804 -0.4775 -0.3337
   36MOL   H56527235   2.822   3.673   7.797 -0.1368  0.2505 -0.2041
   36MOL   H56627236   2.749   3.610   7.563 -1.0507 -3.3093 -0.0380
   36MOL   H56727237   2.882   3.498   7.551 -0.6295  0.6864 -1.7898
   36MOL   H56827238   3.007   3.921   7.517 -0.1183 -2.5710  0.2913
   36MOL   H56927239   3.156   4.123   7.445  0.3838  0.2631 -0.3873
   36MOL   H57027240   3.433   3.835   7.285  1.8240  2.5410  2.6977
   36MOL   H57127241   3.286   3.661   7.322  0.3883  0.0818 -1.5439
   36MOL   C57227242   3.246   4.594   7.181  0.2461  0.0821 -0.4876
   36MOL   C57327243   3.326   4.470   7.194  0.4097  0.2755  0.2049
   36MOL   C57427244   3.392   4.452   7.330 -0.4227 -0.0560 -0.2788
   36MOL   C57527245   3.472   4.323   7.359  0.7154  0.4025 -0.6348
   36MOL   C57627246   3.488   4.573   7.346  0.6484  0.4410 -0.1609
   36MOL   C57727247   3.411   4.709   7.328  0.4986  0.0550 -0.1459
   36MOL   C57827248   3.333   4.716   7.190 -0.1940 -0.2338  0.0048
   36MOL   C57927249   3.256   4.844   7.169 -0.3034 -0.4904  0.0872
   36MOL   O58027250   3.231   4.871   7.035  0.0935 -0.2516  0.2798
   36MOL   C58127251   3.263   4.994   6.987  0.6629  0.1711 -0.0758
   36MOL   O58227252   3.305   5.084   7.055  0.5825  0.2913  0.1221
   36MOL   C58327253   3.234   5.007   6.847 -0.0264  0.1088  0.4099
   36MOL   C58427254   3.272   5.121   6.778 -0.1637 -0.2269  0.7318
   36MOL   C58527255   3.257   5.118   6.640 -0.4400  0.9629  0.3756
   36MOL   C58627256   3.196   5.012   6.570  0.2179 -0.0367  0.1035
   36MOL   C58727257   3.174   5.029   6.419 -0.5957  0.5388 -0.2847
   36MOL   O58827258   3.112   4.943   6.355  0.1279  0.6703 -0.3573
   36MOL   O58927259   3.223   5.137   6.364 -0.4706  0.0591  0.3411
   36MOL   C59027260   3.144   4.906   6.646  1.2226 -0.5566  1.1525
   36MOL   C59127261   3.160   4.904   6.779 -1.1537 -0.0058 -0.4282
   36MOL   H59227262   3.168   4.597   7.257  1.6323  1.3624  0.9080
   36MOL   H59327263   3.192   4.596   7.086  0.0722 -0.2981 -0.3973
   36MOL   H59427264   3.404   4.467   7.118  1.0032  2.8304  0.6489
   36MOL   H59527265   3.253   4.392   7.173 -0.9853  1.9468 -1.2221
   36MOL   H59627266   3.320   4.469   7.410  0.2685 -0.9110  0.5245
   36MOL   H59727267   3.534   4.334   7.448  0.6522 -1.5678 -0.3392
   36MOL   H59827268   3.541   4.300   7.278  1.8510  1.0751  0.1143
   36MOL   H59927269   3.576   4.579   7.282  0.8262 -0.7693 -0.0451
   36MOL   H60027270   3.518   4.575   7.450 -1.0235 -0.8345  0.3685
   36MOL   H60127271   3.327   4.724   7.396  0.4125 -1.4435  0.0857
   36MOL   H60227272   3.481   4.793   7.341  0.2140  0.6328 -2.2254
   36MOL   H60327273   3.401   4.710   7.105 -0.3293  2.5243 -0.3241
   36MOL   H60427274   3.323   4.919   7.211  0.2699 -1.7683  1.5161
   36MOL   H60527275   3.166   4.835   7.230  0.3345 -0.2085  1.0947
   36MOL   H60627276   3.320   5.208   6.819 -3.5320  2.0483  0.0275
   36MOL   H60727277   3.282   5.203   6.578  1.2072 -0.6787 -1.3102
   36MOL   H60827278   3.086   4.830   6.596 -1.4453  1.2149  1.4699
   36MOL   H60927279   3.125   4.820   6.837 -0.7151 -0.0064 -0.1718
   36MOL   C61027280   3.338   5.180   5.881 -0.7750  0.3801  0.6968
   36MOL   C61127281   3.238   5.216   5.985  0.5539 -0.9718 -0.0938
   36MOL   C61227282   3.279   5.152   6.123 -0.1800  0.2839  0.3807
   36MOL   C61327283   3.177   5.180   6.236  0.9306 -0.4053 -0.4072
   36MOL   C61427284   3.311   5.002   6.109  0.4221  0.9587  0.3777
   36MOL   C61527285   3.404   4.967   5.995  0.3682 -0.5199  0.0368
   36MOL   C61627286   3.354   5.026   5.860  0.3540 -0.2155  0.5478
   36MOL   C61727287   3.438   4.974   5.740  0.1384  0.6448 -0.0547
   36MOL   O61827288   3.575   5.020   5.752 -0.0026 -0.2888 -0.7326
   36MOL   C61927289   3.608   5.135   5.679 -0.8541 -0.1001  0.1338
   36MOL   O62027290   3.533   5.189   5.596 -0.0560 -0.1467 -0.0423
   36MOL   C62127291   3.742   5.181   5.713  0.3859 -0.7771 -0.0239
   36MOL   C62227292   3.825   5.105   5.794 -0.2150 -0.5550  0.2561
   36MOL   C62327293   3.948   5.159   5.850 -0.2102  0.8427  0.0896
   36MOL   C62427294   3.992   5.289   5.806  1.3636 -0.2185 -0.9926
   36MOL   C62527295   4.121   5.345   5.849 -0.6019  0.2921  0.1034
   36MOL   O62627296   4.209   5.282   5.909  0.0648  0.0737  0.0841
   36MOL   O62727297   4.134   5.472   5.812  0.1367 -0.1389 -0.6858
   36MOL   C62827298   3.915   5.361   5.712 -0.0310 -0.2238 -0.8980
   36MOL   C62927299   3.791   5.307   5.667 -0.6749 -0.0576 -0.3569
   36MOL   H63027300   3.430   5.230   5.910  0.2264 -0.5352 -0.8234
   36MOL   H63127301   3.314   5.228   5.786  1.4043  0.9963  0.4352
   36MOL   H63227302   3.140   5.179   5.955  1.0540 -0.9796 -1.7814
   36MOL   H63327303   3.236   5.325   5.986 -0.9562 -0.9873 -0.3439
   36MOL   H63427304   3.362   5.207   6.168 -0.5238  0.8780  0.3002
   36MOL   H63527305   3.083   5.130   6.211  0.4219 -0.7573  2.0426
   36MOL   H63627306   3.169   5.289   6.236  0.3219 -0.4360 -2.2822
   36MOL   H63727307   3.218   4.949   6.088  1.5060 -0.6102 -0.5632
   36MOL   H63827308   3.363   4.973   6.201  1.7302 -0.8713 -0.8894
   36MOL   H63927309   3.497   5.009   6.034  0.1087  0.1461 -0.0554
   36MOL   H64027310   3.425   4.860   5.987  2.4902 -0.0699 -0.5734
   36MOL   H64127311   3.255   4.986   5.837 -0.7972  2.3386  0.8909
   36MOL   H64227312   3.386   5.004   5.649 -1.1248  3.0601  1.4296
   36MOL   H64327313   3.448   4.865   5.745 -0.2512  0.5780 -0.6809
   36MOL   H64427314   3.791   5.012   5.838 -0.4889  0.8561  3.1630
   36MOL   H64527315   4.014   5.109   5.920  2.1305  2.3550 -0.9903
   36MOL   H64627316   3.946   5.456   5.672 -2.3874  0.6247 -0.8192
   36MOL   H64727317   3.738   5.377   5.604 -0.0295  1.2890  0.5557
   36MOL   C64827318   4.168   5.906   5.732  0.6541 -0.3602  0.8479
   36MOL   C64927319   4.198   5.755   5.715  0.5056 -0.1318  0.1240
   36MOL   C65027320   4.227   5.694   5.852 -0.3654 -0.2601  0.7324
   36MOL   C65127321   4.249   5.543   5.840 -0.2568  0.2952  0.5629
   36MOL   C65227322   4.341   5.766   5.918  0.5425 -0.2658 -0.5518
   36MOL   C65327323   4.326   5.916   5.926  0.2482  0.2027 -0.1820
   36MOL   C65427324   4.287   5.976   5.789 -0.2543  0.3918  0.3457
   36MOL   C65527325   4.281   6.129   5.801  0.4470  0.4290  0.2656
   36MOL   O65627326   4.283   6.197   5.674 -0.2501  0.4841  0.0261
   36MOL   C65727327   4.166   6.231   5.619  0.5389 -0.0359  0.3689
   36MOL   O65827328   4.052   6.190   5.659 -0.0359  0.1554  1.0448
   36MOL   C65927329   4.182   6.321   5.502 -0.7047 -0.1006 -0.0915
   36MOL   C66027330   4.062   6.380   5.454 -0.2416  0.2273  0.8613
   36MOL   C66127331   4.061   6.449   5.331 -0.3476 -0.0975 -0.1075
   36MOL   C66227332   4.183   6.464   5.263  0.0412 -0.4590  0.1431
   36MOL   C66327333   4.190   6.548   5.139 -0.5165 -0.4841 -0.2654
   36MOL   O66427334   4.270   6.533   5.047 -0.0730  0.1201  0.1998
   36MOL   O66527335   4.097   6.642   5.138  0.0775  0.1143 -0.8371
   36MOL   C66627336   4.301   6.401   5.310 -0.6656 -0.7009 -0.4881
   36MOL   C66727337   4.301   6.329   5.427 -0.0777 -0.1560 -0.4616
   36MOL   H66827338   4.078   5.927   5.789 -0.0342  0.9632 -0.7062
   36MOL   H66927339   4.150   5.941   5.631  0.6745  0.7240  1.2143
   36MOL   H67027340   4.284   5.737   5.650  2.2895 -1.7148  2.8359
   36MOL   H67127341   4.111   5.706   5.671  2.4198 -0.9309 -2.9253
   36MOL   H67227342   4.142   5.711   5.917 -2.3191 -0.9323 -1.5901
   36MOL   H67327343   4.297   5.507   5.931  0.9870 -1.0201 -0.5758
   36MOL   H67427344   4.328   5.511   5.772 -1.4633 -1.1883 -0.1864
   36MOL   H67527345   4.424   5.736   5.854  1.0333  0.4728 -0.2560
   36MOL   H67627346   4.365   5.732   6.019 -0.1799  0.0286 -0.2770
   36MOL   H67727347   4.243   5.941   5.992  0.4220 -0.5316  0.3262
   36MOL   H67827348   4.412   5.966   5.972  0.1948 -0.7985  1.0312
   36MOL   H67927349   4.365   5.948   5.718 -0.2408 -0.8830  0.8543
   36MOL   H68027350   4.367   6.163   5.858  0.3860  3.0632 -1.1044
   36MOL   H68127351   4.194   6.156   5.860 -1.0628 -2.2486 -0.6375
   36MOL   H68227352   3.967   6.355   5.500 -0.6431 -2.7590 -1.3906
   36MOL   H68327353   3.968   6.490   5.296 -0.1348  0.1906 -0.3349
   36MOL   H68427354   4.397   6.403   5.260  0.1614  0.6541  1.1057
   36MOL   H68527355   4.394   6.280   5.453 -0.1857  0.2053  0.6223
   36MOL   C68627356   3.852   6.972   5.216 -0.5644 -0.5046 -0.0585
   36MOL   C68727357   3.970   6.888   5.192 -0.0792 -0.1350 -0.4721
   36MOL   C68827358   3.955   6.806   5.061 -0.4405  0.2263 -0.1869
   36MOL   C68927359   4.071   6.717   5.024  0.0887 -0.3024 -0.0962
   36MOL   C69027360   3.823   6.723   5.062  0.3838 -0.1623  0.2510
   36MOL   C69127361   3.701   6.805   5.108  0.1798  0.4647  0.0997
   36MOL   C69227362   3.726   6.886   5.236  0.5858  0.3311  0.0271
   36MOL   C69327363   3.602   6.960   5.272  0.4003 -0.1796 -0.6930
   36MOL   O69427364   3.501   6.857   5.294  0.2357 -0.2387 -0.0695
   36MOL   C69527365   3.389   6.887   5.345  0.3823 -0.4958 -0.3278
   36MOL   O69627366   3.361   7.005   5.370  0.4367 -0.1609  0.0552
   36MOL   C69727367   3.296   6.772   5.358 -0.0552 -0.0329 -0.7641
   36MOL   C69827368   3.178   6.785   5.434 -0.3861  0.4737 -0.4559
   36MOL   C69927369   3.086   6.677   5.447 -0.0222  0.5090  0.0125
   36MOL   C70027370   3.106   6.559   5.368  0.0193 -0.3121  0.6339
   36MOL   C70127371   3.003   6.450   5.372  1.0708 -0.2437 -0.2694
   36MOL   O70227372   3.019   6.345   5.320 -0.1885  0.4021 -0.1728
   36MOL   O70327373   2.888   6.482   5.433 -0.0798  0.7718 -0.2761
   36MOL   C70427374   3.227   6.547   5.296 -0.5665 -0.5073  0.2045
   36MOL   C70527375   3.325   6.650   5.299  0.7089  0.6406 -0.0519
   36MOL   H70627376   3.845   7.039   5.130 -0.5507 -2.6406 -1.7690
   36MOL   H70727377   3.865   7.033   5.305  0.3453 -1.3265  0.3784
   36MOL   H70827378   3.982   6.820   5.276 -2.3198  0.4697  0.3736
   36MOL   H70927379   4.061   6.945   5.173  1.2059 -1.8784  0.2113
   36MOL   H71027380   3.943   6.882   4.985  1.3605 -1.6802 -2.4505
   36MOL   H71127381   4.153   6.789   5.018  0.6814 -1.0656 -1.4280
   36MOL   H71227382   4.050   6.676   4.925  2.0352 -1.8571  0.0879
   36MOL   H71327383   3.831   6.638   5.130  0.1992  0.0810  0.5754
   36MOL   H71427384   3.796   6.687   4.962  0.6776  0.6572 -0.1285
   36MOL   H71527385   3.661   6.876   5.036  1.1297  1.1446  0.2374
   36MOL   H71627386   3.617   6.736   5.119  1.0140 -0.7220 -0.8305
   36MOL   H71727387   3.748   6.808   5.308 -0.3614 -1.5171 -1.6301
   36MOL   H71827388   3.568   7.027   5.194 -2.5237  0.5110  1.0876
   36MOL   H71927389   3.618   7.024   5.359 -2.9021  1.0249 -0.9029
   36MOL   H72027390   3.159   6.880   5.482  0.3583  0.1899  0.4128
   36MOL   H72127391   2.993   6.693   5.499 -0.3883 -1.2404 -0.0806
   36MOL   H72227392   3.239   6.450   5.249  0.8559 -0.9560  1.4712
   36MOL   H72327393   3.412   6.641   5.236  1.5995  1.3446  1.0589
   36MOL   C72427394   2.508   6.669   5.504  0.1858  0.0573  0.0353
   36MOL   C72527395   2.615   6.586   5.430  0.2783 -0.4382 -0.3423
   36MOL   C72627396   2.667   6.476   5.525 -0.4218 -0.1266 -0.1343
   36MOL   C72727397   2.785   6.394   5.467  0.1022  0.8140  0.7754
   36MOL   C72827398   2.721   6.540   5.659  0.3429  0.6436 -0.3735
   36MOL   C72927399   2.610   6.636   5.725 -0.4222 -0.0232  0.0080
   36MOL   C73027400   2.560   6.747   5.624  0.2051  0.9522  0.4570
   36MOL   C73127401   2.453   6.829   5.687 -0.2659  0.0761 -0.2335
   36MOL   O73227402   2.431   6.954   5.622  0.0542 -0.0093 -0.6020
   36MOL   C73327403   2.309   7.020   5.641  0.3387 -0.0041 -0.2030
   36MOL   O73427404   2.212   6.968   5.701 -0.5506  0.0301  0.2191
   36MOL   C73527405   2.307   7.168   5.591 -0.3203  0.3099 -0.8404
   36MOL   C73627406   2.417   7.254   5.605  0.3644  0.5056  0.1514
   36MOL   C73727407   2.409   7.385   5.567  0.1899  0.4609  0.3606
   36MOL   C73827408   2.290   7.436   5.509  0.5687  0.3900  0.1785
   36MOL   C73927409   2.274   7.585   5.467 -0.7443  0.1789  0.2504
   36MOL   O74027410   2.370   7.655   5.464 -0.1682  0.0287 -0.2005
   36MOL   O74127411   2.149   7.625   5.428  0.3587  0.1808 -0.3301
   36MOL   C74227412   2.179   7.348   5.498 -0.6181  0.3171 -0.1183
   36MOL   C74327413   2.191   7.214   5.535  0.1198 -0.3890 -0.0403
   36MOL   H74427414   2.427   6.610   5.548  0.7661  0.6042  1.9128
   36MOL   H74527415   2.451   6.733   5.436 -0.6043 -0.3922  0.2679
   36MOL   H74627416   2.690   6.656   5.391 -0.7525 -0.0995 -1.7515
   36MOL   H74727417   2.564   6.543   5.344 -0.7693  2.0739 -1.0256
   36MOL   H74827418   2.587   6.402   5.536 -0.8823  0.5567  1.2712
   36MOL   H74927419   2.750   6.342   5.378 -0.8441 -1.7546  2.5939
   36MOL   H75027420   2.820   6.328   5.546  0.3200  0.4407  0.3683
   36MOL   H75127421   2.804   6.608   5.646 -0.1588  1.0659 -1.5036
   36MOL   H75227422   2.751   6.465   5.732 -0.5386 -0.8727 -1.5341
   36MOL   H75327423   2.525   6.574   5.755  0.7589 -0.4328  2.6449
   36MOL   H75427424   2.645   6.679   5.819  2.5617  0.1801 -1.1524
   36MOL   H75527425   2.648   6.801   5.590  0.1572  1.3139  0.9056
   36MOL   H75627426   2.477   6.854   5.790 -0.7530 -2.5112  0.5409
   36MOL   H75727427   2.359   6.775   5.684  0.3288 -0.9102 -2.0609
   36MOL   H75827428   2.507   7.218   5.652 -0.3121  0.1527  1.1837
   36MOL   H75927429   2.489   7.452   5.596  1.8035 -1.0342 -0.5245
   36MOL   H76027430   2.086   7.375   5.451 -1.0956 -1.9631 -0.5499
   36MOL   H76127431   2.102   7.152   5.537  1.7091 -2.7621  0.2392
   36MOL   H76227432   2.149   7.714   5.396 -1.0216  0.1759 -0.3678
   37MOL     C127433   5.199   2.466   5.943 -0.1178  1.0446  0.4479
   37MOL     C227434   5.339   2.528   5.929  0.4641  0.2147 -0.7151
   37MOL     C327435   5.398   2.594   6.059  0.0092 -0.9223  0.3355
   37MOL     C427436   5.536   2.656   6.027 -0.2787 -0.4142 -0.7346
   37MOL     C527437   5.300   2.698   6.100  0.2609  0.4162 -1.0462
   37MOL     C627438   5.159   2.644   6.123  0.1820  0.3115 -0.2376
   37MOL     C727439   5.096   2.558   6.007 -0.5418  0.0033 -0.0748
   37MOL     C827440   4.973   2.483   6.042  0.6381  0.1481  0.0241
   37MOL     O927441   4.862   2.567   6.059  0.0996 -0.0237  0.3291
   37MOL    C1027442   4.791   2.632   5.962 -0.2992  0.2430 -0.3427
   37MOL    O1127443   4.819   2.636   5.840 -0.7708 -0.1660 -0.4250
   37MOL    C1227444   4.677   2.701   6.026  0.7944 -0.2557 -0.1437
   37MOL    C1327445   4.695   2.760   6.150 -0.3007  0.0846  0.8333
   37MOL    C1427446   4.586   2.813   6.226 -0.1461  0.1449 -0.0403
   37MOL    C1527447   4.456   2.806   6.174  0.5510 -0.1017  1.1689
   37MOL    C1627448   4.343   2.848   6.251 -0.5151  0.3329  0.1349
   37MOL    O1727449   4.235   2.852   6.200  0.9457 -0.1434 -0.3431
   37MOL    O1827450   4.373   2.862   6.383  0.0077  0.2295  0.3203
   37MOL    C1927451   4.438   2.745   6.044  0.7620 -0.2954 -0.0195
   37MOL    C2027452   4.546   2.693   5.974 -0.5528  0.5692 -0.1842
   37MOL    H2127453   5.200   2.371   5.996 -0.0294 -0.4038 -2.0617
   37MOL    H2227454   5.163   2.438   5.844  1.8317 -0.3769  0.1003
   37MOL    H2327455   5.338   2.605   5.852  1.4598  1.7444  0.7639
   37MOL    H2427456   5.394   2.446   5.882 -0.0878  0.7232 -2.2801
   37MOL    H2527457   5.410   2.528   6.145  1.8899 -1.1727 -0.0898
   37MOL    H2627458   5.529   2.698   5.927  0.2455  0.4438 -0.4152
   37MOL    H2727459   5.617   2.585   6.010  0.0887 -0.5388  1.3570
   37MOL    H2827460   5.300   2.784   6.032  0.9102  1.0604 -0.2523
   37MOL    H2927461   5.340   2.736   6.194  0.5749 -2.7050  0.1424
   37MOL    H3027462   5.159   2.581   6.213 -1.8995 -1.1329 -1.2224
   37MOL    H3127463   5.096   2.722   6.164 -0.8251 -0.0997 -0.9712
   37MOL    H3227464   5.074   2.631   5.929  2.1222  0.0542 -0.8051
   37MOL    H3327465   4.987   2.427   6.134  0.1740  1.3897  0.8557
   37MOL    H3427466   4.945   2.406   5.970  0.7615 -0.3536  0.5075
   37MOL    H3527467   4.794   2.778   6.189 -0.0445 -0.0391  0.2449
   37MOL    H3627468   4.603   2.844   6.328 -3.1703  0.6630  0.3579
   37MOL    H3727469   4.336   2.733   6.012  0.2395  1.7395  0.7843
   37MOL    H3827470   4.533   2.662   5.872  1.1618 -0.0890 -0.2289
   37MOL    H3927471   5.574   2.732   6.096 -1.0646 -0.7820  0.1071
   37MOL    C4027472   4.288   3.268   6.560  0.2373  0.0355  0.1884
   37MOL    C4127473   4.276   3.145   6.473  0.7974  0.3968 -0.4664
   37MOL    C4227474   4.282   3.020   6.559 -0.7315 -0.3006  0.1818
   37MOL    C4327475   4.264   2.882   6.478 -0.3854  0.5310 -0.2930
   37MOL    C4427476   4.407   3.013   6.652  0.0619 -0.6092  0.2882
   37MOL    C4527477   4.412   3.137   6.727 -0.3038 -0.3086  0.1925
   37MOL    C4627478   4.406   3.265   6.642  0.2003 -0.6848  0.6110
   37MOL    C4727479   4.423   3.388   6.733  0.5229  0.8816  0.0477
   37MOL    O4827480   4.468   3.500   6.655 -0.5086  0.5585 -0.2867
   37MOL    C4927481   4.382   3.594   6.627 -0.3156  0.7633  0.0967
   37MOL    O5027482   4.261   3.590   6.653 -0.7301 -0.3196 -0.1078
   37MOL    C5127483   4.445   3.698   6.547  0.7403 -0.5301 -0.4889
   37MOL    C5227484   4.359   3.780   6.465  0.0368 -0.2279 -0.2683
   37MOL    C5327485   4.419   3.872   6.380 -0.3753 -0.4179  1.1376
   37MOL    C5427486   4.564   3.886   6.379 -0.1629  0.2927 -0.5141
   37MOL    C5527487   4.631   3.971   6.284  0.0889  0.0913 -1.3921
   37MOL    O5627488   4.754   3.972   6.266 -0.0934 -0.5229  0.4458
   37MOL    O5727489   4.555   4.042   6.212 -0.0052  0.0698 -0.3717
   37MOL    C5827490   4.647   3.805   6.464  0.0424  0.4587  0.0336
   37MOL    C5927491   4.587   3.709   6.540  0.2013 -0.4912  0.1355
   37MOL    H6027492   4.206   3.280   6.631 -0.1490 -1.9025  0.0974
   37MOL    H6127493   4.301   3.353   6.492  3.7330 -0.9702 -0.4994
   37MOL    H6227494   4.347   3.136   6.390 -0.7339  0.3333 -1.7985
   37MOL    H6327495   4.179   3.137   6.424 -0.2850 -0.6935  1.8217
   37MOL    H6427496   4.202   3.027   6.632  0.1367  0.4293  1.0897
   37MOL    H6527497   4.167   2.875   6.428  0.5093 -1.0564 -1.8358
   37MOL    H6627498   4.261   2.800   6.549  0.6879 -0.2600 -1.1584
   37MOL    H6727499   4.494   3.018   6.587 -0.2551  1.1523 -0.0394
   37MOL    H6827500   4.420   2.923   6.711  0.7531 -0.5490  0.2299
   37MOL    H6927501   4.328   3.130   6.796  0.3703 -1.3379  0.9134
   37MOL    H7027502   4.491   3.129   6.802  0.2985  2.2002 -0.1444
   37MOL    H7127503   4.487   3.273   6.569  0.1876  1.4545  0.7916
   37MOL    H7227504   4.499   3.375   6.810 -0.5131  2.9798  1.4844
   37MOL    H7327505   4.339   3.410   6.799  0.7668  2.3425 -0.1150
   37MOL    H7427506   4.252   3.771   6.475 -0.3615  1.7258 -2.2615
   37MOL    H7527507   4.352   3.933   6.320 -0.5324 -0.2810  1.4513
   37MOL    H7627508   4.754   3.817   6.466  0.1612 -0.2416  5.8799
   37MOL    H7727509   4.653   3.648   6.599  1.7770  1.6899  0.6899
   37MOL    C7827510   4.295   4.164   5.882  0.5616 -0.4220 -0.0794
   37MOL    C7927511   4.401   4.077   5.953  0.3058 -0.0470 -0.1308
   37MOL    C8027512   4.509   4.170   6.015  0.1272  0.6076  0.9078
   37MOL    C8127513   4.610   4.086   6.087 -0.2353 -0.0766 -0.3145
   37MOL    C8227514   4.569   4.275   5.919  0.3701  0.6257 -0.6135
   37MOL    C8327515   4.469   4.349   5.841  0.7872  0.1116  0.4951
   37MOL    C8427516   4.368   4.248   5.774 -0.2495 -0.3774  1.1176
   37MOL    C8527517   4.269   4.321   5.678  0.2850 -0.6005 -0.6701
   37MOL    O8627518   4.232   4.213   5.586 -0.1401 -0.1308 -0.0467
   37MOL    C8727519   4.106   4.223   5.526  0.0300 -0.0032  0.2863
   37MOL    O8827520   4.013   4.288   5.579 -0.3556  0.2436  0.2700
   37MOL    C8927521   4.087   4.128   5.414  0.1753 -0.6350  0.4710
   37MOL    C9027522   3.959   4.080   5.376 -0.5763 -0.4914  0.5618
   37MOL    C9127523   3.936   3.968   5.293 -0.0251  0.8733 -0.5844
   37MOL    C9227524   4.052   3.899   5.241  1.0666 -0.9083 -0.0918
   37MOL    C9327525   4.045   3.778   5.153 -0.8518  0.3404  0.1896
   37MOL    O9427526   4.139   3.737   5.085  0.1963  0.1828  0.1737
   37MOL    O9527527   3.929   3.718   5.164 -0.7254 -0.1651  0.1471
   37MOL    C9627528   4.187   3.950   5.271 -0.6590 -0.0716  0.4334
   37MOL    C9727529   4.199   4.059   5.359 -0.4231  0.2008 -0.1438
   37MOL    H9827530   4.255   4.233   5.957  0.3831 -2.5319  1.8138
   37MOL    H9927531   4.221   4.097   5.839 -0.0809  0.8448 -0.9641
   37MOL   H10027532   4.446   4.010   5.880 -2.3795 -0.2507 -1.6668
   37MOL   H10127533   4.354   4.009   6.024 -4.4372  1.1451 -1.8930
   37MOL   H10227534   4.467   4.241   6.087  1.0832  0.1974  1.8778
   37MOL   H10327535   4.696   4.153   6.094 -0.3633 -0.0805  1.3737
   37MOL   H10427536   4.635   4.002   6.022 -0.0021 -0.5612  0.4010
   37MOL   H10527537   4.632   4.229   5.843  2.0883 -0.8619  1.6169
   37MOL   H10627538   4.647   4.333   5.967  1.8493 -1.8735  0.1087
   37MOL   H10727539   4.414   4.410   5.913  1.8391 -0.6655  1.9840
   37MOL   H10827540   4.525   4.410   5.770 -2.8904  0.5692 -2.2012
   37MOL   H10927541   4.434   4.188   5.710 -0.6278 -0.7496  1.0721
   37MOL   H11027542   4.320   4.397   5.619 -0.6328  1.2994  0.9410
   37MOL   H11127543   4.179   4.354   5.731 -0.3452  0.4325 -2.3531
   37MOL   H11227544   3.871   4.117   5.426 -1.0020 -2.8167  1.5622
   37MOL   H11327545   3.835   3.929   5.289  1.0374 -1.8272 -2.4520
   37MOL   H11427546   4.266   3.895   5.224 -0.5431 -1.1607  1.8688
   37MOL   H11527547   4.294   4.093   5.397 -0.3514  0.1873 -0.3137
   37MOL   C11627548   3.540   3.726   5.003  0.5837  0.6319 -0.9138
   37MOL   C11727549   3.691   3.729   5.006 -0.4146 -0.1312 -1.0885
   37MOL   C11827550   3.748   3.595   5.054  0.5783  0.2202  0.3805
   37MOL   C11927551   3.899   3.612   5.067  0.3701 -0.0051  0.1466
   37MOL   C12027552   3.684   3.566   5.189  0.6501 -0.1851 -0.3794
   37MOL   C12127553   3.530   3.564   5.188  0.0721 -0.3654  0.1049
   37MOL   C12227554   3.479   3.701   5.143  0.1277 -0.5099  0.3584
   37MOL   C12327555   3.322   3.719   5.144  0.8502  0.4040 -0.1385
   37MOL   O12427556   3.266   3.700   5.017  0.2977  0.4486 -0.1024
   37MOL   C12527557   3.223   3.573   4.966 -0.5672 -0.4062  0.7230
   37MOL   O12627558   3.211   3.476   5.039 -0.1387 -0.1127  0.1390
   37MOL   C12727559   3.191   3.574   4.820  0.8224  0.5647  0.2428
   37MOL   C12827560   3.224   3.685   4.741 -0.0730 -0.5391  0.1309
   37MOL   C12927561   3.197   3.685   4.606 -0.7577 -0.1816 -0.9278
   37MOL   C13027562   3.134   3.576   4.545  0.7293  0.3481 -0.6318
   37MOL   C13127563   3.107   3.586   4.402  0.0147 -0.0665  0.3944
   37MOL   O13227564   3.154   3.680   4.332 -0.4995  0.3834  0.0798
   37MOL   O13327565   3.045   3.478   4.351 -0.2456 -0.3563  0.2911
   37MOL   C13427566   3.089   3.465   4.621 -0.5347  0.5894  1.3340
   37MOL   C13527567   3.119   3.465   4.760 -0.6721 -0.0565  0.2013
   37MOL   H13627568   3.502   3.664   4.923 -0.7496 -0.5378  0.5931
   37MOL   H13727569   3.504   3.828   4.988  0.7770  0.8655  0.1586
   37MOL   H13827570   3.721   3.805   5.079 -1.2393 -1.2895  0.4792
   37MOL   H13927571   3.726   3.760   4.908 -0.8703  0.5491 -1.0396
   37MOL   H14027572   3.726   3.519   4.978 -0.9678  0.4528  0.5796
   37MOL   H14127573   3.958   3.633   4.977 -0.8857  1.3519 -0.3803
   37MOL   H14227574   3.942   3.519   5.104 -0.9744  0.0038  1.7675
   37MOL   H14327575   3.709   3.643   5.262 -0.0267 -0.4412  0.1321
   37MOL   H14427576   3.720   3.473   5.234 -0.2072  0.6091  2.0310
   37MOL   H14527577   3.490   3.500   5.110 -0.4262  2.2544 -1.8581
   37MOL   H14627578   3.501   3.543   5.291  3.4076  1.3887  1.4793
   37MOL   H14727579   3.517   3.785   5.201 -1.3685 -0.9234  2.0084
   37MOL   H14827580   3.300   3.824   5.162  1.8740  0.7101 -0.6641
   37MOL   H14927581   3.266   3.681   5.230  0.7677  0.1731 -0.2953
   37MOL   H15027582   3.278   3.768   4.784  2.2544 -1.6563 -0.5644
   37MOL   H15127583   3.224   3.775   4.554 -0.6791 -0.4934 -1.4386
   37MOL   H15227584   3.054   3.373   4.576  2.8999 -0.0965 -0.1076
   37MOL   H15327585   3.093   3.379   4.821  2.7783 -1.1443  0.2290
   37MOL   C15427586   3.316   3.257   4.006  0.1257  0.1846  0.3586
   37MOL   C15527587   3.190   3.337   4.028 -0.1783 -0.4562 -0.8048
   37MOL   C15627588   3.175   3.370   4.176  0.5617 -0.2840  0.6841
   37MOL   C15727589   3.049   3.451   4.210  0.4713 -0.7902 -0.3903
   37MOL   C15827590   3.169   3.239   4.258  0.6870  0.0210  0.0048
   37MOL   C15927591   3.280   3.151   4.226 -0.1226 -0.0946 -0.2352
   37MOL   C16027592   3.300   3.119   4.072 -0.4480  0.2102 -0.0234
   37MOL   C16127593   3.425   3.037   4.051 -0.0622 -0.8212 -0.4094
   37MOL   O16227594   3.387   2.905   4.078  0.3478 -0.0655  0.1216
   37MOL   C16327595   3.438   2.825   4.173  0.2642 -0.6796 -0.8472
   37MOL   O16427596   3.523   2.853   4.258 -0.3654 -0.2994  0.4565
   37MOL   C16527597   3.376   2.685   4.165  0.0609 -0.6513 -0.4544
   37MOL   C16627598   3.450   2.573   4.216 -0.2475 -0.9837  0.5321
   37MOL   C16727599   3.403   2.436   4.195 -0.5198 -0.6587 -0.6600
   37MOL   C16827600   3.269   2.420   4.143 -0.4856  0.5355 -0.2229
   37MOL   C16927601   3.209   2.285   4.130  0.5737  0.1056  0.3417
   37MOL   O17027602   3.099   2.262   4.082  0.1588  0.2892  0.1767
   37MOL   O17127603   3.288   2.182   4.167  0.1634  0.1901  0.6997
   37MOL   C17227604   3.198   2.534   4.100 -1.0182  0.0643  0.0981
   37MOL   C17327605   3.252   2.663   4.110 -0.6468  0.2723  0.4290
   37MOL   H17427606   3.398   3.320   4.038  1.1296  0.3995 -2.4921
   37MOL   H17527607   3.323   3.242   3.898 -0.9564 -1.3245  0.4745
   37MOL   H17627608   3.108   3.272   3.997 -3.3407  2.4520  1.1422
   37MOL   H17727609   3.192   3.429   3.971  1.6751 -0.8519 -1.4239
   37MOL   H17827610   3.256   3.438   4.205  1.1788 -0.6365 -0.1954
   37MOL   H17927611   2.963   3.390   4.184  0.1063  0.4606 -2.1676
   37MOL   H18027612   3.035   3.537   4.144  0.5217 -1.4983 -1.3321
   37MOL   H18127613   3.079   3.185   4.228  0.7077  0.1904 -0.3631
   37MOL   H18227614   3.162   3.250   4.366  3.0233  0.8021  0.1085
   37MOL   H18327615   3.370   3.207   4.253  0.3557 -1.1085  0.2994
   37MOL   H18427616   3.273   3.063   4.290  0.3997 -0.6223 -0.8990
   37MOL   H18527617   3.217   3.069   4.024 -0.3119 -1.0743  1.0440
   37MOL   H18627618   3.518   3.068   4.099 -0.3121 -1.7733  0.7380
   37MOL   H18727619   3.451   3.041   3.946 -1.1416  2.7913 -0.5858
   37MOL   H18827620   3.550   2.587   4.254  0.1277  0.4929 -0.9430
   37MOL   H18927621   3.466   2.355   4.228  0.1932  0.1667  0.0251
   37MOL   H19027622   3.113   2.523   4.035 -0.7567 -2.4025  0.1410
   37MOL   H19127623   3.186   2.739   4.069 -0.3469 -0.4327 -1.4226
   37MOL   C19227624   3.567   1.881   4.277 -1.0162  0.8157 -0.1492
   37MOL   C19327625   3.439   1.955   4.276  0.1290 -0.4243 -0.3329
   37MOL   C19427626   3.371   1.960   4.141 -0.6818  0.0177  0.4071
   37MOL   C19527627   3.245   2.049   4.143 -0.5723 -0.1046 -0.0111
   37MOL   C19627628   3.461   2.001   4.024  0.6710  0.1599  0.5271
   37MOL   C19727629   3.582   1.910   4.035 -0.5809 -0.2721 -0.7198
   37MOL   C19827630   3.656   1.933   4.166 -0.6716  0.1905 -0.4785
   37MOL   C19927631   3.792   1.872   4.156  0.0807  0.3211  0.2726
   37MOL   O20027632   3.767   1.736   4.149  0.3967  0.7492  0.1647
   37MOL   C20127633   3.868   1.655   4.146 -0.1347  0.3107  0.1748
   37MOL   O20227634   3.987   1.683   4.152  0.4326  0.2715 -0.8315
   37MOL   C20327635   3.831   1.507   4.123  0.0976 -0.1113 -0.7837
   37MOL   C20427636   3.930   1.405   4.109  0.0333 -0.3796 -0.3077
   37MOL   C20527637   3.891   1.275   4.084 -0.3567  0.8619  0.8203
   37MOL   C20627638   3.759   1.232   4.069  0.5372 -0.0538 -0.7017
   37MOL   C20727639   3.727   1.090   4.033 -0.1544  0.3608  0.0229
   37MOL   O20827640   3.812   1.000   4.038  0.4115 -0.4456 -0.1726
   37MOL   O20927641   3.597   1.062   4.002 -0.3615 -0.4278  0.0374
   37MOL   C21027642   3.658   1.325   4.097  0.2210 -0.1241 -0.2180
   37MOL   C21127643   3.694   1.460   4.125  0.6268 -0.6615  0.8713
   37MOL   H21227644   3.546   1.775   4.273  4.0121 -0.3159 -0.0793
   37MOL   H21327645   3.618   1.909   4.369 -0.1606 -0.7064 -0.1551
   37MOL   H21427646   3.457   2.061   4.298 -0.8568  0.3461 -2.9857
   37MOL   H21527647   3.375   1.915   4.355  0.0247  1.7019  0.7019
   37MOL   H21627648   3.337   1.859   4.117  0.0938 -0.2126  0.2644
   37MOL   H21727649   3.174   2.002   4.211 -0.4583 -1.0671 -0.5554
   37MOL   H21827650   3.207   2.063   4.042 -1.7233  1.2061  0.5873
   37MOL   H21927651   3.494   2.105   4.037  1.1822  0.0411  0.1977
   37MOL   H22027652   3.415   1.999   3.926  1.5116 -0.8932  0.1515
   37MOL   H22127653   3.559   1.804   4.026  0.0790 -0.4610 -0.1959
   37MOL   H22227654   3.654   1.934   3.957  2.7153 -1.7912  1.7340
   37MOL   H22327655   3.666   2.042   4.173  0.0714  0.0761  0.3341
   37MOL   H22427656   3.848   1.898   4.245  1.0215 -1.8522  0.3444
   37MOL   H22527657   3.833   1.913   4.063  0.7610  0.1881  0.5097
   37MOL   H22627658   4.035   1.430   4.114 -0.0021  0.4494 -2.8892
   37MOL   H22727659   3.961   1.196   4.061 -0.9094  1.3111 -2.7298
   37MOL   H22827660   3.557   1.287   4.094 -0.3093  1.1922  0.3449
   37MOL   H22927661   3.618   1.536   4.137  2.3145  1.3305 -0.5543
   37MOL   C23027662   3.230   1.027   3.767  0.1936  0.5067  1.0252
   37MOL   C23127663   3.384   1.024   3.803  0.1626  0.3241 -0.3584
   37MOL   C23227664   3.408   0.934   3.928 -0.5133 -0.0092 -0.1119
   37MOL   C23327665   3.555   0.929   3.963 -0.3077 -0.5111 -0.5857
   37MOL   C23427666   3.315   0.974   4.047  0.7924 -0.3334  0.3670
   37MOL   C23527667   3.163   0.977   4.010 -0.8799  0.0013  0.3560
   37MOL   C23627668   3.141   1.069   3.884  0.3030 -0.0648 -0.4996
   37MOL   C23727669   2.993   1.082   3.845  0.4093  0.0510  0.5119
   37MOL   O23827670   2.981   1.199   3.765 -0.8583  0.0698 -0.5757
   37MOL   C23927671   2.921   1.197   3.651  0.1059 -0.3657 -0.5166
   37MOL   O24027672   2.874   1.095   3.610  0.2848  0.3889 -0.0724
   37MOL   C24127673   2.919   1.334   3.587 -0.1787 -0.5983 -0.6808
   37MOL   C24227674   2.833   1.352   3.479  0.1233 -0.1357 -0.9083
   37MOL   C24327675   2.816   1.480   3.418 -0.2992  0.0873 -0.2305
   37MOL   C24427676   2.903   1.581   3.453  0.3071 -0.9769  0.2805
   37MOL   C24527677   2.907   1.716   3.386  0.7434  0.6968  1.0996
   37MOL   O24627678   2.992   1.799   3.402 -0.2873 -0.0390 -0.6087
   37MOL   O24727679   2.796   1.735   3.311  0.2046 -0.2875 -0.1968
   37MOL   C24827680   3.004   1.562   3.548  0.5194  0.7577  0.8575
   37MOL   C24927681   3.003   1.439   3.625  0.2236 -0.1696  0.4638
   37MOL   H25027682   3.221   0.929   3.721  1.9875 -0.5365  2.8094
   37MOL   H25127683   3.230   1.091   3.678 -1.5021 -0.9167 -0.0216
   37MOL   H25227684   3.415   1.126   3.825  0.7888  0.1262 -0.3062
   37MOL   H25327685   3.437   1.001   3.711  0.0014 -2.2001  0.1367
   37MOL   H25427686   3.396   0.829   3.900  0.1305  0.1451 -0.9651
   37MOL   H25527687   3.618   0.889   3.883 -1.5586 -1.5995 -1.0336
   37MOL   H25627688   3.562   0.860   4.046 -0.3187  1.5106  1.1373
   37MOL   H25727689   3.335   1.079   4.067  2.8018 -0.2542 -1.8579
   37MOL   H25827690   3.328   0.911   4.136  1.1677 -2.2155 -0.9966
   37MOL   H25927691   3.112   0.883   3.990 -0.7700 -0.0781  0.4482
   37MOL   H26027692   3.110   1.022   4.094  0.8370  4.0645 -0.5810
   37MOL   H26127693   3.183   1.161   3.924 -0.6104 -0.8307  2.3557
   37MOL   H26227694   2.932   1.096   3.934 -0.5162  0.2373 -0.1393
   37MOL   H26327695   2.947   0.990   3.810  1.4298 -0.6918  1.1181
   37MOL   H26427696   2.769   1.271   3.446  0.0117  0.0219 -1.0762
   37MOL   H26527697   2.741   1.488   3.340 -2.3513 -2.3302  1.4316
   37MOL   H26627698   3.080   1.636   3.570  2.3343 -0.8098  0.0760
   37MOL   H26727699   3.071   1.426   3.709  0.0217 -2.4125  0.3231
   37MOL   C26827700   2.403   1.942   3.283 -1.0901 -0.3882 -0.2717
   37MOL   C26927701   2.554   1.923   3.318  0.1919  0.0482  0.0385
   37MOL   C27027702   2.635   1.879   3.191 -0.8982 -0.5067 -0.6346
   37MOL   C27127703   2.787   1.851   3.237  0.5172 -0.8615  0.3365
   37MOL   C27227704   2.568   1.750   3.134 -0.0695  0.0319  0.2096
   37MOL   C27327705   2.417   1.762   3.121  0.0765  0.4967  0.2359
   37MOL   C27427706   2.340   1.807   3.247  0.7739  0.1960  0.4516
   37MOL   C27527707   2.188   1.806   3.228  0.5210 -0.0851 -0.4057
   37MOL   O27627708   2.147   1.912   3.135  0.0279 -0.5089  0.3289
   37MOL   C27727709   2.022   1.910   3.090 -0.1095  0.2145 -0.1033
   37MOL   O27827710   1.929   1.850   3.143  0.2686  0.4910  0.2311
   37MOL   C27927711   1.996   2.008   2.977 -0.0231 -0.9557 -0.5574
   37MOL   C28027712   2.093   2.097   2.931  0.6006 -0.1358  0.0353
   37MOL   C28127713   2.071   2.182   2.822 -0.2130 -0.4900  0.1272
   37MOL   C28227714   1.947   2.186   2.753 -0.1359 -0.2711  0.0038
   37MOL   C28327715   1.929   2.284   2.637  0.3285  0.2918 -0.3815
   37MOL   O28427716   2.020   2.351   2.595 -0.5419 -0.2894  0.2107
   37MOL   O28527717   1.809   2.274   2.581  0.3803 -0.5780 -0.6303
   37MOL   C28627718   1.845   2.097   2.797 -0.5021  0.0831  0.2336
   37MOL   C28727719   1.869   2.018   2.916  0.2485  0.2006 -0.0451
   37MOL   H28827720   2.397   2.014   3.201 -1.1364 -1.1156 -0.9169
   37MOL   H28927721   2.354   1.990   3.367 -2.2656 -0.7038 -0.7734
   37MOL   H29027722   2.567   1.849   3.397  0.1336 -0.8758 -0.7973
   37MOL   H29127723   2.607   2.009   3.358  1.2604 -0.7321  0.3336
   37MOL   H29227724   2.634   1.955   3.114 -0.3168 -0.4083 -0.5510
   37MOL   H29327725   2.823   1.938   3.291  0.5123 -0.2195 -0.6685
   37MOL   H29427726   2.853   1.857   3.150 -1.9470 -1.1259 -1.6202
   37MOL   H29527727   2.584   1.674   3.211  0.3298 -0.1659 -0.0641
   37MOL   H29627728   2.630   1.718   3.050  0.8998 -0.5729  1.1207
   37MOL   H29727729   2.413   1.828   3.034  1.2232 -0.3217 -0.4582
   37MOL   H29827730   2.374   1.672   3.077 -3.1282  1.1281  1.9164
   37MOL   H29927731   2.374   1.735   3.322 -1.3477 -0.1258  1.1664
   37MOL   H30027732   2.128   1.819   3.318  0.0583 -0.2619 -0.6905
   37MOL   H30127733   2.163   1.705   3.195  2.9709 -1.0761  0.6434
   37MOL   H30227734   2.195   2.097   2.966  0.1253 -1.6442  1.4881
   37MOL   H30327735   2.141   2.256   2.786  0.7065 -0.6336  1.5711
   37MOL   H30427736   1.748   2.098   2.748 -0.0255  1.5428 -0.7144
   37MOL   H30527737   1.798   1.944   2.952 -0.2118 -0.2531 -1.8681
   37MOL   C30627738   1.554   2.691   2.446  0.5008 -0.3156 -0.3877
   37MOL   C30727739   1.599   2.546   2.416  0.0218 -0.3786 -0.8615
   37MOL   C30827740   1.699   2.490   2.524  0.1800  0.0410  0.0303
   37MOL   C30927741   1.770   2.357   2.474 -0.3098 -0.4777  0.2141
   37MOL   C31027742   1.801   2.595   2.579  0.2226  0.5230  0.0487
   37MOL   C31127743   1.734   2.731   2.610  0.1291 -0.0882 -0.2242
   37MOL   C31227744   1.670   2.792   2.483 -0.8434  0.8522 -0.1874
   37MOL   C31327745   1.612   2.938   2.509  0.0885 -0.0680 -0.3435
   37MOL   O31427746   1.724   3.016   2.554 -0.9972 -0.1782 -0.4701
   37MOL   C31527747   1.775   3.109   2.469  0.0079 -0.2514 -0.8245
   37MOL   O31627748   1.723   3.137   2.363  0.0701  0.0285  0.3260
   37MOL   C31727749   1.890   3.188   2.525 -0.6102  0.1286 -0.2301
   37MOL   C31827750   1.925   3.311   2.461 -0.1272  0.2728 -0.2994
   37MOL   C31927751   2.031   3.389   2.517  0.2327 -0.7105 -0.4229
   37MOL   C32027752   2.097   3.359   2.638 -0.7218 -0.2890  0.6196
   37MOL   C32127753   2.194   3.455   2.699 -0.1985 -0.2266  0.0517
   37MOL   O32227754   2.192   3.573   2.668  0.8211 -0.0296  0.2910
   37MOL   O32327755   2.274   3.397   2.788  0.0571  0.0614  0.6136
   37MOL   C32427756   2.061   3.235   2.700 -0.1552 -0.2213  0.5275
   37MOL   C32527757   1.959   3.153   2.647  0.2350  0.1589  1.1262
   37MOL   H32627758   1.477   2.685   2.523 -0.9428  0.3487 -1.7400
   37MOL   H32727759   1.495   2.732   2.364  0.0200 -0.8191 -0.3008
   37MOL   H32827760   1.652   2.548   2.321  1.5755 -1.4929 -0.0384
   37MOL   H32927761   1.519   2.472   2.409 -0.9190  0.5118  0.2824
   37MOL   H33027762   1.633   2.456   2.603 -0.0185 -0.2779 -0.2707
   37MOL   H33127763   1.851   2.387   2.407 -0.1936 -1.9877 -0.3463
   37MOL   H33227764   1.696   2.296   2.422 -1.8250  1.7683 -0.3706
   37MOL   H33327765   1.873   2.604   2.498 -0.7765  1.5345 -0.7525
   37MOL   H33427766   1.848   2.552   2.668  3.4235 -0.7225 -2.1629
   37MOL   H33527767   1.655   2.709   2.682 -0.5269 -2.9330 -1.7277
   37MOL   H33627768   1.818   2.785   2.653 -0.8348  0.6950  0.6973
   37MOL   H33727769   1.745   2.799   2.404  0.2100  2.1146  0.8970
   37MOL   H33827770   1.549   2.944   2.598  0.9291 -2.1075  0.4311
   37MOL   H33927771   1.570   2.982   2.419  0.8229  0.0240 -0.6412
   37MOL   H34027772   1.868   3.344   2.376 -0.1921 -1.0352 -0.7797
   37MOL   H34127773   2.046   3.482   2.466  0.1138 -1.0182 -1.0301
   37MOL   H34227774   2.107   3.197   2.790 -0.9365 -0.7161  0.7207
   37MOL   H34327775   1.936   3.059   2.695 -1.9129  0.1034  0.0314
   37MOL   C34427776   2.453   3.462   3.237  0.0092 -0.5445  0.2286
   37MOL   C34527777   2.448   3.525   3.092 -0.6153  0.5323 -0.4034
   37MOL   C34627778   2.377   3.426   2.997  0.7097 -0.3064 -0.7093
   37MOL   C34727779   2.364   3.483   2.854 -0.6725 -0.0419 -0.5814
   37MOL   C34827780   2.473   3.295   3.005  1.0094  0.0818  0.1558
   37MOL   C34927781   2.468   3.224   3.143 -0.4310  0.1688 -0.2097
   37MOL   C35027782   2.517   3.327   3.251  0.1284  0.6562 -1.0774
   37MOL   C35127783   2.501   3.265   3.396 -0.0512  0.4706 -0.0716
   37MOL   O35227784   2.565   3.354   3.484 -0.2281  0.7248  0.0359
   37MOL   C35327785   2.639   3.309   3.581  0.4245  0.1807  0.9719
   37MOL   O35427786   2.662   3.190   3.603  0.0240  0.1922 -0.2857
   37MOL   C35527787   2.718   3.420   3.652  0.6099 -0.2917 -0.1455
   37MOL   C35627788   2.704   3.561   3.617  0.1153  0.9726  0.3150
   37MOL   C35727789   2.778   3.663   3.692  0.3097 -0.2249 -0.2420
   37MOL   C35827790   2.860   3.621   3.799 -0.2289 -1.1796 -0.2439
   37MOL   C35927791   2.947   3.707   3.883  0.3508  0.2166  0.4897
   37MOL   O36027792   3.036   3.669   3.963  0.2200 -0.5794 -0.2212
   37MOL   O36127793   2.915   3.831   3.867 -0.4441 -0.1394 -0.6501
   37MOL   C36227794   2.870   3.482   3.832  0.6578 -0.2422  0.3329
   37MOL   C36327795   2.813   3.388   3.753  0.0789 -0.2103 -0.2404
   37MOL   H36427796   2.351   3.464   3.275 -1.1209 -1.9678 -2.6148
   37MOL   H36527797   2.500   3.538   3.300 -0.7272  0.3917 -0.3300
   37MOL   H36627798   2.549   3.554   3.063  0.3631 -2.7334 -0.5047
   37MOL   H36727799   2.394   3.619   3.091  1.1151  1.5496  0.0855
   37MOL   H36827800   2.276   3.418   3.038  0.9116  1.9767  0.3129
   37MOL   H36927801   2.462   3.482   2.806 -0.2546 -0.1395  0.2594
   37MOL   H37027802   2.324   3.583   2.867  0.2201  0.4594 -1.6382
   37MOL   H37127803   2.574   3.311   2.968  0.6802  1.5225 -0.1537
   37MOL   H37227804   2.432   3.215   2.944  0.7192  1.4911 -1.5583
   37MOL   H37327805   2.374   3.177   3.169 -0.5410  0.8539  0.6607
   37MOL   H37427806   2.547   3.149   3.144  0.6287  1.2149 -1.6487
   37MOL   H37527807   2.625   3.342   3.248  0.4253 -0.6630  1.7284
   37MOL   H37627808   2.549   3.167   3.404  0.9347  1.0979  2.2872
   37MOL   H37727809   2.396   3.256   3.423  0.0873 -0.2312  0.2692
   37MOL   H37827810   2.636   3.593   3.539 -0.4641 -1.1531 -0.0953
   37MOL   H37927811   2.762   3.762   3.652 -0.1014 -0.4948 -0.7555
   37MOL   H38027812   2.932   3.450   3.914 -0.3838  0.4525  1.4048
   37MOL   H38127813   2.837   3.283   3.767  0.1666  0.2478  3.6342
   37MOL   C38227814   2.996   4.189   3.610  0.2380  0.4916  0.5157
   37MOL   C38327815   3.011   4.058   3.688 -0.0212 -0.0678 -0.2207
   37MOL   C38427816   2.993   4.068   3.844  0.1895 -0.4078 -0.0115
   37MOL   C38527817   3.003   3.935   3.913  0.5005 -0.2464 -0.4644
   37MOL   C38627818   3.095   4.170   3.887  0.0601  0.5440 -0.3465
   37MOL   C38727819   3.089   4.312   3.815  0.4194 -0.2203 -0.2508
   37MOL   C38827820   3.083   4.300   3.661 -0.1306 -0.7544 -0.3759
   37MOL   C38927821   3.068   4.435   3.590  0.3794 -0.5412 -0.9970
   37MOL   O39027822   2.942   4.500   3.604 -0.0754  0.1184  0.3401
   37MOL   C39127823   2.919   4.613   3.673  0.0303  0.2083  0.3357
   37MOL   O39227824   3.003   4.647   3.760  0.1534  0.3072  0.3473
   37MOL   C39327825   2.790   4.684   3.642  0.2152  0.5682 -0.5942
   37MOL   C39427826   2.695   4.623   3.557 -0.3169  0.0945 -0.1787
   37MOL   C39527827   2.576   4.692   3.529 -0.4227 -0.5619  0.2236
   37MOL   C39627828   2.554   4.816   3.596  0.0769 -0.0306  0.4238
   37MOL   C39727829   2.429   4.891   3.565 -0.4671  0.0180  0.0413
   37MOL   O39827830   2.394   4.990   3.626 -0.2580 -0.0067 -0.4117
   37MOL   O39927831   2.366   4.845   3.457  0.5709  0.4025 -0.4027
   37MOL   C40027832   2.655   4.877   3.673  0.2630 -0.0830 -0.3996
   37MOL   C40127833   2.775   4.812   3.701  0.0950 -1.1856  0.1887
   37MOL   H40227834   2.890   4.215   3.615 -0.2665 -1.7430  2.7256
   37MOL   H40327835   3.017   4.180   3.503 -0.9669  0.6264  0.2559
   37MOL   H40427836   3.111   4.020   3.666  1.1898  2.1860  1.1560
   37MOL   H40527837   2.947   3.980   3.647 -0.9486  1.0557 -0.9149
   37MOL   H40627838   2.891   4.102   3.861  0.5670  0.4747  0.5121
   37MOL   H40727839   3.005   3.938   4.022 -0.0406  0.4815 -0.4734
   37MOL   H40827840   3.099   3.893   3.886  1.3570  0.5137  1.3195
   37MOL   H40927841   3.193   4.125   3.871 -0.0281 -0.5267  1.8663
   37MOL   H41027842   3.094   4.170   3.996  0.8558  2.8683 -0.3161
   37MOL   H41127843   2.989   4.351   3.835 -0.5450 -1.4270 -2.4936
   37MOL   H41227844   3.170   4.376   3.851  0.4397  0.4465 -1.4776
   37MOL   H41327845   3.187   4.274   3.645 -0.5702 -2.5518 -0.3804
   37MOL   H41427846   3.082   4.417   3.484 -0.9807 -1.1347 -1.0919
   37MOL   H41527847   3.156   4.497   3.600 -0.7573  0.7002  1.9203
   37MOL   H41627848   2.718   4.535   3.498  0.3034 -0.2287  0.5346
   37MOL   H41727849   2.498   4.645   3.471 -0.0710 -1.4775  0.4939
   37MOL   H41827850   2.628   4.972   3.717 -2.7941 -0.9115 -0.3130
   37MOL   H41927851   2.846   4.863   3.764  0.6973 -0.7210 -0.8492
   37MOL   C42027852   2.486   5.126   3.139 -0.3080  0.0663  0.7010
   37MOL   C42127853   2.420   5.095   3.280  0.1284  0.1519 -0.4682
   37MOL   C42227854   2.313   4.977   3.259  0.0543 -0.6623  0.4769
   37MOL   C42327855   2.262   4.922   3.391 -0.0179  0.1778  0.1639
   37MOL   C42427856   2.209   5.036   3.159  0.4995  0.6065  0.3333
   37MOL   C42527857   2.275   5.065   3.028 -0.1411 -0.3180  0.8101
   37MOL   C42627858   2.388   5.171   3.036  0.1637 -0.8113  0.1212
   37MOL   C42727859   2.448   5.185   2.892 -0.6483 -0.0227 -0.1620
   37MOL   O42827860   2.347   5.256   2.817  0.0389  0.5225 -0.0692
   37MOL   C42927861   2.378   5.288   2.694 -0.1342  0.3661 -0.3044
   37MOL   O43027862   2.487   5.281   2.644 -0.0195 -0.2150 -0.0302
   37MOL   C43127863   2.257   5.349   2.633 -0.3383  0.3665  0.0406
   37MOL   C43227864   2.273   5.420   2.509  0.0217 -0.1316  0.4116
   37MOL   C43327865   2.158   5.466   2.442  0.3012  0.3334  0.0186
   37MOL   C43427866   2.028   5.442   2.498 -1.5925  0.5870  1.1489
   37MOL   C43527867   1.900   5.461   2.419 -0.5426 -0.1398  0.4985
   37MOL   O43627868   1.785   5.471   2.463 -0.4100 -0.0425 -0.0090
   37MOL   O43727869   1.926   5.455   2.291 -0.1355 -0.1837  0.4704
   37MOL   C43827870   2.009   5.383   2.620  0.3177  0.3395  0.1156
   37MOL   C43927871   2.126   5.343   2.694 -0.3091 -0.0740 -0.2469
   37MOL   H44027872   2.543   5.040   3.103  0.8996  0.5264  1.4606
   37MOL   H44127873   2.561   5.204   3.148  0.9982 -0.6662 -2.9087
   37MOL   H44227874   2.373   5.183   3.325  2.4196  1.6279 -0.8812
   37MOL   H44327875   2.502   5.070   3.347 -1.3478  1.8332  2.0563
   37MOL   H44427876   2.353   4.889   3.208  0.6565 -0.7129  1.0310
   37MOL   H44527877   2.181   4.853   3.370  1.6942 -2.5312  2.1591
   37MOL   H44627878   2.206   4.984   3.461  0.0699  0.7406 -0.2609
   37MOL   H44727879   2.158   5.129   3.187  1.7778  2.0234 -1.9160
   37MOL   H44827880   2.139   4.954   3.145  0.1140  0.8481  0.8406
   37MOL   H44927881   2.322   4.971   2.997  0.3134  0.9290 -2.5434
   37MOL   H45027882   2.204   5.087   2.948  1.3080  0.2728 -0.3405
   37MOL   H45127883   2.359   5.267   3.079  0.6427 -0.0602 -1.2120
   37MOL   H45227884   2.474   5.086   2.856  0.0279  0.5957 -1.3739
   37MOL   H45327885   2.537   5.247   2.897  1.4124 -2.7137 -2.4497
   37MOL   H45427886   2.371   5.428   2.465 -0.5338 -0.5889 -0.9284
   37MOL   H45527887   2.175   5.526   2.354 -1.0335 -1.0393 -1.2041
   37MOL   H45627888   1.916   5.357   2.668 -1.3714  1.3619 -2.5242
   37MOL   H45727889   2.108   5.301   2.792  1.7115 -1.1182 -0.2969
   37MOL   C45827890   1.615   5.747   2.043 -0.8810 -0.3329  0.1175
   37MOL   C45927891   1.658   5.607   2.080  0.4671 -0.1450  0.2030
   37MOL   C46027892   1.788   5.605   2.156  0.5143 -0.5444  0.2816
   37MOL   C46127893   1.825   5.462   2.193  0.3647 -0.3855  0.1612
   37MOL   C46227894   1.903   5.678   2.079 -0.8190 -0.6479 -1.0871
   37MOL   C46327895   1.859   5.820   2.026 -0.1395  0.3870  0.3123
   37MOL   C46427896   1.723   5.818   1.953  0.0369 -0.2174  0.1150
   37MOL   C46527897   1.678   5.958   1.900 -0.0279  0.4950  1.1658
   37MOL   O46627898   1.651   6.050   2.002  0.4503  0.6303 -0.0606
   37MOL   C46727899   1.696   6.172   1.996 -0.1080  0.9182 -0.2636
   37MOL   O46827900   1.798   6.204   1.935  0.3586 -0.3544  0.1539
   37MOL   C46927901   1.611   6.269   2.071  0.2352  0.1802  0.4432
   37MOL   C47027902   1.505   6.231   2.150 -0.1639 -0.4598  0.6537
   37MOL   C47127903   1.446   6.324   2.245  1.4232  0.1912  0.4736
   37MOL   C47227904   1.477   6.461   2.237  0.5097 -0.5826 -0.0590
   37MOL   C47327905   1.416   6.553   2.334  0.2541  0.6337 -0.4230
   37MOL   O47427906   1.442   6.669   2.345 -0.4128  0.4278  0.2143
   37MOL   O47527907   1.324   6.494   2.409 -0.2365  0.2786  0.1901
   37MOL   C47627908   1.576   6.504   2.148  0.7288  0.4324  0.1856
   37MOL   C47727909   1.644   6.407   2.071 -0.1100  0.0322  0.4033
   37MOL   H47827910   1.600   5.812   2.130  0.7437 -1.3272  1.1470
   37MOL   H47927911   1.517   5.749   1.995 -1.7337  1.6054  1.8445
   37MOL   H48027912   1.688   5.563   1.985  2.4352 -0.8131  1.0998
   37MOL   H48127913   1.572   5.552   2.117  0.1397 -0.2720 -0.7283
   37MOL   H48227914   1.767   5.655   2.251  2.3055 -1.2505  1.0838
   37MOL   H48327915   1.855   5.410   2.101  0.1032  1.1518 -0.8177
   37MOL   H48427916   1.738   5.409   2.232 -0.9298  1.5274 -0.0897
   37MOL   H48527917   1.924   5.625   1.986  2.2682 -1.0110 -0.2384
   37MOL   H48627918   1.997   5.692   2.132 -0.6630 -1.8164 -1.0378
   37MOL   H48727919   1.865   5.895   2.105 -1.2787 -0.5068  1.2668
   37MOL   H48827920   1.937   5.850   1.955  1.4787 -1.4965  1.2148
   37MOL   H48927921   1.734   5.758   1.863  1.0515  0.8188 -0.4629
   37MOL   H49027922   1.586   5.934   1.846  0.8786  0.6289 -0.4707
   37MOL   H49127923   1.750   5.989   1.825 -1.0952 -1.6109 -0.7649
   37MOL   H49227924   1.468   6.129   2.158 -1.4982 -0.0872 -0.5806
   37MOL   H49327925   1.376   6.281   2.316 -0.0638  2.1961  0.2516
   37MOL   H49427926   1.618   6.603   2.154  0.5498  0.5532 -0.4580
   37MOL   H49527927   1.730   6.440   2.014 -1.3488 -0.6035 -1.9329
   37MOL   C49627928   1.159   6.273   2.746 -0.0250  0.1990  0.1704
   37MOL   C49727929   1.244   6.370   2.654  0.5354  0.2375  0.1024
   37MOL   C49827930   1.164   6.486   2.600 -0.0934 -0.7409  0.6379
   37MOL   C49927931   1.240   6.571   2.495  0.0471  0.0388  0.4251
   37MOL   C50027932   1.040   6.441   2.544  0.0404 -0.3728  0.2347
   37MOL   C50127933   0.957   6.363   2.652 -0.2344 -0.7781 -0.2362
   37MOL   C50227934   1.024   6.235   2.682  0.1836 -0.2314  0.2332
   37MOL   C50327935   0.937   6.146   2.772 -0.5410 -0.0833  0.4712
   37MOL   O50427936   1.000   6.026   2.798  0.0817 -0.6483 -0.6174
   37MOL   C50527937   0.977   5.921   2.715 -1.3320  0.3927 -0.2656
   37MOL   O50627938   0.930   5.934   2.601 -0.1266 -0.0197  0.0783
   37MOL   C50727939   1.023   5.793   2.765 -0.0674  0.9735  0.3998
   37MOL   C50827940   1.118   5.785   2.867 -0.1416  0.0691  0.4584
   37MOL   C50927941   1.157   5.651   2.915 -0.2158 -0.3455 -0.5193
   37MOL   C51027942   1.111   5.526   2.856  0.4506 -0.0533  0.1708
   37MOL   C51127943   1.151   5.390   2.900  0.2681 -0.4084 -0.0935
   37MOL   O51227944   1.083   5.292   2.869  0.0335  0.3920  0.3573
   37MOL   O51327945   1.257   5.394   2.979  0.0961  0.4149  0.1833
   37MOL   C51427946   1.016   5.549   2.748 -0.1884  0.7778  0.0885
   37MOL   C51527947   0.971   5.678   2.705  0.0501  0.2187  0.0513
   37MOL   H51627948   1.142   6.319   2.844 -2.5317 -0.2651 -0.0154
   37MOL   H51727949   1.222   6.187   2.769 -0.0321 -0.1303 -1.0254
   37MOL   H51827950   1.288   6.304   2.579  0.0747  1.0288 -0.8672
   37MOL   H51927951   1.326   6.412   2.711  0.3407  0.6194  0.1003
   37MOL   H52027952   1.148   6.548   2.688 -0.5726 -0.1632  0.1461
   37MOL   H52127953   1.306   6.636   2.553 -2.0877 -0.2274  3.2457
   37MOL   H52227954   1.178   6.633   2.431  0.7597  0.6026  0.2754
   37MOL   H52327955   1.059   6.370   2.464  0.9132  0.3315 -0.1913
   37MOL   H52427956   0.977   6.519   2.501  1.2306  1.7113  2.1256
   37MOL   H52527957   0.933   6.427   2.738 -1.0874 -1.8999  0.3733
   37MOL   H52627958   0.861   6.344   2.604 -0.3998 -3.5095  1.1169
   37MOL   H52727959   1.047   6.183   2.589 -0.2179 -1.4542  0.8083
   37MOL   H52827960   0.839   6.131   2.727  0.4184 -3.0893 -0.7977
   37MOL   H52927961   0.906   6.194   2.864 -0.9041 -0.9307  0.7954
   37MOL   H53027962   1.165   5.874   2.909 -1.8775  1.4360 -0.4387
   37MOL   H53127963   1.232   5.647   2.992 -1.0458  0.6508  0.3566
   37MOL   H53227964   0.971   5.470   2.689 -0.1929  0.9905 -0.1967
   37MOL   H53327965   0.892   5.679   2.633  0.2356 -0.8677 -0.1805
   37MOL   C53427966   1.577   5.027   2.901  0.5333  0.4828 -0.1437
   37MOL   C53527967   1.469   5.078   2.995 -0.0815  0.0223  0.1406
   37MOL   C53627968   1.432   5.226   2.957  0.2949 -0.3289  0.3712
   37MOL   C53727969   1.310   5.278   3.038 -0.2035  0.1726 -0.1933
   37MOL   C53827970   1.548   5.316   2.982  0.0381  0.5265 -0.5304
   37MOL   C53927971   1.667   5.272   2.897  0.4046  0.1819 -0.1390
   37MOL   C54027972   1.703   5.123   2.915  1.1472  0.7322  0.2075
   37MOL   C54127973   1.813   5.085   2.816 -0.0808 -0.1006 -0.2717
   37MOL   O54227974   1.774   5.123   2.684 -0.3698  0.1802  0.2371
   37MOL   C54327975   1.720   5.033   2.603  0.1252  0.0467  0.3825
   37MOL   O54427976   1.708   4.912   2.632 -0.1542  0.2395 -0.3287
   37MOL   C54527977   1.673   5.087   2.471 -0.0451  0.4456  0.1681
   37MOL   C54627978   1.573   5.184   2.457  0.3147  0.0380  0.0852
   37MOL   C54727979   1.523   5.222   2.332  0.3224  0.2537  0.0735
   37MOL   C54827980   1.583   5.171   2.215 -0.7074 -0.0905  0.0029
   37MOL   C54927981   1.543   5.210   2.076 -0.2016  0.4650  0.2160
   37MOL   O55027982   1.590   5.167   1.967  0.1398  0.3547  0.2134
   37MOL   O55127983   1.456   5.314   2.082  1.0958  0.0028 -0.5541
   37MOL   C55227984   1.680   5.064   2.223  0.0416 -0.3783 -0.9141
   37MOL   C55327985   1.723   5.025   2.354  0.0853  0.3773  0.2785
   37MOL   H55427986   1.540   5.042   2.800  0.5821 -0.1411 -0.2581
   37MOL   H55527987   1.582   4.918   2.906 -2.4824  0.3806  1.5357
   37MOL   H55627988   1.499   5.080   3.100  0.0710  0.4291  0.0886
   37MOL   H55727989   1.383   5.011   2.995 -0.6188  0.6935  1.6063
   37MOL   H55827990   1.404   5.223   2.852 -0.0853 -0.1438  0.4662
   37MOL   H55927991   1.340   5.301   3.140 -0.3332  0.6833 -0.2695
   37MOL   H56027992   1.230   5.204   3.037 -0.4860  0.4683 -2.5286
   37MOL   H56127993   1.583   5.316   3.085  0.0883  0.6318 -0.5473
   37MOL   H56227994   1.522   5.420   2.962 -0.6750  0.2988 -0.7903
   37MOL   H56327995   1.633   5.285   2.794  1.4541  0.0008 -0.5108
   37MOL   H56427996   1.753   5.337   2.912  1.5073 -1.3249  0.1898
   37MOL   H56527997   1.736   5.109   3.018  2.0066  1.0806 -0.0134
   37MOL   H56627998   1.833   4.979   2.829  0.1097  0.4378  4.8943
   37MOL   H56727999   1.895   5.152   2.843  0.9934 -0.7062 -1.9564
   37MOL   H56828000   1.522   5.222   2.544  0.0095 -2.3013  0.9418
   37MOL   H56928001   1.450   5.301   2.332 -0.4666 -0.4299  3.0544
   37MOL   H57028002   1.715   5.005   2.139  0.9647 -2.6132  0.9921
   37MOL   H57128003   1.787   4.939   2.362  0.8552  0.7882 -1.2717
   37MOL   C57228004   1.022   5.223   2.013  0.5151 -0.0609  0.0294
   37MOL   C57328005   1.181   5.226   2.023  0.4039 -0.3930  0.1521
   37MOL   C57428006   1.240   5.358   1.986 -0.5067  0.2969  0.7114
   37MOL   C57528007   1.391   5.359   1.968  0.0620 -0.3357  0.1206
   37MOL   C57628008   1.180   5.405   1.845  1.0778 -0.3474  0.7969
   37MOL   C57728009   1.028   5.420   1.855 -0.8591 -0.1232 -0.3357
   37MOL   C57828010   0.970   5.280   1.882 -0.0888 -0.0390 -0.4878
   37MOL   C57928011   0.813   5.306   1.896 -0.6028 -0.1644 -0.1400
   37MOL   O58028012   0.752   5.313   1.765 -0.6214 -0.3868  0.2497
   37MOL   C58128013   0.691   5.429   1.734  0.7929  0.5411 -0.6474
   37MOL   O58228014   0.711   5.536   1.795 -0.3381 -0.3048 -0.1476
   37MOL   C58328015   0.590   5.407   1.624 -0.0048  0.5307 -0.3902
   37MOL   C58428016   0.505   5.514   1.590 -0.4914  0.0844  0.2079
   37MOL   C58528017   0.390   5.496   1.504 -0.0018 -0.1327 -0.1132
   37MOL   C58628018   0.372   5.372   1.438  0.1997 -0.1348 -0.1829
   37MOL   C58728019   0.251   5.346   1.359 -0.3764 -0.0833  0.8604
   37MOL   O58828020   0.145   5.417   1.365  0.0685  0.5835 -0.6424
   37MOL   O58928021   0.268   5.241   1.276 -1.1270 -0.2244 -0.2007
   37MOL   C59028022   0.464   5.267   1.464  0.7231 -0.6591 -1.3941
   37MOL   C59128023   0.568   5.285   1.558 -0.1171 -0.5742 -0.4467
   37MOL   H59228024   0.984   5.286   2.094 -0.9057  1.9174 -2.1002
   37MOL   H59328025   0.987   5.122   2.033  3.1819 -0.5732  2.3863
   37MOL   H59428026   1.216   5.154   1.948  1.7320  1.6018 -1.1882
   37MOL   H59528027   1.215   5.180   2.116 -1.6462  1.0736  1.6777
   37MOL   H59628028   1.211   5.428   2.063 -2.2950  1.3875 -0.9261
   37MOL   H59728029   1.423   5.463   1.955 -0.1959 -0.1527  0.9243
   37MOL   H59828030   1.431   5.308   1.880  1.9145 -0.1383  0.8167
   37MOL   H59928031   1.204   5.337   1.763  0.6858  0.0321  0.3635
   37MOL   H60028032   1.227   5.502   1.824  2.0877 -1.2942 -1.5456
   37MOL   H60128033   1.007   5.481   1.943  1.6252  1.9637 -1.1196
   37MOL   H60228034   0.998   5.465   1.761  0.9447 -0.5868 -1.1640
   37MOL   H60328035   0.978   5.209   1.800  0.4411 -0.2532 -0.2480
   37MOL   H60428036   0.789   5.392   1.959 -2.4334 -0.7885  0.0361
   37MOL   H60528037   0.769   5.221   1.947  0.6449 -1.3882 -1.0892
   37MOL   H60628038   0.527   5.609   1.638 -0.4777 -0.1322  0.6351
   37MOL   H60728039   0.324   5.580   1.487 -1.4206 -0.9820  1.1104
   37MOL   H60828040   0.456   5.174   1.411  0.1971 -1.6000  0.3199
   37MOL   H60928041   0.632   5.203   1.587 -0.9616 -0.7092  1.1018
   37MOL   C61028042   0.309   4.833   1.099 -0.0244 -0.0278  0.3079
   37MOL   C61128043   0.271   4.958   1.187 -0.3897 -0.5585  0.2394
   37MOL   C61228044   0.202   5.069   1.100  0.3122  0.4649  0.4917
   37MOL   C61328045   0.164   5.192   1.187  0.4052 -0.4181 -0.2018
   37MOL   C61428046   0.294   5.111   0.982  0.2728 -0.8037 -0.2511
   37MOL   C61528047   0.330   4.986   0.901 -0.2855  0.7086 -0.2188
   37MOL   C61628048   0.403   4.881   0.985 -0.8579 -0.3045  0.4496
   37MOL   C61728049   0.461   4.764   0.910  0.7157  0.4711  0.5405
   37MOL   O61828050   0.554   4.695   0.992 -0.3713 -0.3473  0.2487
   37MOL   C61928051   0.631   4.605   0.933 -0.8375  0.0554  0.1036
   37MOL   O62028052   0.625   4.579   0.812  0.1838 -0.0354 -0.0841
   37MOL   C62128053   0.721   4.530   1.026  0.4257 -0.0845  1.0778
   37MOL   C62228054   0.818   4.442   0.976 -0.1595  0.7747  0.1801
   37MOL   C62328055   0.894   4.357   1.061  0.6025 -0.3349  0.2538
   37MOL   C62428056   0.858   4.353   1.197 -0.0924  0.1667  0.4993
   37MOL   C62528057   0.921   4.257   1.285 -0.0962 -0.0485 -1.1560
   37MOL   O62628058   0.909   4.259   1.408  0.1695  0.3220  0.0522
   37MOL   O62728059   0.994   4.169   1.222 -0.0696 -0.3458  0.2057
   37MOL   C62828060   0.750   4.427   1.245 -0.1154 -0.2518  0.1031
   37MOL   C62928061   0.687   4.522   1.161  0.1461  0.3193 -0.9566
   37MOL   H63028062   0.232   4.789   1.036  1.7071 -0.6241 -1.4523
   37MOL   H63128063   0.352   4.754   1.160 -1.4938 -1.3882 -0.3687
   37MOL   H63228064   0.352   5.007   1.241 -1.3953  1.3013  0.1296
   37MOL   H63328065   0.210   4.936   1.275 -2.1927  2.3787 -0.1740
   37MOL   H63428066   0.107   5.039   1.055  1.3245  1.1171 -2.1523
   37MOL   H63528067   0.077   5.170   1.249 -0.2888  1.4550 -0.4732
   37MOL   H63628068   0.125   5.275   1.128  4.0508  1.2637 -0.3765
   37MOL   H63728069   0.385   5.160   1.018 -0.2823  1.2652 -1.5715
   37MOL   H63828070   0.242   5.182   0.918  0.2792 -2.0584 -1.6527
   37MOL   H63928071   0.240   4.938   0.862  1.0254 -0.3627 -1.9731
   37MOL   H64028072   0.388   5.009   0.812  0.3011 -1.8604 -0.5420
   37MOL   H64128073   0.492   4.928   1.028 -0.0848 -1.0044 -0.3531
   37MOL   H64228074   0.520   4.801   0.826 -0.3028  0.8279 -0.0253
   37MOL   H64328075   0.385   4.694   0.876  0.8698  1.3441 -1.6527
   37MOL   H64428076   0.847   4.443   0.872  2.1426  0.1121  0.8000
   37MOL   H64528077   0.969   4.302   1.006  1.5117  1.3006 -0.1785
   37MOL   H64628078   0.721   4.416   1.348 -2.4467  3.1768 -0.1012
   37MOL   H64728079   0.601   4.568   1.206 -0.0997 -0.2114 -0.8803
   37MOL   C64828080   1.336   3.812   1.181  1.1203  0.4439 -0.1844
   37MOL   C64928081   1.221   3.868   1.264  0.1471  0.3692  0.3837
   37MOL   C65028082   1.173   4.002   1.219  0.1452 -0.0021 -0.0678
   37MOL   C65128083   1.056   4.059   1.300 -0.2677  0.4232 -0.2745
   37MOL   C65228084   1.287   4.107   1.190 -0.4034 -0.5629  0.1625
   37MOL   C65328085   1.408   4.038   1.124 -0.2471  0.2352 -0.1152
   37MOL   C65428086   1.456   3.907   1.181 -0.0866  0.0833  0.5385
   37MOL   C65528087   1.582   3.863   1.112  0.4703 -0.4597 -0.3509
   37MOL   O65628088   1.567   3.846   0.969  0.0721 -0.2203  0.3451
   37MOL   C65728089   1.578   3.725   0.919  0.3869 -0.6351 -0.3415
   37MOL   O65828090   1.633   3.628   0.976  0.4350  0.6304  0.0522
   37MOL   C65928091   1.504   3.725   0.790  0.5090  0.2048  0.3446
   37MOL   C66028092   1.439   3.845   0.740 -0.5827  0.4151  0.2182
   37MOL   C66128093   1.385   3.854   0.608 -0.4687 -0.3904 -0.4686
   37MOL   C66228094   1.376   3.735   0.534  0.2950 -0.4125  0.0986
   37MOL   C66328095   1.320   3.748   0.406 -0.8033 -0.0200  0.2385
   37MOL   O66428096   1.279   3.644   0.349  0.0074  0.0696 -0.4680
   37MOL   O66528097   1.311   3.874   0.361 -0.8490 -0.1249  0.0901
   37MOL   C66628098   1.426   3.612   0.591  0.5544 -0.2566 -0.1080
   37MOL   C66728099   1.487   3.606   0.718  0.2952  0.0992 -0.0746
   37MOL   H66828100   1.303   3.778   1.083 -2.2266  1.0846  0.6551
   37MOL   H66928101   1.379   3.722   1.225  1.1929  0.2155 -0.7125
   37MOL   H67028102   1.263   3.870   1.365 -0.0634 -1.8028  0.5404
   37MOL   H67128103   1.131   3.807   1.262  0.3487  0.0827  0.1311
   37MOL   H67228104   1.122   3.983   1.124 -1.3372  0.7635  0.5498
   37MOL   H67328105   1.099   4.102   1.391  0.9198  2.0941 -1.5949
   37MOL   H67428106   0.987   3.977   1.318  1.1003 -0.3549  1.6923
   37MOL   H67528107   1.316   4.145   1.288 -0.2359  0.0825 -0.1395
   37MOL   H67628108   1.250   4.183   1.121 -0.2846  1.0087  1.7933
   37MOL   H67728109   1.376   4.025   1.020  1.0642  0.0612 -0.5077
   37MOL   H67828110   1.498   4.098   1.115 -0.7772  0.7418 -2.4990
   37MOL   H67928111   1.497   3.920   1.281 -0.3691 -0.4076  0.7188
   37MOL   H68028112   1.626   3.775   1.160 -2.4763 -0.7220  1.9546
   37MOL   H68128113   1.659   3.940   1.118 -0.1603  0.0627  1.3759
   37MOL   H68228114   1.454   3.937   0.794  1.1491  1.5641 -2.1091
   37MOL   H68328115   1.348   3.944   0.562 -0.0530  0.0606  0.0769
   37MOL   H68428116   1.422   3.517   0.540  1.3984  0.7339 -2.0840
   37MOL   H68528117   1.537   3.516   0.749  1.9153  1.1539  0.4938
   37MOL   C68628118   1.194   4.292   0.307  0.6637  0.5403 -0.5431
   37MOL   C68728119   1.270   4.160   0.295 -0.4224 -0.0634  0.3573
   37MOL   C68828120   1.172   4.040   0.265  0.1661 -0.4937  0.2850
   37MOL   C68928121   1.233   3.900   0.250 -0.3034  0.2718  0.0636
   37MOL   C69028122   1.052   4.034   0.366 -0.8245  0.0553  0.6035
   37MOL   C69128123   0.993   4.176   0.389  0.1914 -0.0266 -0.2737
   37MOL   C69228124   1.098   4.286   0.419  0.3668  0.3571  0.0766
   37MOL   C69328125   1.041   4.415   0.459 -0.0266 -0.0463 -0.4167
   37MOL   O69428126   0.928   4.450   0.372  0.3975 -0.1969 -0.2338
   37MOL   C69528127   0.946   4.534   0.268 -0.1607  0.1473 -0.8208
   37MOL   O69628128   1.054   4.588   0.236 -0.0227  0.3177  0.2232
   37MOL   C69728129   0.818   4.548   0.196  0.2038  0.7843  0.1353
   37MOL   C69828130   0.811   4.646   0.094  0.4978 -0.3805 -0.1102
   37MOL   C69928131   0.683   4.676   0.042  0.2034 -0.4793 -0.3791
   37MOL   C70028132   0.565   4.622   0.098  0.5355 -0.5603 -0.2695
   37MOL   C70128133   0.430   4.657   0.049 -0.2019  0.2273  0.3565
   37MOL   O70228134   0.330   4.662   0.123 -0.1707 -0.1302 -0.6853
   37MOL   O70328135   0.436   4.672   7.943  0.0821 -0.0318  0.0533
   37MOL   C70428136   0.574   4.521   0.199 -0.4312  0.0714  0.2858
   37MOL   C70528137   0.704   4.484   0.245  0.1931  0.5018 -0.0833
   37MOL   H70628138   1.125   4.299   0.222  0.5409 -0.9648 -0.5724
   37MOL   H70728139   1.261   4.378   0.306  2.9023 -1.1270  0.9740
   37MOL   H70828140   1.313   4.133   0.392  1.3550 -0.0693 -0.4078
   37MOL   H70928141   1.354   4.175   0.226 -1.3025  0.1559 -0.6726
   37MOL   H71028142   1.124   4.061   0.169 -0.8458  0.6051  1.0185
   37MOL   H71128143   1.292   3.901   0.158  1.0460  0.9723  0.9298
   37MOL   H71228144   1.146   3.834   0.245 -1.7765  2.3198 -2.6349
   37MOL   H71328145   1.080   3.997   0.465 -0.9781 -2.6070 -0.3025
   37MOL   H71428146   0.965   3.972   0.343 -2.0195  2.1871 -0.7640
   37MOL   H71528147   0.915   4.200   0.317  1.0622 -0.2205 -1.2869
   37MOL   H71628148   0.927   4.168   0.476  0.0703 -0.9492 -0.4449
   37MOL   H71728149   1.157   4.249   0.503 -0.0554 -1.6792 -0.5026
   37MOL   H71828150   1.119   4.491   0.460  0.1573 -0.2329 -0.5516
   37MOL   H71928151   0.999   4.426   0.559  0.4106  0.3350 -0.2700
   37MOL   H72028152   0.901   4.690   0.053  0.4307 -0.3744 -0.2510
   37MOL   H72128153   0.687   4.742   7.988  1.2006 -0.0479 -0.0182
   37MOL   H72228154   0.489   4.478   0.250 -1.4032 -1.5644 -2.5959
   37MOL   H72328155   0.704   4.420   0.332  0.1884  0.8708  0.1943
   37MOL   C72428156   0.344   5.022   7.607  0.4820  0.0865 -0.1575
   37MOL   C72528157   0.262   4.919   7.692 -0.1952 -0.0088  0.1656
   37MOL   C72628158   0.376   4.833   7.762  0.2609 -0.0428  0.7158
   37MOL   C72728159   0.329   4.723   7.864 -0.4392 -0.2696  0.1943
   37MOL   C72828160   0.474   4.773   7.663 -0.5962 -0.2648  0.1194
   37MOL   C72928161   0.541   4.874   7.569 -0.2846 -0.3724  0.7253
   37MOL   C73028162   0.432   4.960   7.497 -1.1683 -0.1076 -0.3621
   37MOL   C73128163   0.506   5.068   7.416 -0.0993 -0.4080 -0.2037
   37MOL   O73228164   0.409   5.121   7.325 -0.2057  0.4627 -0.0152
   37MOL   C73328165   0.378   5.248   7.320 -0.1334 -0.8535 -0.6339
   37MOL   O73428166   0.428   5.331   7.396  0.2604  0.1805 -0.0918
   37MOL   C73528167   0.276   5.281   7.216 -0.6663  0.1969  0.5257
   37MOL   C73628168   0.262   5.414   7.173  0.3412 -0.1204  0.6051
   37MOL   C73728169   0.159   5.445   7.081  1.0234 -0.0045  0.1183
   37MOL   C73828170   0.065   5.354   7.044  0.6847  0.1657  0.1267
   37MOL   C73928171   7.975   5.393   6.964  0.1946 -0.2693  0.1371
   37MOL   O74028172   7.958   5.515   6.944 -0.4078  0.0852  0.1355
   37MOL   O74128173   7.904   5.296   6.896 -0.1668  0.7651  0.1348
   37MOL   C74228174   0.080   5.222   7.089 -0.3618  0.0499 -0.3813
   37MOL   C74328175   0.187   5.181   7.171  0.1486  0.0389  0.3394
   37MOL   H74428176   0.404   5.088   7.671 -3.3006  1.9742  1.6146
   37MOL   H74528177   0.288   5.108   7.571  0.9752  0.4576 -0.0555
   37MOL   H74628178   0.185   4.857   7.646 -0.2754 -1.1691  1.7724
   37MOL   H74728179   0.215   4.963   7.780  1.0672 -1.0872  1.4246
   37MOL   H74828180   0.441   4.900   7.818  0.9547 -0.1754  0.0765
   37MOL   H74928181   0.274   4.642   7.816 -0.8769  0.1667 -0.0505
   37MOL   H75028182   0.264   4.780   7.931 -1.4985  0.7744 -1.6731
   37MOL   H75128183   0.427   4.698   7.600 -1.2605  1.3575 -1.3646
   37MOL   H75228184   0.556   4.727   7.718 -2.5744 -1.4693  2.1247
   37MOL   H75328185   0.607   4.934   7.632 -1.7021  0.4259  1.5079
   37MOL   H75428186   0.598   4.822   7.493 -1.0716 -1.2173  0.7066
   37MOL   H75528187   0.364   4.901   7.436  1.3973 -0.9637 -2.4594
   37MOL   H75628188   0.592   5.019   7.370  0.3830 -0.6279  0.9238
   37MOL   H75728189   0.546   5.140   7.486 -0.5198 -1.0741  0.7315
   37MOL   H75828190   0.330   5.486   7.215 -0.3736  1.3300 -0.7001
   37MOL   H75928191   0.138   5.542   7.039 -2.5498 -0.5438  0.5197
   37MOL   H76028192   0.002   5.150   7.066 -0.5287 -1.4138  4.2155
   37MOL   H76128193   0.187   5.081   7.211  0.0624 -0.5717 -1.1969
   37MOL   H76228194   7.878   5.343   6.819  1.6168  2.6501  0.6387
   38MOL     C128195   0.383   0.044   0.663 -0.1402  0.1192  0.2052
   38MOL     C228196   0.418   0.180   0.616  0.0481 -0.2021  0.5857
   38MOL     C328197   0.330   0.230   0.497 -1.1021  0.1411 -0.1935
   38MOL     C428198   0.361   0.381   0.453  0.0722  0.1379  0.2883
   38MOL     C528199   0.360   0.135   0.382 -0.3713  0.0255  0.3706
   38MOL     C628200   0.322   8.018   0.417  0.6203 -0.3450  0.4436
   38MOL     C728201   0.398   7.977   0.543  0.1732 -0.5940  0.6886
   38MOL     C828202   0.355   7.835   0.591  0.4542 -0.9318  0.1960
   38MOL     O928203   0.441   7.786   0.699 -0.1245  0.2701 -0.2769
   38MOL    C1028204   0.544   7.697   0.668  0.7648 -0.2355 -0.2660
   38MOL    O1128205   0.574   7.674   0.550  0.3485  0.3910  0.1194
   38MOL    C1228206   0.633   7.641   0.777  0.3118  0.2146 -0.0955
   38MOL    C1328207   0.765   7.598   0.751  0.9125  0.2589 -0.3730
   38MOL    C1428208   0.845   7.545   0.857 -0.2291  0.3932  0.8655
   38MOL    C1528209   0.802   7.556   0.991  0.5719  0.1675 -0.4362
   38MOL    C1628210   0.897   7.513   1.102 -0.3147 -0.0208  0.2673
   38MOL    O1728211   1.010   7.478   1.070 -0.2558  0.2974  0.0379
   38MOL    O1828212   0.854   7.529   1.224  0.3691 -0.8355  0.1954
   38MOL    C1928213   0.674   7.610   1.020  0.3695 -0.0104  0.1895
   38MOL    C2028214   0.585   7.650   0.914  0.0296 -0.1540 -0.0295
   38MOL    H2128215   0.286   0.038   0.713  0.4207 -0.8296  1.2094
   38MOL    H2228216   0.438   0.018   0.754  0.2853  0.0512 -0.0724
   38MOL    H2328217   0.526   0.191   0.606  0.1956 -1.6155  0.5219
   38MOL    H2428218   0.378   0.243   0.696  0.2041 -0.7609  1.1044
   38MOL    H2528219   0.226   0.221   0.526 -0.5453 -1.0894  1.5110
   38MOL    H2628220   0.332   0.411   0.352  1.1366  0.8770  0.1918
   38MOL    H2728221   0.465   0.409   0.467 -0.2566  0.3881  2.4089
   38MOL    H2828222   0.466   0.141   0.357  0.0549 -0.7705  1.9252
   38MOL    H2928223   0.303   0.171   0.297 -0.4312 -0.2254  0.3041
   38MOL    H3028224   0.216   8.000   0.432  0.5439 -0.5414 -0.2874
   38MOL    H3128225   0.346   7.959   0.328  1.0800  1.1761 -0.4643
   38MOL    H3228226   0.502   7.985   0.510  0.2699 -1.5384  0.7606
   38MOL    H3328227   0.370   7.770   0.504 -0.5647 -0.8842 -0.0230
   38MOL    H3428228   0.250   7.827   0.616 -0.3755  1.8667 -2.1850
   38MOL    H3528229   0.801   7.581   0.651  2.2732  1.5302 -0.1108
   38MOL    H3628230   0.946   7.510   0.840 -0.9765 -2.0117  1.2067
   38MOL    H3728231   0.654   7.615   1.126  1.1235  1.7203  0.2739
   38MOL    H3828232   0.484   7.678   0.940 -0.8389 -1.9175 -1.3613
   38MOL    H3928233   0.310   0.449   0.522 -1.9266 -1.3391  0.3207
   38MOL    C4028234   0.863   7.730   1.621 -0.3886 -0.3022 -0.2089
   38MOL    C4128235   0.927   7.661   1.496 -0.1962 -0.0416 -0.3828
   38MOL    C4228236   0.865   7.526   1.466 -0.4800  0.9575  0.2575
   38MOL    C4328237   0.926   7.464   1.333  0.3418 -0.1106  0.3436
   38MOL    C4428238   0.881   7.441   1.591 -0.2488  0.5109 -0.2052
   38MOL    C4528239   0.830   7.500   1.720  0.3136  0.0679  0.1400
   38MOL    C4628240   0.879   7.643   1.750  0.1769 -0.0031  1.0103
   38MOL    C4728241   0.818   7.693   1.877  0.4854  0.0455 -0.2627
   38MOL    O4828242   0.843   7.616   1.995  0.7230  0.4441  0.3009
   38MOL    C4928243   0.774   7.639   2.106 -0.7450  0.0848 -0.7836
   38MOL    O5028244   0.706   7.739   2.116  0.1091 -0.3026  0.2755
   38MOL    C5128245   0.795   7.529   2.209 -0.3704  0.6247  0.8148
   38MOL    C5228246   0.762   7.553   2.343 -0.5376 -0.0306 -0.3223
   38MOL    C5328247   0.795   7.455   2.440  0.6831 -0.1608  0.3956
   38MOL    C5428248   0.850   7.334   2.392 -0.3346 -0.0805 -0.0170
   38MOL    C5528249   0.883   7.231   2.492  0.6805  0.5934  0.4026
   38MOL    O5628250   0.850   7.237   2.613 -0.2841 -0.4041  0.2718
   38MOL    O5728251   0.955   7.128   2.441 -0.1948  0.3419 -0.5835
   38MOL    C5828252   0.868   7.303   2.257  0.7930  0.0121  0.0937
   38MOL    C5928253   0.853   7.405   2.169 -0.0150 -0.0062 -0.7567
   38MOL    H6028254   0.757   7.737   1.598 -0.1906 -3.9228 -2.5157
   38MOL    H6128255   0.897   7.832   1.637 -2.7541  0.5870 -0.5814
   38MOL    H6228256   1.036   7.661   1.503 -0.1222 -0.9235 -1.3572
   38MOL    H6328257   0.922   7.725   1.408  0.1434 -3.2210 -2.8241
   38MOL    H6428258   0.760   7.531   1.439 -0.2426  0.2159 -0.8243
   38MOL    H6528259   0.922   7.355   1.335 -1.5961 -0.0508  0.3608
   38MOL    H6628260   1.029   7.498   1.324  0.2252  0.5723  1.5387
   38MOL    H6728261   0.984   7.410   1.607 -0.5833 -0.2537  0.4953
   38MOL    H6828262   0.823   7.354   1.563 -0.7508  0.8870 -0.3497
   38MOL    H6928263   0.721   7.496   1.721  0.3225 -0.2477 -0.3895
   38MOL    H7028264   0.869   7.439   1.802 -0.3968 -0.2799  0.2261
   38MOL    H7128265   0.986   7.633   1.769  0.4690 -1.2497 -1.1600
   38MOL    H7228266   0.711   7.713   1.866  0.7907  1.6255 -0.4109
   38MOL    H7328267   0.841   7.799   1.888 -0.4731  0.0263  2.0134
   38MOL    H7428268   0.726   7.652   2.365  1.7437  0.8960 -0.5569
   38MOL    H7528269   0.775   7.467   2.545  1.5366 -0.1767  0.5610
   38MOL    H7628270   0.895   7.208   2.213 -3.1927 -0.2171 -2.0551
   38MOL    H7728271   0.869   7.383   2.065 -0.0229 -2.4878 -0.2685
   38MOL    C7828272   1.407   6.981   2.517  0.0619  0.4833 -0.4096
   38MOL    C7928273   1.256   6.952   2.518 -0.1692  0.1995  1.0721
   38MOL    C8028274   1.168   7.077   2.538  0.1946  0.3493  0.1657
   38MOL    C8128275   1.018   7.041   2.533  0.6307  0.4730  0.5982
   38MOL    C8228276   1.209   7.144   2.667 -0.3492 -0.4977  0.9340
   38MOL    C8328277   1.357   7.183   2.665 -0.3263 -0.2105 -0.1843
   38MOL    C8428278   1.445   7.057   2.641  0.1182  0.0407  1.0235
   38MOL    C8528279   1.588   7.108   2.621  0.2952  0.2275 -0.0630
   38MOL    O8628280   1.671   7.000   2.581 -0.0598  0.6607  0.7744
   38MOL    C8728281   1.783   6.966   2.650 -0.1730  0.3723 -0.2578
   38MOL    O8828282   1.823   7.039   2.739  0.3827 -0.4063  0.0458
   38MOL    C8928283   1.842   6.835   2.616  1.3170 -0.2975 -0.1041
   38MOL    C9028284   1.957   6.786   2.674  0.6456  0.0184  0.4252
   38MOL    C9128285   2.010   6.662   2.643 -0.8437  0.1623 -0.1879
   38MOL    C9228286   1.950   6.583   2.545  0.0136 -0.3262  0.6515
   38MOL    C9328287   2.007   6.446   2.519 -1.0070 -0.6623  0.2945
   38MOL    O9428288   2.095   6.393   2.593  0.4173  0.0160 -0.4537
   38MOL    O9528289   1.956   6.384   2.410 -0.3636 -0.1597 -0.5615
   38MOL    C9628290   1.841   6.638   2.469  0.3416 -0.5834  1.1012
   38MOL    C9728291   1.781   6.762   2.509  0.6433 -0.0455 -0.2292
   38MOL    H9828292   1.432   7.037   2.427 -1.3614  1.7110 -0.0530
   38MOL    H9928293   1.462   6.887   2.515 -2.3633 -1.0019  0.0573
   38MOL   H10028294   1.234   6.877   2.594 -0.4918 -2.7955 -1.8975
   38MOL   H10128295   1.243   6.915   2.417  0.4071  2.1670  0.2531
   38MOL   H10228296   1.194   7.148   2.460 -0.7988 -0.5463 -0.9909
   38MOL   H10328297   0.964   7.036   2.627 -0.8160 -1.9421 -0.3250
   38MOL   H10428298   1.005   6.944   2.485 -0.0500  0.1620  1.4054
   38MOL   H10528299   1.197   7.085   2.757  0.4659  1.8362  2.6179
   38MOL   H10628300   1.138   7.227   2.674  0.0156 -0.1750  0.8034
   38MOL   H10728301   1.375   7.247   2.578 -1.4926 -2.2199 -1.9333
   38MOL   H10828302   1.388   7.247   2.748  0.1712  1.9832 -1.9788
   38MOL   H10928303   1.438   6.988   2.725  0.7218 -1.2770  0.0077
   38MOL   H11028304   1.624   7.157   2.711  0.8911 -2.0616  0.9836
   38MOL   H11128305   1.610   7.187   2.549  0.3745 -0.5659 -0.9183
   38MOL   H11228306   2.000   6.858   2.742 -1.7017  0.2414  1.7328
   38MOL   H11328307   2.098   6.621   2.691  1.9497  2.0578 -3.5016
   38MOL   H11428308   1.797   6.582   2.388 -0.0911  0.6401  0.4740
   38MOL   H11528309   1.693   6.790   2.452  0.2991 -0.9495 -0.1440
   38MOL   C11628310   1.938   5.910   2.473  0.2996 -0.4867 -0.5157
   38MOL   C11728311   1.992   6.017   2.386  0.1320 -0.5713  0.4411
   38MOL   C11828312   1.931   6.152   2.433  0.1023  0.1541 -0.0942
   38MOL   C11928313   2.002   6.264   2.360  0.2206  0.2197  0.2422
   38MOL   C12028314   1.780   6.147   2.400  0.1337  0.7610 -0.1787
   38MOL   C12128315   1.721   6.033   2.485 -0.2180  0.4856  0.2651
   38MOL   C12228316   1.784   5.900   2.456  0.5659 -0.2040 -0.0271
   38MOL   C12328317   1.733   5.779   2.534 -0.2799 -0.1035 -0.9872
   38MOL   O12428318   1.727   5.807   2.672 -0.0631 -0.1682 -0.0742
   38MOL   C12528319   1.653   5.731   2.748 -0.1680  0.3890  0.2395
   38MOL   O12628320   1.598   5.629   2.702 -0.0500 -0.2386 -0.1919
   38MOL   C12728321   1.621   5.781   2.885  0.4055 -0.1219 -0.2061
   38MOL   C12828322   1.689   5.895   2.933 -0.4007 -0.3113 -0.6558
   38MOL   C12928323   1.661   5.944   3.060 -0.6705  0.9330 -0.1308
   38MOL   C13028324   1.555   5.888   3.136  0.4897  0.4351 -0.3956
   38MOL   C13128325   1.505   5.961   3.258  0.3331 -0.4538  0.0795
   38MOL   O13228326   1.557   6.061   3.312 -0.1288  0.5155 -0.2322
   38MOL   O13328327   1.393   5.887   3.306 -0.3544  0.2273 -0.1227
   38MOL   C13428328   1.487   5.771   3.090 -0.9877  0.6456  0.0798
   38MOL   C13528329   1.519   5.720   2.961 -0.7612  0.5922  0.3549
   38MOL   H13628330   1.971   5.936   2.574  2.5575 -2.2036 -0.7798
   38MOL   H13728331   1.984   5.812   2.460  1.3645 -0.4744  2.6752
   38MOL   H13828332   1.954   5.999   2.285  0.7157 -1.2000  0.3343
   38MOL   H13928333   2.100   6.018   2.395  0.2523 -1.5674 -0.7301
   38MOL   H14028334   1.952   6.163   2.539 -1.0234 -0.2461  0.1807
   38MOL   H14128335   1.974   6.253   2.255 -0.2810 -0.6385  0.4502
   38MOL   H14228336   2.109   6.252   2.375  0.1597 -0.8147 -0.0816
   38MOL   H14328337   1.750   6.140   2.296  1.1025 -0.2790 -0.3911
   38MOL   H14428338   1.725   6.233   2.438 -0.0525  0.3239  0.5424
   38MOL   H14528339   1.729   6.066   2.588 -0.4215 -0.5138  0.6100
   38MOL   H14628340   1.613   6.036   2.470 -0.3149 -0.5893  0.6689
   38MOL   H14728341   1.764   5.891   2.349 -0.4795 -0.2949  0.1650
   38MOL   H14828342   1.806   5.698   2.535  0.9049  0.9489 -1.3897
   38MOL   H14928343   1.635   5.749   2.496 -0.9242  1.5311 -0.6757
   38MOL   H15028344   1.766   5.944   2.874  2.1359 -0.5200  2.3481
   38MOL   H15128345   1.705   6.038   3.091  0.2238  1.0506 -1.7109
   38MOL   H15228346   1.407   5.717   3.137  1.1098  1.1891  4.4832
   38MOL   H15328347   1.465   5.631   2.931  0.7791 -0.0436 -0.6005
   38MOL   C15428348   1.041   6.175   3.290  0.3628  0.2738 -0.1015
   38MOL   C15528349   1.181   6.129   3.333 -0.2431  0.5320  0.4425
   38MOL   C15628350   1.189   5.981   3.387 -0.4757 -0.2122 -0.2273
   38MOL   C15728351   1.336   5.936   3.424 -0.0925  0.2875  0.2951
   38MOL   C15828352   1.095   5.968   3.504 -0.1052 -0.6179  0.4494
   38MOL   C15928353   0.951   6.011   3.470 -0.6459  0.4679  0.3299
   38MOL   C16028354   0.941   6.155   3.408 -0.5072  0.6050 -0.0634
   38MOL   C16128355   0.793   6.197   3.361 -0.2454 -0.6022  0.1577
   38MOL   O16228356   0.761   6.143   3.234  0.1685  0.8253  0.4201
   38MOL   C16328357   0.680   6.206   3.147 -0.5828 -0.7197  0.2857
   38MOL   O16428358   0.641   6.323   3.151  0.2458  0.0769 -0.2318
   38MOL   C16528359   0.644   6.110   3.039  0.2647 -0.2600  0.5311
   38MOL   C16628360   0.694   5.979   3.028 -0.0581  0.2705  0.6918
   38MOL   C16728361   0.681   5.900   2.909  0.0935  0.0508  0.0038
   38MOL   C16828362   0.615   5.952   2.796 -0.5643 -0.0360  0.0743
   38MOL   C16928363   0.618   5.878   2.661 -0.1423  0.1365 -0.8299
   38MOL   O17028364   0.650   5.758   2.657 -0.3158 -0.0885  0.6893
   38MOL   O17128365   0.615   5.955   2.562 -0.1401 -0.6806 -0.4201
   38MOL   C17228366   0.562   6.077   2.807 -0.3081  0.2143  0.3569
   38MOL   C17328367   0.577   6.158   2.921  0.5852  0.3043 -0.1800
   38MOL   H17428368   1.012   6.120   3.201  1.8362  1.2055 -1.1808
   38MOL   H17528369   1.026   6.279   3.260 -1.9867 -0.3053 -1.0385
   38MOL   H17628370   1.218   6.193   3.413 -1.2720 -0.1843  1.5166
   38MOL   H17728371   1.253   6.137   3.252 -0.5760  1.2707  0.2163
   38MOL   H17828372   1.160   5.915   3.305  0.6056 -0.3900 -0.4825
   38MOL   H17928373   1.348   5.860   3.501 -1.0444 -2.0758 -1.8339
   38MOL   H18028374   1.382   6.027   3.464  0.8453  0.5244 -1.2572
   38MOL   H18128375   1.134   6.027   3.586 -0.8052 -0.2099  0.4905
   38MOL   H18228376   1.088   5.866   3.542  2.3524 -2.1375 -2.8367
   38MOL   H18328377   0.923   5.930   3.403 -0.6442  0.0630  0.8158
   38MOL   H18428378   0.893   6.009   3.562 -0.5244 -0.9787  0.3720
   38MOL   H18528379   0.970   6.220   3.490 -0.7951  2.1508 -1.1598
   38MOL   H18628380   0.783   6.305   3.355  2.2313 -0.3636 -0.2661
   38MOL   H18728381   0.721   6.162   3.435 -2.0879 -1.2262 -1.9076
   38MOL   H18828382   0.754   5.940   3.108  0.1348 -0.8412  0.0071
   38MOL   H18928383   0.731   5.806   2.895  0.7441  0.5666 -1.2122
   38MOL   H19028384   0.508   6.107   2.718  0.6421 -0.3705 -0.4229
   38MOL   H19128385   0.534   6.256   2.918 -4.0381 -1.5748  0.7930
   38MOL   C19228386   0.717   6.104   2.091 -0.1623  0.2142 -0.3083
   38MOL   C19328387   0.689   5.989   2.192 -0.3010 -0.1927 -0.0021
   38MOL   C19428388   0.644   6.039   2.327 -0.1646 -0.0967 -0.2722
   38MOL   C19528389   0.636   5.916   2.427  0.3219  0.7441 -0.2226
   38MOL   C19628390   0.738   6.146   2.388  0.7944  0.0310  0.3786
   38MOL   C19728391   0.774   6.261   2.291 -0.0964  0.3714 -0.8474
   38MOL   C19828392   0.807   6.222   2.144 -0.1305 -0.5219  0.1372
   38MOL   C19928393   0.804   6.346   2.057  0.2792 -0.1848 -0.0602
   38MOL   O20028394   0.888   6.451   2.091  0.4481  0.0163  0.3728
   38MOL   C20128395   0.841   6.570   2.142 -0.4040 -0.6805  0.1618
   38MOL   O20228396   0.732   6.586   2.182  0.3349 -0.6411 -0.7591
   38MOL   C20328397   0.941   6.674   2.144 -0.1251  0.2434 -0.0318
   38MOL   C20428398   0.892   6.799   2.187 -1.2881 -0.0064 -0.2991
   38MOL   C20528399   0.980   6.910   2.186  0.0803 -0.0232 -0.1362
   38MOL   C20628400   1.120   6.897   2.153 -0.5780  0.2780 -0.9639
   38MOL   C20728401   1.212   7.018   2.155  0.6613  0.3127 -0.3523
   38MOL   O20828402   1.172   7.130   2.185 -0.4044 -0.3251  0.0615
   38MOL   O20928403   1.335   6.992   2.102  0.0634 -0.0064 -0.0876
   38MOL   C21028404   1.166   6.771   2.112 -0.6309  0.1200 -0.4944
   38MOL   C21128405   1.077   6.659   2.113 -0.2984 -0.3029 -0.7429
   38MOL   H21228406   0.621   6.152   2.070 -0.6695  0.1838  1.8301
   38MOL   H21328407   0.752   6.073   1.993 -0.8545  1.6600 -1.0384
   38MOL   H21428408   0.792   5.953   2.202 -0.2965 -0.4413 -0.9245
   38MOL   H21528409   0.627   5.907   2.156 -0.6688  0.3766 -0.6816
   38MOL   H21628410   0.542   6.077   2.334 -0.5216 -1.1432  0.4158
   38MOL   H21728411   0.730   5.861   2.422 -0.5160 -0.8730  1.3197
   38MOL   H21828412   0.555   5.848   2.399  0.6910  0.5844 -0.9125
   38MOL   H21928413   0.829   6.094   2.416 -0.1517 -1.6041  0.4826
   38MOL   H22028414   0.697   6.187   2.480 -4.1469  0.6963 -1.9601
   38MOL   H22128415   0.685   6.323   2.289 -0.0897  0.4012 -0.1130
   38MOL   H22228416   0.865   6.314   2.320 -0.5973  1.2676 -0.9162
   38MOL   H22328417   0.909   6.181   2.150  1.0867  2.6959  3.3108
   38MOL   H22428418   0.703   6.375   2.028  0.6367 -0.2749 -1.4148
   38MOL   H22528419   0.856   6.315   1.967  3.3375 -0.2114  1.6366
   38MOL   H22628420   0.793   6.820   2.224 -0.7857 -0.6323  1.5016
   38MOL   H22728421   0.938   7.003   2.223 -0.3043 -0.6116  0.9449
   38MOL   H22828422   1.268   6.760   2.080 -0.1608  1.8513  0.3518
   38MOL   H22928423   1.127   6.569   2.081  2.7760  0.3056  2.1516
   38MOL   C23028424   1.764   7.025   2.202  1.1216  0.8692  0.5672
   38MOL   C23128425   1.614   7.047   2.199  0.9051 -0.0551 -0.0745
   38MOL   C23228426   1.555   7.050   2.055 -0.1332  0.1329 -0.7661
   38MOL   C23328427   1.415   7.102   2.061 -1.1822  0.3704 -0.4690
   38MOL   C23428428   1.641   7.136   1.952  0.5779 -0.5106  0.2294
   38MOL   C23528429   1.787   7.095   1.967  0.1695 -0.1441  0.0707
   38MOL   C23628430   1.833   7.121   2.108 -0.3918 -0.2951  0.0195
   38MOL   C23728431   1.986   7.110   2.125  0.0977  0.1291 -0.0024
   38MOL   O23828432   2.030   6.982   2.085  0.2839  0.1259  0.1573
   38MOL   C23928433   2.104   6.907   2.175  0.3195 -0.2525 -0.5948
   38MOL   O24028434   2.142   6.950   2.280 -0.1000 -0.6529  0.4505
   38MOL   C24128435   2.120   6.772   2.117  0.8872  0.2927  0.1273
   38MOL   C24228436   2.074   6.736   1.990  0.5181 -0.0229  0.4940
   38MOL   C24328437   2.093   6.609   1.936  0.4593  0.2078  0.5931
   38MOL   C24428438   2.150   6.509   2.016 -0.0001 -0.1370 -0.2507
   38MOL   C24528439   2.163   6.372   1.965  0.4362 -0.0562  0.0245
   38MOL   O24628440   2.154   6.333   1.845  0.2001  0.5284  0.0421
   38MOL   O24728441   2.180   6.278   2.059  0.1986 -0.6773 -0.1661
   38MOL   C24828442   2.192   6.540   2.150  0.1978  0.0644  0.2714
   38MOL   C24928443   2.178   6.670   2.201  0.3845 -0.8251  0.0052
   38MOL   H25028444   1.775   6.923   2.164 -0.5954  1.8430 -2.7941
   38MOL   H25128445   1.788   7.028   2.308 -1.0583  0.5861  1.0990
   38MOL   H25228446   1.589   7.122   2.274 -1.4585 -0.5359 -0.3422
   38MOL   H25328447   1.566   6.958   2.240 -1.2734  0.4573 -1.4170
   38MOL   H25428448   1.556   6.946   2.023 -2.8661 -0.0682 -0.3706
   38MOL   H25528449   1.396   7.143   1.962  0.7757  1.0731 -0.5681
   38MOL   H25628450   1.424   7.178   2.138  2.2081  1.6883 -2.0798
   38MOL   H25728451   1.631   7.242   1.977  0.4819 -0.2305 -0.9481
   38MOL   H25828452   1.600   7.115   1.853  1.6991 -1.5669 -0.0235
   38MOL   H25928453   1.798   6.991   1.935  0.9728 -0.9219  2.7779
   38MOL   H26028454   1.844   7.162   1.903 -0.3296 -1.1398 -1.4488
   38MOL   H26128455   1.811   7.225   2.131  1.7419  0.2462 -0.2965
   38MOL   H26228456   2.008   7.133   2.229  0.9867 -2.3283  0.3904
   38MOL   H26328457   2.039   7.184   2.066  1.5491 -0.3154  0.7379
   38MOL   H26428458   2.035   6.812   1.923  1.7660  0.4785  0.3294
   38MOL   H26528459   2.064   6.581   1.836  1.7856  1.2772 -0.1129
   38MOL   H26628460   2.232   6.471   2.223  1.6949  2.3035  1.6334
   38MOL   H26728461   2.209   6.701   2.299  4.0874 -2.8782 -0.4072
   38MOL   C26828462   2.498   6.006   2.159 -0.3807  0.2652  0.0777
   38MOL   C26928463   2.405   6.074   2.060 -0.0705  0.5861 -0.2627
   38MOL   C27028464   2.261   6.058   2.112  0.1611  0.1762  0.0450
   38MOL   C27128465   2.170   6.144   2.030 -0.4757 -0.5783  0.4949
   38MOL   C27228466   2.232   5.911   2.096  0.2265 -0.2517  0.4280
   38MOL   C27328467   2.327   5.818   2.176 -0.1570 -0.0253  0.2229
   38MOL   C27428468   2.476   5.850   2.156  0.1423 -0.1776 -0.1238
   38MOL   C27528469   2.570   5.783   2.247  0.3222 -0.5254  0.0627
   38MOL   O27628470   2.571   5.642   2.222 -0.3230 -0.3906  0.3624
   38MOL   C27728471   2.630   5.550   2.310 -0.2304 -0.6434  0.3215
   38MOL   O27828472   2.705   5.582   2.403 -0.2764 -0.7721  0.5878
   38MOL   C27928473   2.608   5.407   2.270  0.6704  0.6484  0.4154
   38MOL   C28028474   2.630   5.302   2.360  0.6287 -0.0420  0.2918
   38MOL   C28128475   2.617   5.170   2.319 -0.2229  0.3377  0.1555
   38MOL   C28228476   2.567   5.133   2.186 -0.4512 -0.9780 -0.1885
   38MOL   C28328477   2.551   4.994   2.145  0.0710  0.4645 -0.5069
   38MOL   O28428478   2.543   4.958   2.022 -0.2558  0.0915  0.0241
   38MOL   O28528479   2.552   4.899   2.243  0.3145  0.2527 -0.0466
   38MOL   C28628480   2.549   5.241   2.099 -0.1989  1.2346  0.4098
   38MOL   C28728481   2.561   5.376   2.138  0.2222  0.7403 -0.5511
   38MOL   H28828482   2.480   6.044   2.260 -1.2660 -0.6265  0.2670
   38MOL   H28928483   2.602   6.006   2.129 -0.4312 -2.7066 -0.2173
   38MOL   H29028484   2.425   6.045   1.957  0.1449  2.3290 -0.7370
   38MOL   H29128485   2.439   6.177   2.068 -0.4257  0.8199 -1.6782
   38MOL   H29228486   2.262   6.093   2.215  3.7044 -0.7567  0.4202
   38MOL   H29328487   2.065   6.119   2.046 -1.7044  3.0321 -1.3040
   38MOL   H29428488   2.193   6.123   1.925  0.0294 -2.2776  0.9292
   38MOL   H29528489   2.229   5.889   1.989  0.5665 -1.2504  0.6172
   38MOL   H29628490   2.129   5.890   2.127 -0.3352  1.1934 -0.4461
   38MOL   H29728491   2.309   5.840   2.281  0.7635 -1.1369  0.6347
   38MOL   H29828492   2.317   5.713   2.148  2.5288  0.0541 -1.1875
   38MOL   H29928493   2.519   5.817   2.062  2.1384  0.0766  0.6738
   38MOL   H30028494   2.532   5.783   2.349  2.2375  2.6996  0.8434
   38MOL   H30128495   2.669   5.829   2.248 -0.6260  1.5839  2.8922
   38MOL   H30228496   2.665   5.323   2.460  0.8121 -3.7566  1.0881
   38MOL   H30328497   2.627   5.097   2.398  1.0651  0.9635  0.5810
   38MOL   H30428498   2.515   5.216   2.000  2.9450 -0.1094 -0.4023
   38MOL   H30528499   2.543   5.461   2.073 -1.0644  2.1031  1.5440
   38MOL   C30628500   2.577   4.427   2.404  0.1229  0.5534  0.7139
   38MOL   C30728501   2.569   4.527   2.282  0.5583 -0.0131 -0.0909
   38MOL   C30828502   2.557   4.672   2.327 -0.4868  0.0430  0.4311
   38MOL   C30928503   2.535   4.766   2.206  0.2234 -0.0261 -0.0510
   38MOL   C31028504   2.465   4.684   2.446 -0.8656 -0.3740 -0.6820
   38MOL   C31128505   2.488   4.598   2.568 -0.3292  0.6495 -0.5116
   38MOL   C31228506   2.487   4.451   2.529 -0.3452 -0.2079 -0.1831
   38MOL   C31328507   2.532   4.375   2.650  0.6056 -0.0105  0.3691
   38MOL   O31428508   2.521   4.236   2.619  0.1018 -0.4043 -0.3269
   38MOL   C31528509   2.586   4.135   2.679  0.6935 -0.7941 -0.2103
   38MOL   O31628510   2.668   4.156   2.766 -0.3301  0.6067 -0.4381
   38MOL   C31728511   2.562   3.997   2.623  0.1103  0.3977 -0.1090
   38MOL   C31828512   2.636   3.891   2.678  1.1079  0.4766 -0.0050
   38MOL   C31928513   2.608   3.760   2.637 -0.0310 -0.0196  0.1018
   38MOL   C32028514   2.507   3.736   2.538 -0.5197  0.2103  0.3766
   38MOL   C32128515   2.491   3.601   2.479 -0.8960 -0.3188 -0.2819
   38MOL   O32228516   2.565   3.510   2.506  0.3900 -0.0821 -0.4848
   38MOL   O32328517   2.389   3.591   2.391 -0.2046  0.1530 -0.3463
   38MOL   C32428518   2.439   3.842   2.488 -0.0722 -0.8773 -0.1787
   38MOL   C32528519   2.460   3.974   2.530  0.0422 -0.4879  1.0484
   38MOL   H32628520   2.679   4.426   2.442 -0.5888  0.1894  2.6253
   38MOL   H32728521   2.551   4.329   2.365  0.8443  1.0231 -1.0274
   38MOL   H32828522   2.473   4.506   2.235 -0.1774 -0.8858  1.7481
   38MOL   H32928523   2.646   4.518   2.206 -0.7462  0.0334 -1.4285
   38MOL   H33028524   2.653   4.696   2.373 -0.8815  3.0910 -0.1880
   38MOL   H33128525   2.446   4.741   2.148  1.9632 -0.8865 -2.4614
   38MOL   H33228526   2.613   4.741   2.134 -0.6077 -1.3961 -0.4910
   38MOL   H33328527   2.363   4.672   2.409 -1.4933  0.4041  0.8060
   38MOL   H33428528   2.475   4.784   2.488  1.5639 -1.6667  1.9585
   38MOL   H33528529   2.589   4.619   2.603 -0.5940  0.7763  0.1776
   38MOL   H33628530   2.421   4.616   2.652 -1.4252 -0.2706 -1.1751
   38MOL   H33728531   2.387   4.425   2.493  0.2429 -0.2551 -1.8267
   38MOL   H33828532   2.469   4.403   2.734 -0.5843  2.6024 -1.3351
   38MOL   H33928533   2.631   4.401   2.687  0.5813 -0.8187  1.0039
   38MOL   H34028534   2.710   3.908   2.754 -0.1468  0.5408  1.2283
   38MOL   H34128535   2.671   3.678   2.669 -3.0419 -2.0558  1.0552
   38MOL   H34228536   2.360   3.833   2.414 -0.0641 -0.3043 -0.2594
   38MOL   H34328537   2.400   4.053   2.487  0.8081 -0.7671 -0.5938
   38MOL   C34428538   2.529   3.683   1.986  0.1012 -0.3211 -0.2178
   38MOL   C34528539   2.522   3.621   2.129  0.1086  0.5505  0.4715
   38MOL   C34628540   2.403   3.527   2.151  0.5119  1.2035 -0.7824
   38MOL   C34728541   2.392   3.477   2.300 -0.1303  0.9221 -0.3827
   38MOL   C34828542   2.273   3.606   2.106 -0.7201  0.4633 -0.5742
   38MOL   C34928543   2.282   3.653   1.965  0.4208  0.0453  0.3788
   38MOL   C35028544   2.400   3.755   1.949 -0.3342  0.2682 -0.2790
   38MOL   C35128545   2.407   3.825   1.810 -0.5547 -0.3112  0.7515
   38MOL   O35228546   2.295   3.916   1.798  0.4562 -0.5809  0.8298
   38MOL   C35328547   2.308   4.029   1.730 -0.0813 -0.0646  0.1310
   38MOL   O35428548   2.409   4.062   1.675  0.6448 -0.4570 -0.7438
   38MOL   C35528549   2.185   4.111   1.738  0.4758  0.5044 -0.0344
   38MOL   C35628550   2.063   4.060   1.794  0.2565  0.3979 -0.1011
   38MOL   C35728551   1.949   4.140   1.800  0.0744  0.1519 -0.6442
   38MOL   C35828552   1.950   4.269   1.741 -0.1510  0.6974  0.1163
   38MOL   C35928553   1.827   4.349   1.743  0.5956  1.2775 -0.4722
   38MOL   O36028554   1.724   4.308   1.805  0.5842  0.4404  0.2316
   38MOL   O36128555   1.834   4.457   1.680  0.0485  0.1581  0.0716
   38MOL   C36228556   2.072   4.324   1.698 -0.5859 -0.1423  0.5432
   38MOL   C36328557   2.191   4.247   1.695 -0.2333  0.2908  0.6271
   38MOL   H36428558   2.558   3.604   1.916  1.7148  0.7633 -0.8037
   38MOL   H36528559   2.616   3.749   1.987 -0.9224  1.0302  1.3922
   38MOL   H36628560   2.518   3.700   2.203 -3.4090  1.4648 -0.6391
   38MOL   H36728561   2.618   3.569   2.122  0.5903  1.2684  1.6921
   38MOL   H36828562   2.411   3.442   2.084 -0.3939  0.8851 -0.4869
   38MOL   H36928563   2.471   3.403   2.316  1.6630  2.9053  0.2306
   38MOL   H37028564   2.300   3.425   2.324 -1.4142  1.9977 -2.8510
   38MOL   H37128565   2.252   3.691   2.171 -0.5273  0.2526 -0.2387
   38MOL   H37228566   2.184   3.544   2.120  0.1189 -0.0012  3.3674
   38MOL   H37328567   2.306   3.573   1.895 -0.7287 -1.3129  1.5239
   38MOL   H37428568   2.193   3.710   1.938  1.3574  1.1918 -0.4034
   38MOL   H37528569   2.386   3.822   2.034  0.3686  0.9994 -0.7304
   38MOL   H37628570   2.399   3.762   1.721  2.2797  1.0275 -0.4952
   38MOL   H37728571   2.497   3.886   1.801 -1.0484  0.2266 -0.7433
   38MOL   H37828572   2.052   3.957   1.824 -1.2286  0.8137  0.8452
   38MOL   H37928573   1.861   4.093   1.840  1.4285 -1.7106  0.2218
   38MOL   H38028574   2.071   4.425   1.660  0.6004 -0.7937 -1.2843
   38MOL   H38128575   2.279   4.297   1.657  1.7053 -1.5227  2.6144
   38MOL   C38228576   1.774   4.673   1.299  0.3316  0.0709  0.5316
   38MOL   C38328577   1.751   4.572   1.410 -0.4780 -0.3655  0.0468
   38MOL   C38428578   1.736   4.639   1.544 -0.7481  0.5382  0.0018
   38MOL   C38528579   1.711   4.537   1.656  0.0915  0.7155 -0.2250
   38MOL   C38628580   1.866   4.723   1.567  0.0606  0.6444  0.0433
   38MOL   C38728581   1.888   4.827   1.458 -0.3042  0.0829  0.1599
   38MOL   C38828582   1.890   4.767   1.318 -0.2280  0.0563 -0.0133
   38MOL   C38928583   1.908   4.856   1.196  0.3098 -0.9765 -0.0526
   38MOL   O39028584   1.797   4.946   1.203  0.2925 -0.6462  0.9144
   38MOL   C39128585   1.693   4.934   1.118 -0.0564  0.2744  0.5163
   38MOL   O39228586   1.696   4.859   1.015 -0.7892 -0.4582  0.1733
   38MOL   C39328587   1.578   5.009   1.162  0.2144  0.0105  0.8246
   38MOL   C39428588   1.451   4.973   1.107  0.6163  0.7290 -0.0723
   38MOL   C39528589   1.339   5.008   1.176 -0.1326 -0.0237  0.1267
   38MOL   C39628590   1.340   5.093   1.292 -0.0202  0.5000 -0.3358
   38MOL   C39728591   1.220   5.135   1.359 -0.4438  0.6673  0.5497
   38MOL   O39828592   1.216   5.219   1.449 -0.0272  0.3618  0.0507
   38MOL   O39928593   1.111   5.078   1.302 -0.0401  0.8371 -0.5360
   38MOL   C40028594   1.463   5.138   1.335 -0.2758 -0.0246 -0.1895
   38MOL   C40128595   1.584   5.094   1.273  0.5785 -0.0827  0.5767
   38MOL   H40228596   1.679   4.726   1.294  0.0167 -0.6288 -1.4122
   38MOL   H40328597   1.777   4.619   1.204  2.5524  0.5725  0.2854
   38MOL   H40428598   1.839   4.508   1.417  0.2085  0.4472 -0.9143
   38MOL   H40528599   1.666   4.508   1.387 -1.6007  0.9805  0.4168
   38MOL   H40628600   1.655   4.711   1.536 -1.0700 -0.0629 -2.7390
   38MOL   H40728601   1.630   4.469   1.627  1.8717 -1.3997 -0.3406
   38MOL   H40828602   1.684   4.588   1.749 -0.0733 -1.7665  1.1331
   38MOL   H40928603   1.958   4.666   1.557  0.3562  0.7192  2.2345
   38MOL   H41028604   1.874   4.777   1.661 -1.6866  1.7193 -0.3880
   38MOL   H41128605   1.811   4.904   1.461 -0.3698  0.1088 -1.6287
   38MOL   H41228606   1.979   4.882   1.481  0.1086 -1.0749  1.3431
   38MOL   H41328607   1.981   4.708   1.322 -2.2726 -3.1621  1.3521
   38MOL   H41428608   1.914   4.800   1.103 -0.4042 -2.1641  0.6017
   38MOL   H41528609   2.000   4.915   1.191 -1.0810  1.3413  0.9464
   38MOL   H41628610   1.437   4.908   1.022  1.1136  0.1931  0.2558
   38MOL   H41728611   1.254   4.956   1.135 -0.2801  2.1343 -2.4589
   38MOL   H41828612   1.477   5.189   1.429  3.6974 -1.2218 -0.0271
   38MOL   H41928613   1.677   5.133   1.314 -0.6912  3.6298  0.1581
   38MOL   C42028614   0.730   5.302   1.140 -0.2472  1.3021  0.4340
   38MOL   C42128615   0.780   5.230   1.260 -0.0020  0.0177 -0.5235
   38MOL   C42228616   0.905   5.158   1.231 -0.1616 -0.1403  0.1480
   38MOL   C42328617   0.981   5.114   1.354 -0.2488 -0.0528  0.7214
   38MOL   C42428618   0.872   5.043   1.134  0.2103 -0.2772 -0.1929
   38MOL   C42528619   0.801   5.091   1.006  0.3924  0.0334 -0.1183
   38MOL   C42628620   0.694   5.195   1.027 -0.3293  0.0734 -0.3284
   38MOL   C42728621   0.653   5.269   0.895  0.3649 -1.6307 -0.1583
   38MOL   O42828622   0.564   5.370   0.931  0.7465 -0.0028  0.4664
   38MOL   C42928623   0.596   5.500   0.943  0.1793 -0.4570  0.6192
   38MOL   O43028624   0.706   5.548   0.913  0.4168 -0.1279  0.4071
   38MOL   C43128625   0.485   5.577   1.010 -0.3944  0.1052  0.3447
   38MOL   C43228626   0.364   5.510   1.037 -0.6857  0.2889 -0.3956
   38MOL   C43328627   0.265   5.581   1.112 -0.1227  0.3904 -0.2746
   38MOL   C43428628   0.276   5.713   1.162 -0.4308 -0.8134  0.7424
   38MOL   C43528629   0.159   5.785   1.221  0.3282  0.1499  0.2709
   38MOL   O43628630   0.046   5.741   1.216  0.0721  0.0900  0.0829
   38MOL   O43728631   0.184   5.908   1.280 -0.2380 -0.1944  0.2354
   38MOL   C43828632   0.400   5.770   1.141  0.4209 -0.7328  0.6428
   38MOL   C43928633   0.507   5.703   1.069  0.0287 -0.1109 -0.4140
   38MOL   H44028634   0.808   5.372   1.110  0.9165 -0.7964 -1.5597
   38MOL   H44128635   0.643   5.364   1.164 -1.7884  0.8192 -3.5837
   38MOL   H44228636   0.719   5.155   1.309  0.7522  0.5774  1.3145
   38MOL   H44328637   0.792   5.310   1.333  0.2929  1.0252 -1.6638
   38MOL   H44428638   0.966   5.240   1.192  0.1242  0.9501  2.7881
   38MOL   H44528639   0.949   5.021   1.400  4.5458 -1.2202  2.0418
   38MOL   H44628640   0.979   5.191   1.431  0.3261  0.7449 -0.0457
   38MOL   H44728641   0.803   4.975   1.184 -1.4979  1.0356 -0.7167
   38MOL   H44828642   0.963   4.990   1.106  0.0885  0.5852 -2.3758
   38MOL   H44928643   0.873   5.142   0.942 -0.3542  0.2796 -0.7804
   38MOL   H45028644   0.764   5.005   0.951  0.1035 -0.7482  1.2788
   38MOL   H45128645   0.617   5.124   1.054  1.6126 -1.4552  1.3700
   38MOL   H45228646   0.602   5.197   0.832 -0.5897 -1.5146  0.4742
   38MOL   H45328647   0.739   5.315   0.846 -0.5598  0.7687  0.3977
   38MOL   H45428648   0.345   5.407   1.012 -2.1738  0.3400  0.4841
   38MOL   H45528649   0.165   5.541   1.121 -1.0377  2.8115  0.7076
   38MOL   H45628650   0.417   5.871   1.176  2.5920 -0.3502 -1.4067
   38MOL   H45728651   0.599   5.759   1.057  0.3821 -0.5797  0.1128
   38MOL   C45828652   0.081   6.373   1.376 -0.1315 -0.4390  0.5449
   38MOL   C45928653   0.028   6.234   1.366  0.1353  0.8803  0.0954
   38MOL   C46028654   0.143   6.141   1.331  0.5707 -0.5060  0.2929
   38MOL   C46128655   0.080   6.003   1.312  0.4198 -0.2318 -0.6655
   38MOL   C46228656   0.212   6.185   1.198  1.0043  0.7157  0.6675
   38MOL   C46328657   0.267   6.331   1.221 -0.0989 -0.1904  0.6353
   38MOL   C46428658   0.155   6.422   1.247 -0.5156  0.1471  0.4498
   38MOL   C46528659   0.210   6.566   1.264  0.7088  0.1031 -0.6043
   38MOL   O46628660   0.106   6.665   1.286 -0.5546  0.3313 -0.6122
   38MOL   C46728661   0.092   6.778   1.215 -0.0333  0.6120 -0.5770
   38MOL   O46828662   0.164   6.818   1.118 -0.5382  0.1570 -0.1265
   38MOL   C46928663   8.013   6.867   1.276 -0.8569  0.0593 -0.4477
   38MOL   C47028664   8.017   7.006   1.257  0.7477  0.3011 -0.4993
   38MOL   C47128665   7.929   7.092   1.328  0.3040  0.3799  1.0593
   38MOL   C47228666   7.840   7.041   1.421  0.3930  0.2153 -0.2039
   38MOL   C47328667   7.746   7.129   1.496  0.0528  0.0140 -0.0988
   38MOL   O47428668   7.721   7.245   1.472 -0.1393  0.4225 -0.3386
   38MOL   O47528669   7.701   7.070   1.608 -0.4730 -0.1859  0.3484
   38MOL   C47628670   7.836   6.900   1.439 -0.3616  0.4106 -0.3995
   38MOL   C47728671   7.919   6.814   1.364  0.7494  0.1005 -0.4125
   38MOL   H47828672   0.137   6.388   1.468 -2.3405 -1.9929  2.1794
   38MOL   H47928673   8.028   6.442   1.383 -1.3024 -1.8981  0.7716
   38MOL   H48028674   7.986   6.251   1.287  0.6031  1.5559 -0.2070
   38MOL   H48128675   7.997   6.210   1.452  0.0151  1.1362  0.0787
   38MOL   H48228676   0.212   6.143   1.415 -0.2299  0.7181  0.9264
   38MOL   H48328677   0.000   5.989   1.239 -0.3002  1.8337 -0.3217
   38MOL   H48428678   0.044   5.963   1.407  2.5122  2.5803  1.3982
   38MOL   H48528679   0.154   6.185   1.106  3.4662 -0.0467 -0.9350
   38MOL   H48628680   0.295   6.121   1.167 -1.3205 -2.3588  0.6156
   38MOL   H48728681   0.338   6.322   1.303  1.7247 -0.8063 -0.9650
   38MOL   H48828682   0.313   6.371   1.131 -1.2364 -0.3752 -0.0371
   38MOL   H48928683   0.077   6.417   1.171  0.2432 -1.0318 -0.2618
   38MOL   H49028684   0.278   6.592   1.183  0.3207  2.5660 -0.1561
   38MOL   H49128685   0.276   6.570   1.350  1.2025  2.6897 -1.0719
   38MOL   H49228686   0.057   7.043   1.185  0.7910 -0.4452 -0.8456
   38MOL   H49328687   7.924   7.198   1.307 -2.7335  0.3592  1.4162
   38MOL   H49428688   7.767   6.863   1.514  1.1799 -0.8876  0.4214
   38MOL   H49528689   7.922   6.712   1.398  0.3842  0.6619  1.3769
   38MOL   C49628690   7.562   6.883   2.000 -0.2020  0.3498 -0.4602
   38MOL   C49728691   7.559   6.937   1.862 -0.4208 -0.0644 -0.5570
   38MOL   C49828692   7.619   7.081   1.838  0.0681 -0.6604 -0.1996
   38MOL   C49928693   7.609   7.142   1.688  0.5549 -0.2083 -0.0105
   38MOL   C50028694   7.543   7.176   1.930 -0.0438 -0.1999 -0.4626
   38MOL   C50128695   7.554   7.128   2.081  1.0513  0.5835  0.1271
   38MOL   C50228696   7.496   6.986   2.100 -0.0600  0.1932 -0.2908
   38MOL   C50328697   7.518   6.926   2.242 -0.4332 -0.0764 -0.3996
   38MOL   O50428698   7.652   6.883   2.255 -0.4319 -0.7831 -0.3504
   38MOL   C50528699   7.750   6.971   2.292 -0.2651  0.5594 -0.6139
   38MOL   O50628700   7.741   7.080   2.343  0.0431  0.4842 -0.1239
   38MOL   C50728701   7.882   6.925   2.239 -0.3779  0.6002 -0.4499
   38MOL   C50828702   7.924   6.790   2.221  0.1781  0.0918 -0.4218
   38MOL   C50928703   0.012   6.764   2.161 -0.3956 -0.3694  0.1130
   38MOL   C51028704   0.108   6.863   2.128 -0.3529 -0.5067  0.6606
   38MOL   C51128705   0.243   6.828   2.064 -0.7614  0.3435  0.3096
   38MOL   O51228706   0.336   6.909   2.045 -0.3305  0.5166 -0.1232
   38MOL   O51328707   0.257   6.695   2.044 -0.0916 -0.7177  0.6249
   38MOL   C51428708   0.071   6.997   2.146 -0.0523 -0.0440  0.5010
   38MOL   C51528709   7.977   7.026   2.201  0.0724 -0.1239  1.1664
   38MOL   H51628710   7.665   6.858   2.025 -0.7674 -1.1731  0.3653
   38MOL   H51728711   7.518   6.784   1.998 -1.7416  0.9487  2.4020
   38MOL   H51828712   7.460   6.928   1.818  0.2521 -2.8403 -1.6140
   38MOL   H51928713   7.619   6.866   1.805 -0.6681 -1.4743  0.9044
   38MOL   H52028714   7.722   7.076   1.872 -0.0162 -2.5310 -0.1301
   38MOL   H52128715   7.644   7.245   1.701  0.8241 -0.4022  0.7937
   38MOL   H52228716   7.510   7.136   1.643  1.5635 -1.9609 -2.1314
   38MOL   H52328717   7.440   7.186   1.897  0.3922  0.2659 -1.6787
   38MOL   H52428718   7.587   7.274   1.916 -1.0206  0.2838 -0.1704
   38MOL   H52528719   7.659   7.136   2.107  0.5100 -0.9847  3.0082
   38MOL   H52628720   7.492   7.196   2.140  1.5307  2.0454 -1.0421
   38MOL   H52728721   7.388   6.978   2.089  0.0660  0.2470 -1.5974
   38MOL   H52828722   7.457   6.837   2.255 -2.0254  1.0275 -0.1403
   38MOL   H52928723   7.485   6.992   2.323  0.6274  1.0162 -0.8590
   38MOL   H53028724   7.851   6.713   2.239  1.6811 -0.8284  1.9245
   38MOL   H53128725   0.031   6.659   2.145  0.1978 -0.3129  0.4444
   38MOL   H53228726   0.140   7.079   2.135 -2.5532  1.9697 -0.6632
   38MOL   H53328727   7.952   7.130   2.213  0.2091 -0.1870  2.0176
   38MOL   C53428728   0.307   6.268   1.939  0.0859 -0.0160 -0.2811
   38MOL   C53528729   0.287   6.419   1.924 -0.4253 -0.4571  0.5097
   38MOL   C53628730   0.396   6.494   2.002  0.8793 -0.2039  0.4621
   38MOL   C53728731   0.382   6.645   1.997  0.7103 -0.5756 -0.4707
   38MOL   C53828732   0.387   6.454   2.149 -0.1944  0.0546 -0.2029
   38MOL   C53928733   0.389   6.294   2.174 -0.9684 -0.7184  0.1222
   38MOL   C54028734   0.287   6.216   2.084 -0.1766  0.4752  0.1551
   38MOL   C54128735   0.305   6.066   2.089 -0.3157  0.1529 -0.7084
   38MOL   O54228736   0.301   6.022   2.219  0.9167 -0.8406  0.1507
   38MOL   C54328737   0.296   5.887   2.249 -0.2239  0.3097  0.5595
   38MOL   O54428738   0.314   5.798   2.166  0.6350 -0.6712 -0.0682
   38MOL   C54528739   0.284   5.850   2.396  0.1380 -0.2027  0.0825
   38MOL   C54628740   0.288   5.945   2.497  0.2970 -0.1629  0.2859
   38MOL   C54728741   0.272   5.913   2.635 -0.2264 -0.0899  0.0662
   38MOL   C54828742   0.255   5.779   2.680  0.4959 -0.1975  0.2959
   38MOL   C54928743   0.222   5.729   2.816  0.2600  0.4695 -0.3471
   38MOL   O55028744   0.202   5.610   2.845  0.2802 -0.2791 -0.2717
   38MOL   O55128745   0.187   5.827   2.899  0.3872 -0.2800 -0.3286
   38MOL   C55228746   0.261   5.684   2.576 -0.3335  0.2768 -0.6485
   38MOL   C55328747   0.271   5.718   2.437 -0.1578  0.2552 -0.4710
   38MOL   H55428748   0.412   6.250   1.916 -0.0152 -1.8286  0.6250
   38MOL   H55528749   0.248   6.214   1.865 -0.7591  0.9475 -0.3308
   38MOL   H55628750   0.190   6.449   1.964 -0.3462  0.8867 -0.2866
   38MOL   H55728751   0.287   6.452   1.820 -0.4739 -2.6548 -0.2215
   38MOL   H55828752   0.490   6.469   1.952  0.7376 -0.8337  0.5101
   38MOL   H55928753   0.388   6.682   1.895 -0.9345  0.8874 -0.0534
   38MOL   H56028754   0.458   6.682   2.066 -0.3190  1.5508 -0.4311
   38MOL   H56128755   0.295   6.497   2.189 -0.0989  0.5077 -0.4642
   38MOL   H56228756   0.469   6.494   2.208 -0.9303 -2.5334  2.7713
   38MOL   H56328757   0.492   6.258   2.167 -0.9506 -0.4700 -0.9213
   38MOL   H56428758   0.360   6.274   2.277 -0.3077  0.9685  0.6526
   38MOL   H56528759   0.184   6.243   2.108 -0.6179 -0.9714 -0.0727
   38MOL   H56628760   0.401   6.032   2.052 -0.8598 -0.9417 -1.1587
   38MOL   H56728761   0.214   6.030   2.042 -1.4813  0.4406  1.2419
   38MOL   H56828762   0.285   6.048   2.462 -0.8879  0.9256  3.4333
   38MOL   H56928763   0.272   5.997   2.703  0.4085 -0.5060  0.5804
   38MOL   H57028764   0.251   5.578   2.592  1.7658  0.0888 -0.4997
   38MOL   H57128765   0.268   5.637   2.365 -1.7931  0.2998 -0.4816
   38MOL   C57228766   7.775   5.793   2.920 -0.2694 -0.2161  0.2761
   38MOL   C57328767   7.919   5.755   2.921 -0.7908  0.4189 -0.2515
   38MOL   C57428768   8.005   5.838   3.019  0.2086  0.0974  0.3013
   38MOL   C57528769   0.122   5.799   3.027 -0.0724  0.8989  0.6891
   38MOL   C57628770   7.987   5.990   2.998  0.2113  0.2040 -0.5380
   38MOL   C57728771   7.840   6.041   2.973 -0.6888 -0.3170 -1.0857
   38MOL   C57828772   7.753   5.941   2.888  0.5010  0.4321  0.5125
   38MOL   C57928773   7.596   5.979   2.901 -0.0333  0.3511 -0.4782
   38MOL   O58028774   7.576   6.113   2.868  0.6414  0.5779  0.3529
   38MOL   C58128775   7.541   6.144   2.741  0.7069  0.2036  0.0024
   38MOL   O58228776   7.518   6.064   2.655 -0.8130  0.3209  0.1874
   38MOL   C58328777   7.535   6.291   2.719  0.4574 -0.3972  0.7226
   38MOL   C58428778   7.505   6.334   2.587 -0.3041  0.3936 -0.0912
   38MOL   C58528779   7.508   6.467   2.547 -0.2744  0.0720 -0.0066
   38MOL   C58628780   7.555   6.560   2.641  0.3431  0.3799 -0.3931
   38MOL   C58728781   7.567   6.701   2.599 -0.2768 -0.7081  0.1923
   38MOL   O58828782   7.510   6.746   2.502  0.5100 -0.3461 -0.3091
   38MOL   O58928783   7.648   6.777   2.678  0.3078 -0.7070  0.3159
   38MOL   C59028784   7.594   6.519   2.771  1.1023  0.0661  0.5452
   38MOL   C59128785   7.574   6.384   2.815 -0.0432 -0.3764  0.3961
   38MOL   H59228786   7.735   5.780   3.021 -1.1441 -0.8693 -0.1515
   38MOL   H59328787   7.720   5.730   2.850  1.0512 -1.0212 -0.0565
   38MOL   H59428788   7.973   5.780   2.829  0.1536  0.1449  0.2218
   38MOL   H59528789   7.928   5.649   2.944 -1.1807  0.5230  0.3723
   38MOL   H59628790   7.978   5.809   3.120 -0.2592  1.7535  0.6727
   38MOL   H59728791   0.124   5.691   3.045 -0.0810  0.7739 -0.0097
   38MOL   H59828792   0.167   5.848   3.113  0.1808  1.4614  0.2367
   38MOL   H59928793   0.022   6.019   2.917 -0.8783 -0.7667 -1.8216
   38MOL   H60028794   8.027   6.054   3.075 -1.4641  1.2547 -0.5106
   38MOL   H60128795   7.791   6.045   3.070  0.5963 -2.2137 -0.3063
   38MOL   H60228796   7.839   6.142   2.933 -0.9819 -0.5723 -1.7288
   38MOL   H60328797   7.779   5.955   2.783 -0.4514 -2.1505 -0.1021
   38MOL   H60428798   7.562   5.980   3.004 -1.9656  0.6193 -1.0971
   38MOL   H60528799   7.537   5.903   2.850 -0.6115 -0.4976  1.4187
   38MOL   H60628800   7.487   6.269   2.502  0.2071  0.8697 -0.5659
   38MOL   H60728801   7.504   6.507   2.447  1.5520 -1.7179 -0.8327
   38MOL   H60828802   7.638   6.588   2.841  0.7586  1.5150 -0.6520
   38MOL   H60928803   7.595   6.350   2.916 -0.0327 -1.3776  0.0576
   38MOL   C61028804   7.726   7.194   2.903 -0.0283 -0.1639  0.8866
   38MOL   C61128805   7.693   7.123   2.765 -0.0605 -0.0921  0.2261
   38MOL   C61228806   7.689   6.973   2.789 -0.4838  0.1028 -0.6727
   38MOL   C61328807   7.664   6.911   2.652  1.0978  0.1410 -0.2818
   38MOL   C61428808   7.814   6.926   2.856  0.1279  0.8058  0.7040
   38MOL   C61528809   7.852   6.998   2.981  0.3079 -0.3653  0.4676
   38MOL   C61628810   7.860   7.147   2.956 -0.4520  0.4633  0.3259
   38MOL   C61728811   7.895   7.229   3.076  0.1001 -0.0332  0.3257
   38MOL   O61828812   7.912   7.358   3.041 -0.0368  0.5399  0.3853
   38MOL   C61928813   7.987   7.445   3.121 -0.2680 -0.0817 -0.3299
   38MOL   O62028814   0.017   7.410   3.226 -0.0435 -0.5604 -0.2642
   38MOL   C62128815   7.978   7.583   3.066 -0.2301 -0.3385  0.1548
   38MOL   C62228816   7.899   7.624   2.957  0.1087 -0.4469 -0.4359
   38MOL   C62328817   7.882   7.758   2.922 -0.3911 -0.3740 -0.8054
   38MOL   C62428818   7.943   7.863   2.996 -0.0100 -0.1797  0.1270
   38MOL   C62528819   7.929   8.003   2.952 -0.7195 -0.5050 -0.4500
   38MOL   O62628820   7.843   0.006   2.872  0.8071  0.1946  0.2170
   38MOL   O62728821   8.004   0.056   3.010  0.2042  0.0787 -0.0810
   38MOL   C62828822   8.026   7.826   3.101 -0.2799 -0.2161 -0.1827
   38MOL   C62928823   0.006   7.685   3.140 -0.5007  0.4857  0.4788
   38MOL   H63028824   7.643   7.172   2.969 -0.8766 -2.6345 -0.9071
   38MOL   H63128825   7.714   7.302   2.895 -1.9299 -0.4696 -0.9022
   38MOL   H63228826   7.768   7.158   2.694  2.6664 -0.0487  2.9848
   38MOL   H63328827   7.597   7.160   2.730 -0.8038 -1.7794  0.4454
   38MOL   H63428828   7.603   6.944   2.850 -0.7442 -0.2498 -1.2101
   38MOL   H63528829   7.751   6.926   2.588  1.9497 -1.9678  0.3482
   38MOL   H63628830   7.576   6.954   2.604  0.5323 -0.1761  0.4575
   38MOL   H63728831   7.892   6.933   2.781 -1.8327 -0.8339 -1.5505
   38MOL   H63828832   7.813   6.819   2.879  0.5423  0.8549  0.9692
   38MOL   H63928833   7.776   6.969   3.053  0.8306  1.5479  1.8152
   38MOL   H64028834   7.944   6.951   3.014 -0.3967 -0.4004  2.4527
   38MOL   H64128835   7.932   7.179   2.881 -0.8062 -1.5296 -0.9044
   38MOL   H64228836   7.989   7.194   3.120  1.3428  1.0299 -1.4139
   38MOL   H64328837   7.810   7.220   3.144 -0.7972 -0.0088 -0.7812
   38MOL   H64428838   7.847   7.557   2.890  0.2432  0.8282 -1.8316
   38MOL   H64528839   7.827   7.778   2.832 -2.3952 -1.0037  0.2607
   38MOL   H64628840   0.034   7.896   3.173 -1.6673 -0.4001  0.7915
   38MOL   H64728841   0.059   7.660   3.231 -0.2406 -0.3439  0.1040
   38MOL   C64828842   0.214   0.466   2.863 -0.3941 -0.4799  0.1334
   38MOL   C64928843   0.098   0.409   2.936  0.2304  0.2183 -0.2824
   38MOL   C65028844   0.081   0.255   2.925 -0.1992 -0.0773  0.1107
   38MOL   C65128845   7.982   0.196   2.985  0.3586 -0.0559  0.0311
   38MOL   C65228846   0.104   0.209   2.777  0.4279  0.3119  0.1362
   38MOL   C65328847   0.216   0.275   2.696 -0.5308 -0.3435  0.4051
   38MOL   C65428848   0.214   0.429   2.715  0.0034  0.2956 -0.2078
   38MOL   C65528849   0.337   0.503   2.652 -0.8041 -0.3424 -0.1635
   38MOL   O65628850   0.317   0.517   2.510 -0.3588  0.0619  0.1166
   38MOL   C65728851   0.235   0.613   2.466  0.2637 -0.7212  0.2712
   38MOL   O65828852   0.169   0.699   2.535  0.9347  0.1083 -0.1350
   38MOL   C65928853   0.240   0.622   2.319 -0.6061  0.0923 -0.8386
   38MOL   C66028854   0.154   0.707   2.250 -0.7434  0.3077  0.0794
   38MOL   C66128855   0.159   0.716   2.107  0.2235 -0.0367  0.1889
   38MOL   C66228856   0.257   0.648   2.040 -0.4014  0.0622  0.0160
   38MOL   C66328857   0.281   0.656   1.889  0.5585  0.5202  0.4481
   38MOL   O66428858   0.377   0.603   1.834  0.4949 -0.1022  0.1995
   38MOL   O66528859   0.193   0.729   1.821 -0.1666  0.0117  0.1092
   38MOL   C66628860   0.352   0.568   2.108 -0.6329 -0.7274 -0.4522
   38MOL   C66728861   0.337   0.552   2.249 -0.5893 -0.6630 -0.3337
   38MOL   H66828862   0.304   0.432   2.914 -0.0497 -0.2523 -0.3225
   38MOL   H66928863   0.211   0.574   2.871 -0.2548 -0.4923  0.3444
   38MOL   H67028864   0.009   0.454   2.891  0.6086  2.4517  1.1502
   38MOL   H67128865   0.069   0.439   3.037  1.0899 -0.7585  0.2585
   38MOL   H67228866   0.156   0.197   2.979 -1.2940 -1.0167  0.6585
   38MOL   H67328867   7.903   0.216   2.912  0.0177 -0.3790  0.3117
   38MOL   H67428868   7.962   0.243   3.081 -2.1243 -1.9571  0.4779
   38MOL   H67528869   0.013   0.226   2.719 -0.1279  0.8727  1.1446
   38MOL   H67628870   0.114   0.100   2.778  1.2750  0.3849  0.0426
   38MOL   H67728871   0.309   0.227   2.726 -0.2560  0.6260  1.1291
   38MOL   H67828872   0.205   0.251   2.590  0.7011  0.0350  0.1828
   38MOL   H67928873   0.125   0.470   2.666  0.1320 -1.8113 -2.2920
   38MOL   H68028874   0.420   0.434   2.666  1.7516  2.5586 -0.6252
   38MOL   H68128875   0.355   0.601   2.694  0.2106 -0.6951  0.2339
   38MOL   H68228876   0.075   0.762   2.300 -1.0673 -0.0052 -0.0830
   38MOL   H68328877   0.080   0.771   2.057  0.0749  0.6072  1.1099
   38MOL   H68428878   0.426   0.512   2.052 -1.2168 -1.0370 -0.9257
   38MOL   H68528879   0.406   0.491   2.304 -0.8673 -1.1472 -0.5134
   38MOL   C68628880   8.013   1.080   1.713  0.9167  0.7563  0.9334
   38MOL   C68728881   0.096   0.989   1.754 -0.0150  0.6189  0.2284
   38MOL   C68828882   0.096   0.868   1.655  0.3124  0.2198 -0.9639
   38MOL   C68928883   0.208   0.762   1.684 -0.3151 -0.8007 -0.2040
   38MOL   C69028884   7.990   0.798   1.657  0.2159 -0.0434 -0.6485
   38MOL   C69128885   7.873   0.897   1.633 -0.2768 -0.4650  0.0755
   38MOL   C69228886   7.877   1.015   1.734  0.1220  0.3298  0.0923
   38MOL   C69328887   7.756   1.111   1.719 -0.2153 -0.9892 -0.3221
   38MOL   O69428888   7.636   1.038   1.743  0.0135  0.2211  0.8281
   38MOL   C69528889   7.574   1.035   1.859  0.0477 -0.1854 -0.4419
   38MOL   O69628890   7.602   1.109   1.954 -0.1479  0.0153 -0.4440
   38MOL   C69728891   7.462   0.933   1.859 -0.2207  0.7035  0.4023
   38MOL   C69828892   7.466   0.808   1.798  0.5118  0.0866 -0.4396
   38MOL   C69928893   7.355   0.721   1.809  0.0103 -0.5177  0.2719
   38MOL   C70028894   7.239   0.759   1.876  0.2622  0.2141 -0.6588
   38MOL   C70128895   7.129   0.663   1.899 -0.5101  0.2277 -0.1169
   38MOL   O70228896   7.106   0.583   1.813 -0.2914  0.1254 -0.1075
   38MOL   O70328897   7.065   0.659   2.017 -0.1944 -0.5308 -0.3268
   38MOL   C70428898   7.230   0.886   1.936 -1.3793 -0.3177  0.0215
   38MOL   C70528899   7.345   0.970   1.929 -0.0627 -0.4835  0.0702
   38MOL   H70628900   8.017   1.108   1.607  0.8669 -2.4931  0.0043
   38MOL   H70728901   8.017   1.167   1.777  1.3235  0.0057  1.9439
   38MOL   H70828902   0.079   0.960   1.857 -2.7140 -0.4157 -0.4506
   38MOL   H70928903   0.186   1.050   1.753 -0.9831  2.0543  0.3708
   38MOL   H71028904   0.114   0.906   1.554  0.2001 -0.5245 -1.2676
   38MOL   H71128905   0.313   0.787   1.666 -0.2345 -1.0445 -0.0826
   38MOL   H71228906   0.195   0.670   1.627  0.6881 -2.0150  1.4628
   38MOL   H71328907   7.980   0.742   1.750  0.5310  2.7606  1.1399
   38MOL   H71428908   8.003   0.721   1.580  0.4164 -2.1092  1.3877
   38MOL   H71528909   7.865   0.928   1.529  1.6948  1.3945  0.4475
   38MOL   H71628910   7.772   0.857   1.648  0.2883 -0.9254  2.9029
   38MOL   H71728911   7.882   0.973   1.834 -0.7053  0.3814  0.1600
   38MOL   H71828912   7.746   1.155   1.620  1.2132 -0.3277 -0.1706
   38MOL   H71928913   7.755   1.186   1.798 -0.0157 -0.0380 -1.2170
   38MOL   H72028914   7.556   0.781   1.744  0.7275 -0.4998  0.1945
   38MOL   H72128915   7.361   0.624   1.762  0.6730 -0.0847 -0.5404
   38MOL   H72228916   7.138   0.912   1.987 -1.3975 -0.9452  0.3225
   38MOL   H72328917   7.354   1.059   1.988 -0.6872  1.7150 -3.0353
   38MOL   C72428918   6.601   0.661   2.142  0.1228 -0.3168  0.5090
   38MOL   C72528919   6.721   0.573   2.109  0.2893  0.0453  0.5549
   38MOL   C72628920   6.829   0.659   2.047 -1.3792  0.7061  0.2416
   38MOL   C72728921   6.953   0.578   2.045 -0.0209 -0.4159  1.1618
   38MOL   C72828922   6.779   0.716   1.914  0.1518 -0.3632 -0.3177
   38MOL   C72928923   6.653   0.805   1.938 -0.8165 -0.1465 -0.0207
   38MOL   C73028924   6.540   0.738   2.022  0.9914  0.4526  0.1401
   38MOL   C73128925   6.436   0.845   2.069 -1.0504 -0.4575  0.2016
   38MOL   O73228926   6.373   0.888   1.945  0.1207  0.0655  0.0355
   38MOL   C73328927   6.360   1.018   1.912  0.1306 -0.5966 -0.6019
   38MOL   O73428928   6.414   1.101   1.985  0.4320 -0.1536  0.3343
   38MOL   C73528929   6.282   1.044   1.787  0.1805 -0.6177  0.1379
   38MOL   C73628930   6.264   1.180   1.748 -0.0445  0.0019  0.4020
   38MOL   C73728931   6.194   1.206   1.626  0.2127  0.4730 -0.1781
   38MOL   C73828932   6.151   1.105   1.536  0.2348  0.2232  0.4422
   38MOL   C73928933   6.086   1.127   1.403 -0.4941 -0.6511  0.4415
   38MOL   O74028934   6.080   1.043   1.317 -0.5597  0.8113 -0.0063
   38MOL   O74128935   6.028   1.245   1.383  0.3098 -0.3264 -0.1203
   38MOL   C74228936   6.190   0.972   1.569 -0.3545 -0.1236  0.0165
   38MOL   C74328937   6.245   0.948   1.695  0.8438  0.4135 -0.3367
   38MOL   H74428938   6.619   0.741   2.214 -0.5586 -1.4837  2.0004
   38MOL   H74528939   6.523   0.601   2.190 -0.5784  0.4225  0.3008
   38MOL   H74628940   6.686   0.496   2.040 -0.7612  1.6382 -0.7043
   38MOL   H74728941   6.749   0.536   2.208 -0.1453  0.6892  0.9216
   38MOL   H74828942   6.832   0.744   2.115 -1.0162  0.8861  0.0031
   38MOL   H74928943   6.954   0.487   1.986  3.0316 -0.2673  0.9230
   38MOL   H75028944   6.974   0.536   2.144 -0.4814  0.1082  1.4854
   38MOL   H75128945   6.764   0.641   1.837  1.2699 -1.1236  0.1968
   38MOL   H75228946   6.849   0.775   1.856 -0.3647  0.0608 -0.5156
   38MOL   H75328947   6.676   0.901   1.983 -3.4869  0.7686 -0.5823
   38MOL   H75428948   6.617   0.837   1.841  1.0007  2.5793  0.1460
   38MOL   H75528949   6.485   0.670   1.957 -0.6647  0.6981  1.2573
   38MOL   H75628950   6.484   0.922   2.129  0.6884 -1.6640  0.4220
   38MOL   H75728951   6.358   0.808   2.135 -1.5006 -0.1687 -0.1650
   38MOL   H75828952   6.276   1.258   1.821 -2.8058  0.5786  0.3052
   38MOL   H75928953   6.180   1.311   1.605 -0.5359  0.3935 -0.0805
   38MOL   H76028954   6.173   0.887   1.504 -0.6641  0.2674 -0.4157
   38MOL   H76128955   6.266   0.843   1.702 -0.1479  0.3123  1.4419
   38MOL   H76228956   5.977   1.231   1.305  1.3332  2.4077 -1.3506
   39MOL     C128957   5.024   4.879   2.193  0.3961  0.4052  0.1863
   39MOL     C228958   5.062   4.744   2.120  0.0154  0.3493 -0.3414
   39MOL     C328959   5.206   4.697   2.144  0.2691  0.1077 -0.0837
   39MOL     C428960   5.228   4.581   2.053 -0.0111 -0.6923  0.0739
   39MOL     C528961   5.311   4.815   2.115  0.3343 -0.3407  0.1930
   39MOL     C628962   5.269   4.942   2.192 -0.3644  0.6309  0.5437
   39MOL     C728963   5.122   4.992   2.169 -0.4392  0.0492  0.1442
   39MOL     C828964   5.098   5.112   2.271 -0.3079 -0.0525  0.0658
   39MOL     O928965   4.985   5.183   2.235  0.0737  0.5203 -0.4930
   39MOL    C1028966   4.961   5.301   2.301 -0.8666  0.0659  0.1379
   39MOL    O1128967   5.043   5.355   2.376 -0.7605  0.4000  0.0129
   39MOL    C1228968   4.827   5.355   2.271 -0.2404  0.2713 -0.0767
   39MOL    C1328969   4.777   5.457   2.348 -0.1087  0.3767  0.4359
   39MOL    C1428970   4.650   5.512   2.320 -0.0342 -0.8130  0.1918
   39MOL    C1528971   4.568   5.452   2.221  0.0731  0.3587  0.5048
   39MOL    C1628972   4.430   5.491   2.191 -0.2877 -0.0444  0.2027
   39MOL    O1728973   4.356   5.429   2.112 -0.1471  0.1972 -0.0513
   39MOL    O1828974   4.396   5.603   2.257 -0.1712  0.0348  0.1702
   39MOL    C1928975   4.614   5.339   2.147  0.1105 -0.3698 -0.2978
   39MOL    C2028976   4.745   5.289   2.171 -0.1612 -0.1123  0.0512
   39MOL    H2128977   5.015   4.847   2.297  1.1201  2.5234  0.9146
   39MOL    H2228978   4.933   4.918   2.150  1.3145  1.3771 -0.9050
   39MOL    H2328979   5.053   4.763   2.013  2.6850 -0.5291 -0.7736
   39MOL    H2428980   4.992   4.664   2.147  1.1351 -0.3820  0.4573
   39MOL    H2528981   5.216   4.657   2.245 -2.6451 -0.4077  0.0249
   39MOL    H2628982   5.170   4.490   2.065  0.1857 -0.7066  0.9824
   39MOL    H2728983   5.330   4.548   2.070  0.5324  0.2955 -1.2576
   39MOL    H2828984   5.313   4.833   2.008 -0.0976 -2.3970 -0.1949
   39MOL    H2928985   5.410   4.785   2.149  0.2645  0.3583  1.0364
   39MOL    H3028986   5.281   4.930   2.299 -1.2825 -0.5558  0.5188
   39MOL    H3128987   5.336   5.025   2.166 -0.4170  0.3526 -0.5186
   39MOL    H3228988   5.110   5.033   2.068 -0.9409 -0.2445  0.0824
   39MOL    H3328989   5.182   5.182   2.268 -1.0988  0.8967 -0.1752
   39MOL    H3428990   5.075   5.073   2.370 -4.3002  1.7526 -0.0679
   39MOL    H3528991   4.841   5.499   2.424  0.9758 -0.9958  0.3080
   39MOL    H3628992   4.625   5.590   2.391  2.3548 -0.3386  0.5653
   39MOL    H3728993   4.555   5.293   2.069 -0.8951 -0.0918  0.2843
   39MOL    H3828994   4.783   5.208   2.110 -0.1120 -0.7236  0.8759
   39MOL    H3928995   5.240   4.605   1.948  2.1923  1.8289  0.8413
   39MOL    C4028996   3.889   5.600   2.389 -0.9491 -0.6921  0.2824
   39MOL    C4128997   4.006   5.650   2.292 -0.8216  0.8513  0.0529
   39MOL    C4228998   4.153   5.606   2.336 -0.1264 -0.1411  0.0713
   39MOL    C4328999   4.260   5.654   2.238  0.1182  0.6798  0.4050
   39MOL    C4429000   4.181   5.641   2.486  0.1630  0.3824  0.8997
   39MOL    C4529001   4.076   5.588   2.579  0.0695 -0.9121 -0.9867
   39MOL    C4629002   3.934   5.628   2.530 -0.0959 -0.0741  0.6948
   39MOL    C4729003   3.834   5.577   2.635 -0.2870 -0.3564 -0.4632
   39MOL    O4829004   3.855   5.442   2.676  0.1136  0.3734  0.3642
   39MOL    C4929005   3.764   5.350   2.635 -0.3544  0.6417 -0.3603
   39MOL    O5029006   3.651   5.377   2.595 -0.0301  0.5869 -0.2236
   39MOL    C5129007   3.814   5.217   2.643  0.1226  0.4161 -0.2419
   39MOL    C5229008   3.911   5.174   2.734 -0.3967  0.0679  0.7777
   39MOL    C5329009   3.962   5.044   2.723  0.5451  0.3239 -0.0091
   39MOL    C5429010   3.910   4.950   2.633  0.0658 -0.2069  0.0442
   39MOL    C5529011   3.954   4.806   2.629  0.5507 -0.3054  0.0053
   39MOL    O5629012   3.909   4.724   2.553 -0.5035 -0.2263  0.5366
   39MOL    O5729013   4.041   4.788   2.724 -0.5066 -0.0759 -0.2421
   39MOL    C5829014   3.809   4.995   2.547 -0.4212  0.7573 -0.0289
   39MOL    C5929015   3.758   5.124   2.555 -0.2446 -0.1143 -0.6858
   39MOL    H6029016   3.884   5.492   2.376  0.1205 -0.5974 -1.0277
   39MOL    H6129017   3.793   5.647   2.370 -0.2142  0.8310  0.2118
   39MOL    H6229018   3.996   5.756   2.272 -2.7803  0.6316 -0.2548
   39MOL    H6329019   3.991   5.607   2.193  1.0684 -0.1037  0.1505
   39MOL    H6429020   4.166   5.499   2.319  1.8753  0.1995 -0.7402
   39MOL    H6529021   4.248   5.761   2.253  0.1475  0.6297  0.8108
   39MOL    H6629022   4.225   5.628   2.139 -1.0222 -1.2112  1.2773
   39MOL    H6729023   4.201   5.747   2.503  2.7954  0.4774 -2.3367
   39MOL    H6829024   4.270   5.590   2.521  1.8469  1.7864 -1.2551
   39MOL    H6929025   4.078   5.479   2.584 -0.2433 -1.0307 -3.0407
   39MOL    H7029026   4.091   5.614   2.684  2.6514 -0.3513 -1.4664
   39MOL    H7129027   3.910   5.735   2.532 -1.5277 -0.2571 -2.9151
   39MOL    H7229028   3.736   5.598   2.591 -1.1361  0.0390  1.5812
   39MOL    H7329029   3.832   5.642   2.723 -0.8063 -0.4354 -0.4166
   39MOL    H7429030   3.958   5.244   2.801  0.9923  1.1077 -1.2358
   39MOL    H7529031   4.039   5.000   2.785 -1.9257 -1.2201  2.0548
   39MOL    H7629032   3.765   4.930   2.472 -0.0080  0.0118  0.3775
   39MOL    H7729033   3.681   5.161   2.490 -1.3919  0.8143  1.1585
   39MOL    C7829034   4.458   4.585   2.908  0.3049 -0.8752  0.2900
   39MOL    C7929035   4.331   4.573   2.819  0.5163 -0.1305 -0.2794
   39MOL    C8029036   4.245   4.691   2.820  0.4941 -0.1282  0.3990
   39MOL    C8129037   4.114   4.665   2.742  0.2540  0.1804  0.5076
   39MOL    C8229038   4.211   4.736   2.963 -0.0752 -0.3512 -0.3969
   39MOL    C8329039   4.343   4.755   3.040  0.2737  0.7375 -0.8240
   39MOL    C8429040   4.419   4.620   3.047 -0.2578  0.1357 -0.8666
   39MOL    C8529041   4.536   4.629   3.145 -0.4325  0.3713 -0.2455
   39MOL    O8629042   4.485   4.622   3.277  0.0236 -0.7120 -0.2550
   39MOL    C8729043   4.478   4.505   3.340 -0.1599 -1.0554 -0.1711
   39MOL    O8829044   4.526   4.401   3.296 -0.0834  0.6626  0.8448
   39MOL    C8929045   4.423   4.525   3.476  0.4518  0.7151  0.7223
   39MOL    C9029046   4.383   4.652   3.526 -0.2568 -0.3690 -0.9556
   39MOL    C9129047   4.334   4.668   3.653 -0.6358  0.1492 -0.0543
   39MOL    C9229048   4.319   4.554   3.738 -0.2569 -0.4949  0.0036
   39MOL    C9329049   4.249   4.571   3.868 -0.4111  0.3831 -0.3705
   39MOL    O9429050   4.242   4.679   3.931 -0.2851  0.0449  0.1010
   39MOL    O9529051   4.199   4.455   3.910  0.4293 -0.3640 -0.1577
   39MOL    C9629052   4.362   4.431   3.697 -0.0089 -0.2661 -0.8008
   39MOL    C9729053   4.414   4.414   3.566  0.1877  0.4399 -0.4656
   39MOL    H9829054   4.526   4.664   2.874 -0.5283  1.0889  3.0731
   39MOL    H9929055   4.518   4.494   2.908 -1.2010 -1.8702  0.4237
   39MOL   H10029056   4.272   4.490   2.859  0.0224 -0.2362 -1.2142
   39MOL   H10129057   4.368   4.552   2.719  0.6020  0.3390 -0.3470
   39MOL   H10229058   4.307   4.766   2.772 -0.5528 -0.3128 -1.3418
   39MOL   H10329059   4.044   4.611   2.805 -0.1993  1.2131  0.9023
   39MOL   H10429060   4.139   4.618   2.647 -0.0253  2.1518 -0.5664
   39MOL   H10529061   4.143   4.659   2.998  0.1713 -0.9460 -1.2213
   39MOL   H10629062   4.156   4.830   2.951  1.6753  0.5887 -1.2846
   39MOL   H10729063   4.411   4.833   3.006  1.5759  1.6903  3.6482
   39MOL   H10829064   4.314   4.783   3.141  2.3756 -2.1356  0.6696
   39MOL   H10929065   4.346   4.550   3.088 -1.1235  1.2027 -0.5663
   39MOL   H11029066   4.592   4.721   3.127 -1.2108  0.7049 -1.0180
   39MOL   H11129067   4.609   4.548   3.134  0.5541  1.2044  0.1326
   39MOL   H11229068   4.386   4.739   3.461  1.7875 -0.9830 -1.7331
   39MOL   H11329069   4.296   4.765   3.681  0.2636  0.2978  0.6822
   39MOL   H11429070   4.350   4.342   3.758 -0.5869 -0.9375 -1.8713
   39MOL   H11529071   4.451   4.315   3.543  0.6736  0.2862  0.9321
   39MOL   C11629072   3.921   4.155   4.192  0.4946  0.9441  0.1619
   39MOL   C11729073   3.954   4.299   4.155  0.2882 -0.4438  0.2642
   39MOL   C11829074   4.081   4.305   4.070  0.4544 -0.0927  0.1878
   39MOL   C11929075   4.107   4.447   4.020 -0.1677  0.2203 -0.1724
   39MOL   C12029076   4.199   4.246   4.151 -0.1094  0.4382  0.8461
   39MOL   C12129077   4.166   4.099   4.193 -0.7971 -0.6864 -0.0249
   39MOL   C12229078   4.031   4.088   4.277 -0.3137 -0.3158  0.1829
   39MOL   C12329079   3.996   3.940   4.306  0.1167 -0.2949  0.0492
   39MOL   O12429080   4.088   3.890   4.402  1.1089  0.2102  0.3072
   39MOL   C12529081   4.042   3.831   4.518  0.1135  0.0481  0.5553
   39MOL   O12629082   3.926   3.818   4.548 -0.2919 -0.2288  0.3615
   39MOL   C12729083   4.151   3.789   4.604  0.4300 -0.2977 -0.3146
   39MOL   C12829084   4.278   3.850   4.597 -0.2657  0.3865  0.6500
   39MOL   C12929085   4.371   3.822   4.686  0.0683 -0.3827  0.3049
   39MOL   C13029086   4.356   3.721   4.786  0.6330 -0.2891  0.6171
   39MOL   C13129087   4.461   3.691   4.882 -0.6502  0.0396  0.2036
   39MOL   O13229088   4.564   3.760   4.890 -0.2526  0.0886  0.3271
   39MOL   O13329089   4.440   3.590   4.969 -0.1937 -0.4698 -0.6761
   39MOL   C13429090   4.229   3.654   4.790 -0.1330 -0.5263  0.0636
   39MOL   C13529091   4.127   3.691   4.699 -0.8651  0.5174 -0.0314
   39MOL   H13629092   3.889   4.086   4.113  1.3882  0.9182 -0.1798
   39MOL   H13729093   3.835   4.160   4.259  0.1798  0.8618 -0.2332
   39MOL   H13829094   3.969   4.345   4.253 -0.0715  2.7448 -1.1110
   39MOL   H13929095   3.875   4.361   4.112  1.5828  0.4464 -0.8697
   39MOL   H14029096   4.076   4.246   3.978  1.2887  0.6589 -0.3527
   39MOL   H14129097   4.138   4.507   4.106 -0.7667  0.4225 -0.0930
   39MOL   H14229098   4.011   4.479   3.980 -0.1685 -0.3060 -0.5908
   39MOL   H14329099   4.213   4.295   4.247  0.8622 -1.9494  1.9522
   39MOL   H14429100   4.289   4.247   4.089  0.3674 -1.1896  1.4778
   39MOL   H14529101   4.150   4.042   4.102 -1.1435 -1.5275  0.5433
   39MOL   H14629102   4.242   4.044   4.249 -1.5672 -1.0383  0.7029
   39MOL   H14729103   4.047   4.149   4.366 -0.6605  0.2359 -0.1262
   39MOL   H14829104   4.015   3.877   4.219  1.8262  1.0428 -0.6016
   39MOL   H14929105   3.894   3.934   4.343 -0.2539  1.0059 -0.7196
   39MOL   H15029106   4.311   3.922   4.524  0.7352 -0.4666  0.2459
   39MOL   H15129107   4.464   3.877   4.682  1.3766 -2.5998 -0.1822
   39MOL   H15229108   4.211   3.579   4.865  1.7256 -0.2727  0.8115
   39MOL   H15329109   4.028   3.652   4.720 -1.0998  1.5698  0.8476
   39MOL   C15429110   4.517   3.822   5.324  0.2399 -0.6080 -0.0580
   39MOL   C15529111   4.524   3.763   5.187  0.3488 -0.5123  0.1824
   39MOL   C15629112   4.524   3.602   5.195 -0.0798  0.5008 -0.1766
   39MOL   C15729113   4.536   3.539   5.062  0.6873 -0.0332 -0.0061
   39MOL   C15829114   4.637   3.551   5.291  0.6320 -0.2609  0.2906
   39MOL   C15929115   4.645   3.634   5.426  0.0680 -0.1184 -0.1461
   39MOL   C16029116   4.644   3.786   5.400 -0.1767  0.2646  0.5208
   39MOL   C16129117   4.645   3.869   5.525  0.2665  0.6921 -0.4162
   39MOL   O16229118   4.571   3.811   5.631 -0.3338 -0.0850  0.2969
   39MOL   C16329119   4.605   3.831   5.756  0.1116  0.5761 -0.3685
   39MOL   O16429120   4.692   3.908   5.793 -0.0346  0.2791  0.1007
   39MOL   C16529121   4.532   3.735   5.844 -0.4141 -0.4207 -0.3752
   39MOL   C16629122   4.427   3.649   5.799  0.3468 -0.0273  0.0476
   39MOL   C16729123   4.349   3.571   5.893 -0.1027  1.0975 -0.7973
   39MOL   C16829124   4.390   3.570   6.026  0.3842 -0.0236 -0.9219
   39MOL   C16929125   4.323   3.487   6.135 -0.4570  0.1626  0.5776
   39MOL   O17029126   4.383   3.476   6.246 -0.3764 -0.2629 -0.7467
   39MOL   O17129127   4.206   3.449   6.113  0.2403 -0.5047  0.2326
   39MOL   C17229128   4.497   3.655   6.068  0.3339  0.2039  0.0088
   39MOL   C17329129   4.560   3.742   5.981  0.4342  0.6324 -0.0751
   39MOL   H17429130   4.423   3.794   5.372  0.7941  0.1503  1.5076
   39MOL   H17529131   4.506   3.930   5.311  1.5849 -0.3041  1.1596
   39MOL   H17629132   4.612   3.808   5.140 -0.0183  0.8159  0.7232
   39MOL   H17729133   4.446   3.809   5.126  0.0745  0.0651  0.9593
   39MOL   H17829134   4.434   3.563   5.243  0.3562  1.3338  1.3639
   39MOL   H17929135   4.519   3.433   5.081 -3.0419  0.7170  1.1891
   39MOL   H18029136   4.638   3.553   5.026  0.6997  3.5372  1.2464
   39MOL   H18129137   4.733   3.552   5.239  0.1315  0.5556 -0.6401
   39MOL   H18229138   4.616   3.449   5.324 -0.5584 -0.6937 -1.7390
   39MOL   H18329139   4.561   3.604   5.488  0.0970  0.0460 -0.0283
   39MOL   H18429140   4.736   3.605   5.479  1.2425  1.1467 -1.4320
   39MOL   H18529141   4.731   3.800   5.336 -0.3950  0.8865  0.3598
   39MOL   H18629142   4.609   3.972   5.518 -1.1022  0.5857  3.6390
   39MOL   H18729143   4.751   3.883   5.547  0.3941 -0.1081 -0.5051
   39MOL   H18829144   4.397   3.656   5.696 -2.0874 -1.6884  0.5906
   39MOL   H18929145   4.265   3.511   5.861 -0.1699  0.0985  1.1546
   39MOL   H19029146   4.524   3.654   6.173  0.4754 -0.9376 -0.0276
   39MOL   H19129147   4.637   3.806   6.021  2.6973 -2.3057  0.4241
   39MOL   C19229148   3.903   3.568   6.497 -0.2504 -0.0897 -0.2305
   39MOL   C19329149   3.959   3.451   6.410 -0.3401 -0.7301  0.2813
   39MOL   C19429150   4.054   3.505   6.303 -0.0055 -0.1299  1.0663
   39MOL   C19529151   4.126   3.398   6.219  0.6898 -0.5728 -0.0324
   39MOL   C19629152   3.980   3.604   6.216  0.2382  0.0631 -0.6746
   39MOL   C19729153   3.916   3.719   6.292  0.1167  0.2106  0.1654
   39MOL   C19829154   3.826   3.673   6.420  0.0179  0.1507  0.7106
   39MOL   C19929155   3.785   3.782   6.514 -0.5694 -0.0126 -0.5189
   39MOL   O20029156   3.701   3.875   6.453 -0.1021  0.3261  0.3409
   39MOL   C20129157   3.568   3.870   6.471  0.0521  0.2519  0.1748
   39MOL   O20229158   3.503   3.780   6.529  0.2618 -0.0536 -0.0502
   39MOL   C20329159   3.509   3.995   6.416 -0.6154 -0.1119 -0.4547
   39MOL   C20429160   3.579   4.075   6.319  0.4821  0.7617 -0.0581
   39MOL   C20529161   3.514   4.185   6.257 -0.3217  0.2071  0.1917
   39MOL   C20629162   3.381   4.219   6.297  0.2388 -0.9426  0.0933
   39MOL   C20729163   3.318   4.338   6.247 -0.6210 -0.8018  0.6595
   39MOL   O20829164   3.196   4.366   6.265  0.4871  0.4275  0.2123
   39MOL   O20929165   3.413   4.413   6.182  0.5267 -0.2867  0.6781
   39MOL   C21029166   3.323   4.144   6.402 -0.1560  0.2584  0.3349
   39MOL   C21129167   3.378   4.028   6.453  0.3499  0.5319  0.2315
   39MOL   H21229168   3.985   3.602   6.561  0.4327 -0.8624 -0.6938
   39MOL   H21329169   3.834   3.518   6.565 -0.6146  1.6371  0.7158
   39MOL   H21429170   3.882   3.402   6.350  1.0360  0.8371 -2.8638
   39MOL   H21529171   4.012   3.372   6.463  0.8441 -1.5945 -2.1243
   39MOL   H21629172   4.133   3.566   6.347 -1.5489  2.5112  0.2562
   39MOL   H21729173   4.067   3.318   6.174 -2.2251  0.9524  0.9209
   39MOL   H21829174   4.181   3.344   6.297 -0.1741 -1.3461  0.0566
   39MOL   H21929175   3.904   3.544   6.166  1.4703 -1.2563 -0.9725
   39MOL   H22029176   4.036   3.646   6.133  1.0700 -3.0048 -1.7087
   39MOL   H22129177   3.991   3.793   6.322  1.3636 -0.3358 -1.5424
   39MOL   H22229178   3.850   3.770   6.223  0.2814 -0.7382 -0.6903
   39MOL   H22329179   3.740   3.627   6.370  1.3268 -3.4759  1.6124
   39MOL   H22429180   3.883   3.821   6.542  0.4283 -1.2608 -2.1952
   39MOL   H22529181   3.743   3.730   6.600 -0.4567  0.2530 -0.3006
   39MOL   H22629182   3.677   4.050   6.281  1.1256 -0.6366  2.4467
   39MOL   H22729183   3.567   4.230   6.175 -0.1292 -1.9173 -0.8710
   39MOL   H22829184   3.225   4.171   6.438  0.4945  2.3097  0.6674
   39MOL   H22929185   3.338   3.975   6.538 -1.4069  0.3907 -0.6529
   39MOL   C23029186   3.288   4.358   5.756 -0.5036  0.0728 -1.0749
   39MOL   C23129187   3.363   4.375   5.896  0.2959  0.2735  0.2250
   39MOL   C23229188   3.311   4.505   5.967 -0.1090  0.4662  0.2059
   39MOL   C23329189   3.370   4.525   6.107  0.6858  0.1483  0.3732
   39MOL   C23429190   3.323   4.635   5.880 -0.1107 -0.5556  0.7585
   39MOL   C23529191   3.248   4.612   5.753  0.9333  0.1160  0.3429
   39MOL   C23629192   3.295   4.490   5.674  0.3892 -0.2571  0.4435
   39MOL   C23729193   3.227   4.469   5.537 -0.2991  0.2426 -0.0829
   39MOL   O23829194   3.090   4.459   5.550 -0.2879 -0.3067 -0.1553
   39MOL   C23929195   3.019   4.420   5.446  0.0916 -0.2013  0.4083
   39MOL   O24029196   3.065   4.404   5.330 -0.4934 -0.3563 -0.5409
   39MOL   C24129197   2.877   4.392   5.488  0.1993 -0.2381  0.5381
   39MOL   C24229198   2.779   4.385   5.390  0.4136 -0.4050  0.7569
   39MOL   C24329199   2.647   4.365   5.429  0.7731 -0.0424  0.1478
   39MOL   C24429200   2.612   4.327   5.564  0.3324 -0.3222 -0.1313
   39MOL   C24529201   2.469   4.297   5.588  0.3949 -0.2617  0.1710
   39MOL   O24629202   2.381   4.299   5.502  0.0518  0.3746 -0.1251
   39MOL   O24729203   2.446   4.261   5.713  0.1770  0.6654  0.3194
   39MOL   C24829204   2.711   4.334   5.659  0.2179  0.3837  0.5213
   39MOL   C24929205   2.841   4.375   5.622 -0.3250 -0.1110 -1.1560
   39MOL   H25029206   3.182   4.357   5.781 -0.3705  1.5370 -0.3709
   39MOL   H25129207   3.322   4.265   5.712 -0.6567 -1.0159  1.0649
   39MOL   H25229208   3.468   4.390   5.874 -0.1660  2.8968 -0.3783
   39MOL   H25329209   3.362   4.282   5.952  2.1778  0.1887  0.1387
   39MOL   H25429210   3.208   4.477   5.986 -0.0096 -0.3793 -0.4739
   39MOL   H25529211   3.307   4.593   6.165 -0.4338  0.4663 -1.1968
   39MOL   H25629212   3.457   4.589   6.095 -0.6802  2.2840  1.4496
   39MOL   H25729213   3.425   4.663   5.855 -0.0409 -0.7185  0.8617
   39MOL   H25829214   3.273   4.719   5.928 -0.9149 -0.2110 -0.6688
   39MOL   H25929215   3.143   4.603   5.783  1.0427  1.3122  1.1306
   39MOL   H26029216   3.259   4.705   5.696  0.1675 -0.9560 -1.6050
   39MOL   H26129217   3.399   4.515   5.652  0.3586  0.0369  0.6257
   39MOL   H26229218   3.268   4.377   5.496  1.0969 -0.1338  2.0293
   39MOL   H26329219   3.242   4.545   5.461 -0.2074 -0.4344 -0.7480
   39MOL   H26429220   2.803   4.412   5.288  0.9827  0.7266  1.1803
   39MOL   H26529221   2.571   4.373   5.353  0.1100  3.0963  1.0868
   39MOL   H26629222   2.696   4.317   5.765  0.2852 -2.8803  0.0663
   39MOL   H26729223   2.915   4.396   5.697 -1.9621  0.9481  0.1921
   39MOL   C26829224   2.208   3.896   5.650  0.0333  0.7761 -0.5976
   39MOL   C26929225   2.244   4.049   5.639 -0.5530  0.2689 -0.2913
   39MOL   C27029226   2.268   4.110   5.776  0.1060 -0.2225  0.1559
   39MOL   C27129227   2.316   4.254   5.766 -1.2624  0.6857 -0.1626
   39MOL   C27229228   2.140   4.083   5.861  0.4385  0.3898 -0.8613
   39MOL   C27329229   2.097   3.934   5.879  0.2854 -0.7023 -0.1478
   39MOL   C27429230   2.077   3.878   5.737 -0.5447  0.8132 -0.4774
   39MOL   C27529231   2.033   3.728   5.739  0.7569 -0.3942  0.2626
   39MOL   O27629232   1.947   3.691   5.627  0.5963 -0.2943 -0.1907
   39MOL   C27729233   2.001   3.638   5.515 -0.4373 -0.6394  0.6293
   39MOL   O27829234   2.119   3.616   5.503  0.3111 -0.1572  0.0960
   39MOL   C27929235   1.897   3.620   5.414  0.3480 -0.5016 -0.4470
   39MOL   C28029236   1.930   3.546   5.303 -0.1966 -0.2121  0.6888
   39MOL   C28129237   1.846   3.543   5.190 -0.2181  0.7937  0.0691
   39MOL   C28229238   1.718   3.603   5.199  0.1480 -0.5285  0.4041
   39MOL   C28329239   1.617   3.612   5.082  0.5049 -0.4921  0.1313
   39MOL   O28429240   1.499   3.633   5.100  0.1368  0.3754  0.5160
   39MOL   O28529241   1.660   3.604   4.958  0.9685  0.4784  0.5303
   39MOL   C28629242   1.676   3.660   5.320  0.1623 -0.1971 -0.0942
   39MOL   C28729243   1.763   3.667   5.431 -0.1205 -0.2692  0.5520
   39MOL   H28829244   2.282   3.829   5.694 -2.5200 -2.5630 -1.1420
   39MOL   H28929245   2.190   3.857   5.549  0.0667 -1.6692  0.2993
   39MOL   H29029246   2.158   4.102   5.597 -1.9050 -2.6285 -1.2775
   39MOL   H29129247   2.332   4.060   5.574  2.1637  0.9801  3.3611
   39MOL   H29229248   2.346   4.052   5.825 -2.5556 -2.1977  2.2345
   39MOL   H29329249   2.307   4.304   5.863  1.9473  0.4122  0.3315
   39MOL   H29429250   2.238   4.295   5.703 -1.2511 -1.2494 -1.4754
   39MOL   H29529251   2.058   4.145   5.826 -1.2854 -1.6097 -0.4850
   39MOL   H29629252   2.161   4.118   5.962 -1.2949 -2.9822  0.7320
   39MOL   H29729253   2.182   3.883   5.924 -0.2031 -1.5918 -0.2118
   39MOL   H29829254   2.003   3.921   5.932  1.2392  0.4941  1.8892
   39MOL   H29929255   2.004   3.946   5.693  0.8441  2.1856 -0.7315
   39MOL   H30029256   1.964   3.722   5.824  0.8665  1.1922  0.4683
   39MOL   H30129257   2.117   3.663   5.766 -0.1414 -1.4923  0.4751
   39MOL   H30229258   2.023   3.492   5.295  0.7546  1.5137 -0.4065
   39MOL   H30329259   1.877   3.492   5.101 -0.5879  2.7816 -1.2342
   39MOL   H30429260   1.576   3.701   5.323 -0.2822 -1.1591 -1.4711
   39MOL   H30529261   1.726   3.707   5.525  3.1987  0.1239  1.7758
   39MOL   C30629262   1.866   3.787   4.629  0.6142 -0.2456 -0.0792
   39MOL   C30729263   1.786   3.681   4.712 -0.0393  0.3350  0.0036
   39MOL   C30829264   1.650   3.738   4.754  1.5410  1.1073  0.7528
   39MOL   C30929265   1.576   3.632   4.844  0.5586  0.8316 -0.4666
   39MOL   C31029266   1.650   3.879   4.817  0.6001  0.8668 -0.7288
   39MOL   C31129267   1.752   3.966   4.758 -0.0936  0.5016  0.7634
   39MOL   C31229268   1.890   3.895   4.730 -0.8051 -0.2124  0.1771
   39MOL   C31329269   1.967   4.009   4.666 -0.4424 -0.3779 -0.0987
   39MOL   O31429270   1.994   4.130   4.736 -0.1103  0.7191  0.1928
   39MOL   C31529271   2.102   4.206   4.710 -0.1494  0.7664 -1.5098
   39MOL   O31629272   2.167   4.192   4.611 -0.3008 -0.0112 -0.4750
   39MOL   C31729273   2.125   4.317   4.811 -0.8472  0.1894  0.0756
   39MOL   C31829274   2.029   4.323   4.915  0.1584  0.2744  0.2532
   39MOL   C31929275   2.058   4.399   5.033 -0.1925  0.0218 -0.0319
   39MOL   C32029276   2.177   4.470   5.045  0.3783  0.1084 -0.1422
   39MOL   C32129277   2.213   4.536   5.167 -0.0033 -0.3759  0.5743
   39MOL   O32229278   2.304   4.613   5.181  0.2063  0.1712 -0.1231
   39MOL   O32329279   2.140   4.497   5.266 -0.0013  0.4573  0.1138
   39MOL   C32429280   2.269   4.471   4.942  0.2804  1.0815 -0.3361
   39MOL   C32529281   2.243   4.392   4.826 -0.1779 -0.1426 -0.1060
   39MOL   H32629282   1.807   3.837   4.552 -0.9428 -1.2587  0.4387
   39MOL   H32729283   1.960   3.742   4.597  0.5113 -0.1236 -0.5544
   39MOL   H32829284   1.842   3.663   4.804 -1.6347  0.8032  1.0957
   39MOL   H32929285   1.773   3.584   4.664  0.2817 -0.3419  1.2609
   39MOL   H33029286   1.596   3.737   4.660 -0.0231 -3.6869  1.5829
   39MOL   H33129287   1.555   3.541   4.787 -2.6596  1.1034  0.1906
   39MOL   H33229288   1.480   3.678   4.867 -0.0732 -0.2652 -0.8542
   39MOL   H33329289   1.656   3.873   4.925  1.3717 -1.6988 -0.8735
   39MOL   H33429290   1.550   3.922   4.803 -0.2616 -0.8990 -0.1162
   39MOL   H33529291   1.709   4.000   4.664  0.9184  0.8506  0.4122
   39MOL   H33629292   1.759   4.057   4.817  0.2871  1.9498 -1.4498
   39MOL   H33729293   1.958   3.865   4.810  0.2086 -1.2722 -1.0645
   39MOL   H33829294   1.915   4.044   4.577 -3.5561 -0.5543  1.5994
   39MOL   H33929295   2.062   3.964   4.636  0.6766  1.4954  0.4977
   39MOL   H34029296   1.935   4.270   4.912 -1.0351  2.3881 -0.7964
   39MOL   H34129297   1.989   4.414   5.115  3.6207  0.5771  3.2731
   39MOL   H34229298   2.357   4.532   4.942  0.6813  0.5077 -0.1127
   39MOL   H34329299   2.315   4.384   4.746 -1.1101 -0.4957 -0.9206
   39MOL   C34429300   1.813   4.491   5.572 -0.0764  0.1213  0.6507
   39MOL   C34529301   1.911   4.534   5.462  0.0328 -0.2673  0.0373
   39MOL   C34629302   2.057   4.505   5.500  0.4297 -0.3569  0.8763
   39MOL   C34729303   2.162   4.549   5.393 -0.0285 -0.1072  0.3011
   39MOL   C34829304   2.088   4.560   5.638 -0.2912  0.6135  0.2416
   39MOL   C34929305   1.996   4.529   5.753  0.4673  0.0967 -0.4499
   39MOL   C35029306   1.850   4.564   5.706  0.1318 -0.1544  0.0198
   39MOL   C35129307   1.747   4.556   5.809 -0.2512  0.6596  0.1079
   39MOL   O35229308   1.735   4.418   5.844  0.1084 -0.0889 -0.1338
   39MOL   C35329309   1.638   4.380   5.917  1.0013  0.3379 -0.9144
   39MOL   O35429310   1.556   4.456   5.979 -0.4548  0.6494 -0.5413
   39MOL   C35529311   1.627   4.236   5.939  0.8004  0.4223 -0.0136
   39MOL   C35629312   1.534   4.190   6.033 -0.1348 -0.2388 -0.0210
   39MOL   C35729313   1.528   4.049   6.058  0.1309 -0.0977 -0.7237
   39MOL   C35829314   1.601   3.955   5.984  0.0424  0.6985  0.1631
   39MOL   C35929315   1.589   3.815   6.021  0.5326 -0.2230  0.4828
   39MOL   O36029316   1.491   3.766   6.069  0.3938  0.4355 -0.2139
   39MOL   O36129317   1.697   3.742   5.987  0.1822 -0.2120  0.6102
   39MOL   C36229318   1.696   4.008   5.887 -0.1110  0.2156  0.1287
   39MOL   C36329319   1.712   4.147   5.878 -0.1652 -1.1758  0.2405
   39MOL   H36429320   1.826   4.383   5.581  2.0040  0.4805  2.3221
   39MOL   H36529321   1.709   4.516   5.548 -0.7377 -2.1902  1.0248
   39MOL   H36629322   1.910   4.640   5.437  2.8865 -0.8297 -2.8116
   39MOL   H36729323   1.882   4.480   5.371 -0.3997  1.0309 -0.6196
   39MOL   H36829324   2.065   4.397   5.511 -2.4495 -0.5557  1.3558
   39MOL   H36929325   2.264   4.536   5.427  0.4476 -0.0129 -1.0760
   39MOL   H37029326   2.138   4.655   5.391 -4.0735 -0.9183 -0.2749
   39MOL   H37129327   2.113   4.666   5.637  0.3924  0.4425 -1.4941
   39MOL   H37229328   2.191   4.532   5.663  0.1124  1.9539  0.1401
   39MOL   H37329329   1.997   4.425   5.787  2.7856 -0.0141 -0.7462
   39MOL   H37429330   2.019   4.588   5.842 -1.4344  0.8116 -0.4062
   39MOL   H37529331   1.852   4.667   5.672  1.7624 -1.2731 -3.5102
   39MOL   H37629332   1.651   4.584   5.767  0.5173 -0.7653 -2.7045
   39MOL   H37729333   1.779   4.617   5.893  0.9079 -0.7184  0.6836
   39MOL   H37829334   1.474   4.263   6.086 -0.3322  0.1057 -0.7094
   39MOL   H37929335   1.463   4.014   6.137 -1.7192  2.4621 -1.0534
   39MOL   H38029336   1.766   3.943   5.837 -0.2162 -0.1206  0.4232
   39MOL   H38129337   1.785   4.185   5.807 -0.5426 -1.2029 -0.1629
   39MOL   C38229338   1.565   3.279   5.874 -0.1496  0.6605  0.2340
   39MOL   C38329339   1.641   3.381   5.966 -0.0366 -0.1108 -0.0499
   39MOL   C38429340   1.632   3.523   5.911 -0.4529  0.3211 -0.4293
   39MOL   C38529341   1.701   3.608   6.021  0.3168  0.2312 -0.7676
   39MOL   C38629342   1.707   3.516   5.769  0.0471 -0.4093 -0.3848
   39MOL   C38729343   1.635   3.419   5.673 -0.2135 -0.4451 -0.2474
   39MOL   C38829344   1.628   3.279   5.729 -0.5035  0.2456 -0.3932
   39MOL   C38929345   1.539   3.192   5.637  0.0557  0.1035 -0.4109
   39MOL   O39029346   1.570   3.051   5.659 -0.3019  0.3303  0.2490
   39MOL   C39129347   1.480   2.959   5.602  0.3457 -0.1476  0.6727
   39MOL   O39229348   1.376   2.996   5.540  0.0851  0.3816  0.1428
   39MOL   C39329349   1.525   2.818   5.616 -0.3558  1.2075 -0.9959
   39MOL   C39429350   1.653   2.794   5.682 -0.3447  0.7253  0.2219
   39MOL   C39529351   1.702   2.662   5.695  0.0484  0.2702  0.6274
   39MOL   C39629352   1.626   2.556   5.644 -0.2171 -0.0072  0.2657
   39MOL   C39729353   1.688   2.420   5.653 -0.6304 -0.0392 -0.6484
   39MOL   O39829354   1.782   2.393   5.722  0.3475 -0.3840  0.4353
   39MOL   O39929355   1.624   2.330   5.577  0.0823  0.1554 -0.0010
   39MOL   C40029356   1.501   2.577   5.582 -0.3247  0.0170 -0.2224
   39MOL   C40129357   1.450   2.709   5.564  0.9931 -0.1976 -0.3052
   39MOL   H40229358   1.460   3.308   5.875 -1.7311 -4.3527 -2.5870
   39MOL   H40329359   1.555   3.179   5.918  0.4233  0.4093 -0.2120
   39MOL   H40429360   1.737   3.343   6.001  0.0910 -0.1836 -0.4770
   39MOL   H40529361   1.582   3.377   6.058 -1.6981 -3.1064 -1.1605
   39MOL   H40629362   1.528   3.555   5.899 -0.3251  0.0540 -2.2978
   39MOL   H40729363   1.807   3.585   6.028  0.0955 -0.8320 -0.9778
   39MOL   H40829364   1.669   3.592   6.124 -2.0127 -2.1695 -1.8216
   39MOL   H40929365   1.811   3.494   5.796 -0.3967  2.7284  4.5366
   39MOL   H41029366   1.713   3.620   5.737  0.3282  0.0247  1.0153
   39MOL   H41129367   1.537   3.459   5.646  1.2194  1.4770 -2.8654
   39MOL   H41229368   1.695   3.415   5.582 -1.6599 -2.2484 -1.1470
   39MOL   H41329369   1.730   3.240   5.730  0.3425  2.3305  2.6815
   39MOL   H41429370   1.552   3.208   5.530 -0.3492 -1.1331 -0.6577
   39MOL   H41529371   1.432   3.198   5.657  0.5633  1.7096  2.0032
   39MOL   H41629372   1.703   2.878   5.727  0.1135  0.1349  0.8255
   39MOL   H41729373   1.793   2.653   5.752 -0.2962  0.1275  1.1668
   39MOL   H41829374   1.444   2.496   5.540 -3.2466  1.8384  0.0797
   39MOL   H41929375   1.362   2.725   5.504  0.8375 -1.8298 -0.5174
   39MOL   C42029376   1.541   1.919   5.314  0.0614 -0.2661  0.0570
   39MOL   C42129377   1.621   1.980   5.429  0.7336  0.0599 -0.1068
   39MOL   C42229378   1.585   2.131   5.451  0.1306  1.3472 -0.7481
   39MOL   C42329379   1.666   2.193   5.570  0.1036 -0.4675 -0.8230
   39MOL   C42429380   1.606   2.210   5.316  0.1726  0.6656  0.0383
   39MOL   C42529381   1.541   2.140   5.193  0.2160  0.3266 -0.1185
   39MOL   C42629382   1.583   1.992   5.189 -0.1504 -0.7576 -0.2681
   39MOL   C42729383   1.529   1.923   5.065 -0.5643  0.2938 -0.2238
   39MOL   O42829384   1.389   1.938   5.049 -0.2813  0.6571 -0.4893
   39MOL   C42929385   1.322   1.847   4.968  0.6502 -0.3394 -0.5173
   39MOL   O43029386   1.377   1.751   4.915 -0.3962  0.6408  0.1555
   39MOL   C43129387   1.184   1.882   4.942  0.6522  0.3782  0.4573
   39MOL   C43229388   1.093   1.777   4.911 -1.0058 -0.2230  0.3292
   39MOL   C43329389   0.959   1.807   4.885 -0.3297 -0.0231  0.2780
   39MOL   C43429390   0.910   1.937   4.899 -1.3041 -0.5206 -0.5718
   39MOL   C43529391   0.766   1.966   4.862  0.0407  0.6058  0.2085
   39MOL   O43629392   0.688   1.878   4.828 -0.4630  0.5029  0.0231
   39MOL   O43729393   0.732   2.094   4.862 -0.2303  0.0552 -0.0898
   39MOL   C43829394   1.000   2.043   4.916  0.1661  0.1495  0.1546
   39MOL   C43929395   1.134   2.016   4.952 -0.0347  0.2628 -0.3689
   39MOL   H44029396   1.436   1.936   5.337  0.2442  0.7804  0.1650
   39MOL   H44129397   1.554   1.811   5.312  0.2288 -0.2223 -1.5511
   39MOL   H44229398   1.724   1.959   5.398  1.1826  1.2543  0.5429
   39MOL   H44329399   1.604   1.938   5.528 -2.7843  1.9994  0.2014
   39MOL   H44429400   1.478   2.139   5.472  0.8026  3.5050  2.0506
   39MOL   H44529401   1.774   2.176   5.568  0.1298 -1.1468  2.7057
   39MOL   H44629402   1.625   2.149   5.661  1.3309 -0.4067 -0.2304
   39MOL   H44729403   1.712   2.225   5.293  0.3633 -2.2535 -1.1356
   39MOL   H44829404   1.565   2.311   5.321  1.5230  1.3135 -1.3918
   39MOL   H44929405   1.432   2.138   5.202  0.2026 -2.0171 -0.5391
   39MOL   H45029406   1.565   2.189   5.098 -1.0501  0.5611 -0.3257
   39MOL   H45129407   1.692   1.998   5.188 -0.2408  1.0902 -0.1207
   39MOL   H45229408   1.556   1.817   5.068 -1.2722  0.0980 -0.5391
   39MOL   H45329409   1.579   1.947   4.971 -1.8384  0.2255 -0.9294
   39MOL   H45429410   1.135   1.678   4.905  0.7202  0.4525  0.7501
   39MOL   H45529411   0.893   1.727   4.856  0.7556 -1.2818  1.2171
   39MOL   H45629412   0.972   2.147   4.918 -1.3991 -0.2832  1.3537
   39MOL   H45729413   1.198   2.100   4.978  0.7980 -0.3763 -0.3099
   39MOL   C45829414   0.609   2.169   4.445  0.1170 -0.1754 -0.3586
   39MOL   C45929415   0.651   2.175   4.593  0.6551 -0.2521 -0.2220
   39MOL   C46029416   0.549   2.115   4.692 -0.1478 -0.3014  0.1010
   39MOL   C46129417   0.598   2.141   4.841  0.5530  0.5532  0.3621
   39MOL   C46229418   0.407   2.186   4.673 -0.2345  0.1907  0.2827
   39MOL   C46329419   0.360   2.188   4.527  0.3370 -0.2581 -0.2921
   39MOL   C46429420   0.473   2.238   4.428  0.0288 -0.1499  0.0461
   39MOL   C46529421   0.423   2.249   4.281  0.5032  0.4178 -0.0988
   39MOL   O46629422   0.404   2.118   4.224 -0.5845 -0.0533  0.0974
   39MOL   C46729423   0.354   2.112   4.101 -0.2802  0.0370  0.1360
   39MOL   O46829424   0.307   2.202   4.040  0.2719 -0.0236 -0.1609
   39MOL   C46929425   0.358   1.965   4.055 -0.1660  0.3747  0.3445
   39MOL   C47029426   0.341   1.933   3.922  0.5282  0.6205  0.7913
   39MOL   C47129427   0.351   1.799   3.872 -1.0329  0.2216 -0.5336
   39MOL   C47229428   0.383   1.695   3.957 -0.6058 -0.0917 -1.2538
   39MOL   C47329429   0.396   1.559   3.904 -0.1548  0.2365 -0.1134
   39MOL   O47429430   0.431   1.470   3.980 -0.1372  0.4231  0.0617
   39MOL   O47529431   0.370   1.548   3.780  0.8424 -0.1145  0.3272
   39MOL   C47629432   0.399   1.722   4.096 -0.0625  0.3567  0.2951
   39MOL   C47729433   0.386   1.856   4.141 -0.4644 -0.1992 -1.0562
   39MOL   H47829434   0.607   2.062   4.426  1.5269 -0.1106 -0.8997
   39MOL   H47929435   0.680   2.219   4.379 -1.4068  1.5627 -0.7399
   39MOL   H48029436   0.672   2.277   4.625  0.6727  0.7876 -3.3740
   39MOL   H48129437   0.744   2.120   4.600 -0.5347 -2.0250  2.5011
   39MOL   H48229438   0.523   2.012   4.667  0.8315 -0.3082 -0.9156
   39MOL   H48329439   0.528   2.084   4.902  2.2274 -2.1671 -0.1260
   39MOL   H48429440   0.592   2.243   4.878  0.4441  0.3820  0.8071
   39MOL   H48529441   0.410   2.282   4.725  2.1915 -0.3120  1.1433
   39MOL   H48629442   0.332   2.128   4.727 -0.4804 -0.3182 -0.5898
   39MOL   H48729443   0.337   2.086   4.496 -0.2626 -0.5768  1.1621
   39MOL   H48829444   0.267   2.244   4.513  1.0416  0.5191 -2.1120
   39MOL   H48929445   0.495   2.343   4.447 -0.4310 -0.4500  2.3849
   39MOL   H49029446   0.490   2.314   4.225  0.3551  1.3698  0.8024
   39MOL   H49129447   0.328   2.303   4.287 -0.9287 -1.9637 -0.6231
   39MOL   H49229448   0.311   2.010   3.852  0.9980  0.0350 -0.0627
   39MOL   H49329449   0.337   1.782   3.766 -0.5398  2.0156 -0.8999
   39MOL   H49429450   0.418   1.651   4.176 -0.8056 -0.2839 -0.0954
   39MOL   H49529451   0.405   1.869   4.246  3.2836  2.6964 -1.9983
   39MOL   C49629452   0.659   1.449   3.460  1.0885 -0.2346  0.5811
   39MOL   C49729453   0.520   1.484   3.521  0.1316 -0.1588 -0.4814
   39MOL   C49829454   0.508   1.394   3.647 -0.6003  0.1085  0.2351
   39MOL   C49929455   0.373   1.414   3.722  0.0201 -0.4634  0.5265
   39MOL   C50029456   0.521   1.240   3.609  0.0490 -0.4255  0.9185
   39MOL   C50129457   0.655   1.214   3.551  0.2956 -0.0044 -0.1887
   39MOL   C50229458   0.673   1.298   3.423  0.1788 -0.4537 -0.4236
   39MOL   C50329459   0.805   1.276   3.343  0.6009  0.2616  0.2115
   39MOL   O50429460   0.915   1.349   3.401  0.1869  0.8693 -0.1881
   39MOL   C50529461   1.016   1.386   3.323  0.5160 -0.4103 -0.3300
   39MOL   O50629462   1.035   1.346   3.209  0.1707 -0.1277  0.0012
   39MOL   C50729463   1.120   1.470   3.393  0.3843 -0.3764  0.2500
   39MOL   C50829464   1.232   1.502   3.318 -0.0575  0.1113 -0.2999
   39MOL   C50929465   1.331   1.583   3.374 -0.2803 -0.1475  0.2073
   39MOL   C51029466   1.310   1.642   3.500  0.5582  0.0803 -0.2373
   39MOL   C51129467   1.414   1.726   3.555 -0.1262 -0.7181 -0.9296
   39MOL   O51229468   1.393   1.796   3.650 -0.5426 -0.0122 -0.1863
   39MOL   O51329469   1.534   1.725   3.489  0.1749 -0.1991  0.1677
   39MOL   C51429470   1.189   1.612   3.577 -0.4157 -0.1366 -0.1003
   39MOL   C51529471   1.096   1.524   3.519 -0.7231  0.6667 -0.2632
   39MOL   H51629472   0.737   1.465   3.534 -1.3708 -0.3342  3.3086
   39MOL   H51729473   0.670   1.512   3.371  0.5957  2.2842  2.2660
   39MOL   H51829474   0.444   1.453   3.449 -0.1856 -0.9796  0.1963
   39MOL   H51929475   0.507   1.592   3.525 -0.7733 -0.2176 -1.4782
   39MOL   H52029476   0.579   1.422   3.725  0.4813 -0.5563 -0.4924
   39MOL   H52129477   0.365   1.345   3.807 -2.5041 -0.1663  0.5639
   39MOL   H52229478   0.289   1.408   3.654  1.1155 -0.5218 -0.8531
   39MOL   H52329479   0.441   1.203   3.545  0.3640 -1.0330  0.8740
   39MOL   H52429480   0.522   1.194   3.708  1.4346 -0.5672  0.8523
   39MOL   H52529481   0.740   1.237   3.615  0.9236  1.3374 -1.4923
   39MOL   H52629482   0.663   1.111   3.517  1.6467 -0.8157  2.4482
   39MOL   H52729483   0.589   1.274   3.358 -0.2803  0.4574 -0.1812
   39MOL   H52829484   0.786   1.282   3.236  0.9800 -2.9532 -0.1050
   39MOL   H52929485   0.828   1.169   3.352 -1.5419 -0.1845  0.5321
   39MOL   H53029486   1.252   1.461   3.221 -0.7858  1.7081 -1.1469
   39MOL   H53129487   1.418   1.615   3.319 -0.4844 -1.5571 -0.9741
   39MOL   H53229488   1.177   1.662   3.672 -1.5863  0.6767 -0.6672
   39MOL   H53329489   1.010   1.497   3.580  0.0379  0.9081  0.9347
   39MOL   C53429490   1.962   1.694   3.779 -0.1615 -0.2309 -0.2679
   39MOL   C53529491   1.866   1.776   3.694 -0.9888 -0.2269 -1.0973
   39MOL   C53629492   1.735   1.696   3.657  0.4137  0.3665  0.2531
   39MOL   C53729493   1.654   1.782   3.553  0.0833  0.2059 -1.0739
   39MOL   C53829494   1.778   1.555   3.603 -0.2236 -0.0268  0.6818
   39MOL   C53929495   1.864   1.482   3.701 -0.1918  0.4141  0.4982
   39MOL   C54029496   1.998   1.555   3.726  0.3876 -0.3797  0.7165
   39MOL   C54129497   2.082   1.475   3.827 -0.6415 -0.7453  0.0023
   39MOL   O54229498   2.036   1.488   3.963  0.5467 -0.4028  0.4805
   39MOL   C54329499   2.120   1.479   4.063 -0.0088  0.1055  0.6164
   39MOL   O54429500   2.239   1.438   4.056  0.0744  0.3924 -0.0190
   39MOL   C54529501   2.074   1.546   4.182  1.0938 -0.5292 -0.2800
   39MOL   C54629502   1.945   1.605   4.190  0.2821  0.0122  0.0459
   39MOL   C54729503   1.900   1.669   4.309 -0.4274  0.2689 -0.1580
   39MOL   C54829504   1.986   1.678   4.419 -0.3375 -0.4220  0.0558
   39MOL   C54929505   1.940   1.743   4.549  0.2433  0.0043 -0.3194
   39MOL   O55029506   1.832   1.799   4.565 -0.1138 -0.3731 -0.2457
   39MOL   O55129507   2.026   1.727   4.647 -0.0829 -0.4417  0.0935
   39MOL   C55229508   2.115   1.626   4.408  0.0307  0.5859 -0.4559
   39MOL   C55329509   2.161   1.568   4.292  0.5921  0.6344 -0.4526
   39MOL   H55429510   1.922   1.685   3.880  1.1878 -0.9640  0.2153
   39MOL   H55529511   2.060   1.740   3.787  0.7723 -1.8649 -2.0162
   39MOL   H55629512   1.916   1.811   3.603  1.2674 -1.3446 -0.3116
   39MOL   H55729513   1.846   1.872   3.741  0.1051 -0.8637  0.7079
   39MOL   H55829514   1.678   1.688   3.749  0.4254  2.9246  0.5373
   39MOL   H55929515   1.716   1.805   3.467 -1.2820 -0.7338 -2.3312
   39MOL   H56029516   1.633   1.881   3.594  0.5699 -0.4130  0.7009
   39MOL   H56129517   1.834   1.566   3.510  0.1255 -0.8584  0.7939
   39MOL   H56229518   1.690   1.495   3.581  0.3696 -0.6439 -0.0228
   39MOL   H56329519   1.797   1.461   3.784  1.4271 -0.0070  1.7173
   39MOL   H56429520   1.886   1.384   3.657  0.2755  1.6059 -2.0056
   39MOL   H56529521   2.054   1.563   3.633  0.0834 -1.6653  0.4082
   39MOL   H56629522   2.177   1.527   3.817 -2.1688  2.2208  0.4285
   39MOL   H56729523   2.087   1.367   3.816 -3.1287 -0.8610 -0.2630
   39MOL   H56829524   1.858   1.586   4.128 -0.0956  0.4575  0.4420
   39MOL   H56929525   1.800   1.708   4.322 -1.2432 -1.6499 -0.3950
   39MOL   H57029526   2.182   1.631   4.493 -1.0327  1.2436  0.3536
   39MOL   H57129527   2.258   1.523   4.301  0.9730  1.6165  0.4858
   39MOL   C57229528   1.718   1.607   5.021  0.2842 -0.2065 -0.3917
   39MOL   C57329529   1.818   1.709   4.954 -0.0862  0.1505 -0.8999
   39MOL   C57429530   1.887   1.646   4.828  0.2679  0.1462  0.5524
   39MOL   C57529531   1.988   1.754   4.781 -0.4485 -0.1338 -0.1331
   39MOL   C57629532   1.959   1.517   4.865 -0.1457  0.0096 -0.2316
   39MOL   C57729533   1.852   1.419   4.919 -0.1890 -0.1629 -0.0733
   39MOL   C57829534   1.785   1.472   5.048 -1.2861 -0.0268  0.3800
   39MOL   C57929535   1.678   1.369   5.091  0.2227 -0.5980  0.8010
   39MOL   O58029536   1.604   1.427   5.198 -0.2433  0.4903 -0.0481
   39MOL   C58129537   1.641   1.389   5.323  0.1343 -0.5812 -0.4684
   39MOL   O58229538   1.720   1.296   5.356 -0.2376 -0.1320 -0.2749
   39MOL   C58329539   1.568   1.466   5.423 -0.1922 -0.9416  0.5710
   39MOL   C58429540   1.471   1.561   5.388 -0.2432 -0.0792 -0.0463
   39MOL   C58529541   1.404   1.631   5.490  0.4533 -0.2737 -0.0266
   39MOL   C58629542   1.428   1.602   5.627 -0.0242 -0.9954 -0.2299
   39MOL   C58729543   1.359   1.671   5.739 -0.3069  0.3322 -0.0918
   39MOL   O58829544   1.377   1.639   5.854  0.3060  0.1757 -0.3353
   39MOL   O58929545   1.282   1.770   5.698 -0.2302  0.3188 -0.1609
   39MOL   C59029546   1.529   1.515   5.667  0.4834 -0.2913  0.2717
   39MOL   C59129547   1.592   1.442   5.562  0.2598 -0.1660  0.2660
   39MOL   H59229548   1.632   1.603   4.955 -0.7193  1.7040  0.7334
   39MOL   H59329549   1.690   1.652   5.117 -0.0538 -0.4453 -0.3789
   39MOL   H59429550   1.899   1.725   5.026 -0.9650 -1.6989  0.5450
   39MOL   H59529551   1.770   1.806   4.945 -1.8886 -0.8110 -1.8341
   39MOL   H59629552   1.809   1.626   4.754 -0.5187  0.9752  1.1530
   39MOL   H59729553   2.071   1.748   4.852 -0.4390  0.1301 -0.1229
   39MOL   H59829554   1.960   1.859   4.777 -1.8308 -0.4863  0.2462
   39MOL   H59929555   2.036   1.529   4.942 -1.3746 -1.2708  1.2219
   39MOL   H60029556   2.017   1.465   4.788  2.5236  0.5891  1.3365
   39MOL   H60129557   1.784   1.383   4.842 -0.5324 -0.4929  0.3837
   39MOL   H60229558   1.903   1.333   4.962 -1.6796 -0.0153  2.0210
   39MOL   H60329559   1.858   1.486   5.127 -1.8934  0.7361  0.8127
   39MOL   H60429560   1.717   1.272   5.118 -0.8190 -1.0161  0.8376
   39MOL   H60529561   1.604   1.346   5.014  1.3617 -0.5718 -0.3380
   39MOL   H60629562   1.445   1.593   5.288  1.4234  1.7293  0.0669
   39MOL   H60729563   1.334   1.710   5.470  0.9804  0.7252  2.0227
   39MOL   H60829564   1.548   1.496   5.771 -1.5274 -1.7582  0.3865
   39MOL   H60929565   1.666   1.367   5.586  0.7382  0.0325 -0.5348
   39MOL   C61029566   1.266   2.204   5.669 -0.2147 -0.1958 -0.5570
   39MOL   C61129567   1.292   2.053   5.697 -0.4308 -0.2772 -0.3227
   39MOL   C61229568   1.162   1.974   5.725 -0.4276 -0.1410 -0.0725
   39MOL   C61329569   1.205   1.840   5.795 -0.0406 -0.8859  0.1649
   39MOL   C61429570   1.052   2.047   5.804 -0.0820  0.2154 -0.4562
   39MOL   C61529571   1.033   2.187   5.763  0.3515  0.2185  0.6870
   39MOL   C61629572   1.159   2.278   5.750  0.1413 -0.2277  0.6670
   39MOL   C61729573   1.139   2.413   5.683  0.0255 -0.1674  0.0785
   39MOL   O61829574   1.028   2.466   5.746  0.1766  0.1518 -0.0626
   39MOL   C61929575   0.953   2.554   5.684  0.0446 -0.0963  0.1379
   39MOL   O62029576   0.984   2.600   5.570  0.0104  0.1919  0.2528
   39MOL   C62129577   0.834   2.587   5.766 -0.2992  0.3125  0.0290
   39MOL   C62229578   0.825   2.564   5.903 -0.3145 -0.3324 -1.1334
   39MOL   C62329579   0.719   2.618   5.970  0.0577 -0.6101  0.1529
   39MOL   C62429580   0.606   2.680   5.907  0.2579  0.1510 -0.4419
   39MOL   C62529581   0.497   2.716   5.996 -0.2504  0.1234  0.4985
   39MOL   O62629582   0.499   2.707   6.118 -0.0164  0.5439  0.4887
   39MOL   O62729583   0.390   2.773   5.928 -0.3637 -0.0983  0.0374
   39MOL   C62829584   0.603   2.681   5.764 -0.4793  0.0267  0.1616
   39MOL   C62929585   0.722   2.642   5.700  0.1196  0.8914  0.0097
   39MOL   H63029586   1.244   2.216   5.563  0.2345 -0.3407 -0.6688
   39MOL   H63129587   1.355   2.266   5.677  0.0062 -0.3629 -1.7108
   39MOL   H63229588   1.366   2.042   5.776 -0.5617  1.4521  0.0781
   39MOL   H63329589   1.335   2.014   5.605  0.4716  1.3032 -0.6043
   39MOL   H63429590   1.115   1.937   5.633 -1.0587 -1.3158  0.7165
   39MOL   H63529591   1.120   1.780   5.829 -1.2798  1.4580  1.3609
   39MOL   H63629592   1.259   1.867   5.885  1.2739 -1.9138 -0.2952
   39MOL   H63729593   1.079   2.046   5.910  1.9715  1.9028 -0.9228
   39MOL   H63829594   0.957   1.994   5.810 -0.9576  1.6839 -0.9410
   39MOL   H63929595   0.968   2.193   5.676  0.4651 -1.7405  0.4565
   39MOL   H64029596   0.979   2.219   5.852 -0.2108  1.6930 -0.1560
   39MOL   H64129597   1.198   2.294   5.851 -2.4288  2.0453  1.3359
   39MOL   H64229598   1.123   2.409   5.575  0.4425  1.1955 -0.0490
   39MOL   H64329599   1.222   2.483   5.696  1.6718 -1.7514 -1.4688
   39MOL   H64429600   0.911   2.519   5.951 -0.7593  0.0581  0.0283
   39MOL   H64529601   0.723   2.605   6.077  1.6328  0.5872  0.2485
   39MOL   H64629602   0.516   2.713   5.709  0.7629 -0.4152 -2.1177
   39MOL   H64729603   0.718   2.651   5.593 -2.5995  1.1979  0.0861
   39MOL   C64829604   0.122   3.022   5.685  0.0139  0.1127 -0.7436
   39MOL   C64929605   0.220   3.003   5.797 -0.4847  0.2758  0.0579
   39MOL   C65029606   0.179   2.879   5.881 -0.0761 -0.5479 -0.4685
   39MOL   C65129607   0.275   2.831   5.992 -0.3230 -0.6485  1.2362
   39MOL   C65229608   0.029   2.882   5.926 -0.0941  0.3645 -0.0521
   39MOL   C65329609   7.961   2.922   5.810  0.7375  0.1283 -1.0207
   39MOL   C65429610   8.007   3.043   5.729 -0.4081  0.1981  0.3803
   39MOL   C65529611   7.915   3.057   5.612 -0.1739 -0.2369 -0.0742
   39MOL   O65629612   7.937   3.167   5.520  0.3148  0.4464 -0.1321
   39MOL   C65729613   7.833   3.231   5.463  0.8983 -0.0978  0.6062
   39MOL   O65829614   7.712   3.222   5.488  0.2803 -0.4768 -0.0795
   39MOL   C65929615   7.880   3.329   5.359  0.2728 -1.2600 -0.2623
   39MOL   C66029616   7.783   3.371   5.266  0.1823 -0.5976  0.1273
   39MOL   C66129617   7.814   3.460   5.163  0.1710 -0.1450  0.6847
   39MOL   C66229618   7.944   3.519   5.156  0.0494  0.4246 -0.2893
   39MOL   C66329619   7.967   3.616   5.042  0.2286 -0.0619 -0.8515
   39MOL   O66429620   7.873   3.665   4.973 -0.5974  0.6674 -0.2630
   39MOL   O66529621   0.065   3.658   5.046 -0.6427 -0.5222 -0.6964
   39MOL   C66629622   0.009   3.486   5.258  0.2782 -0.6230  0.5057
   39MOL   C66729623   8.012   3.382   5.355 -0.2974  0.2800  0.4881
   39MOL   H66829624   0.121   2.932   5.625  0.3227 -1.7065  1.9057
   39MOL   H66929625   0.143   3.105   5.618 -1.3294 -0.1622 -1.5301
   39MOL   H67029626   0.233   3.097   5.852 -0.6184  0.0697  0.4420
   39MOL   H67129627   0.318   2.984   5.753 -0.9675  0.0521 -0.9333
   39MOL   H67229628   0.187   2.800   5.806 -0.1300 -0.9256 -0.0828
   39MOL   H67329629   0.222   2.754   6.049 -1.2561 -1.3888 -0.6040
   39MOL   H67429630   0.295   2.919   6.053 -1.9044  0.7142 -0.1913
   39MOL   H67529631   0.019   2.949   6.011 -1.5304  1.0852 -0.7606
   39MOL   H67629632   8.031   2.786   5.968 -0.7942  0.6387  0.0816
   39MOL   H67729633   7.949   2.828   5.756  0.1931  0.9707 -2.3945
   39MOL   H67829634   7.866   2.942   5.859  1.5034 -1.1346  1.0733
   39MOL   H67929635   7.997   3.129   5.795 -2.1848  0.2234  0.1055
   39MOL   H68029636   7.813   3.062   5.649 -1.3858 -0.2852 -3.2543
   39MOL   H68129637   7.904   2.968   5.551 -1.7067  0.2642 -0.5466
   39MOL   H68229638   7.685   3.326   5.275 -0.5084  0.5350 -1.5899
   39MOL   H68329639   7.741   3.490   5.088  3.0091  0.4487 -1.9590
   39MOL   H68429640   0.106   3.534   5.255  0.0084 -0.1285 -0.7299
   39MOL   H68529641   0.058   3.353   5.424 -1.5486 -1.8289  1.0611
   39MOL   C68629642   0.457   3.825   5.140  0.6688  0.6429  0.8406
   39MOL   C68729643   0.342   3.748   5.066  0.2729  0.2063  0.0583
   39MOL   C68829644   0.220   3.837   5.048  0.0703 -0.6867 -0.6648
   39MOL   C68929645   0.106   3.773   4.972  0.3054  0.7021 -0.0672
   39MOL   C69029646   0.168   3.886   5.193  0.0311  0.6448 -0.1454
   39MOL   C69129647   0.277   3.967   5.259 -0.1302  0.6653  0.5150
   39MOL   C69229648   0.409   3.888   5.275 -0.4959 -0.0985 -0.4280
   39MOL   C69329649   0.529   3.957   5.340  0.1996 -0.1434  0.1024
   39MOL   O69429650   0.633   3.860   5.354  0.1396 -0.4594 -0.1108
   39MOL   C69529651   0.767   3.893   5.370 -0.0998 -0.2603  0.0788
   39MOL   O69629652   0.809   4.009   5.356 -0.7291 -0.0540  0.0897
   39MOL   C69729653   0.847   3.772   5.413  0.7361 -0.3387 -0.3033
   39MOL   C69829654   0.986   3.782   5.435  0.1995  0.2420  0.3995
   39MOL   C69929655   1.062   3.668   5.473  0.3401  0.6348  0.0034
   39MOL   C70029656   1.006   3.538   5.485  0.5805 -0.1723 -0.0602
   39MOL   C70129657   1.091   3.421   5.503  0.2509  0.3210 -0.6638
   39MOL   O70229658   1.219   3.415   5.497  0.0041 -0.2361  0.2837
   39MOL   O70329659   1.016   3.319   5.546 -0.7309  0.1955  0.3098
   39MOL   C70429660   0.864   3.533   5.474 -0.1130  0.3898  0.2025
   39MOL   C70529661   0.788   3.644   5.430 -0.4021 -0.0421 -0.0474
   39MOL   H70629662   0.497   3.901   5.073 -1.4716 -1.1311 -2.5658
   39MOL   H70729663   0.543   3.760   5.156  0.5792  0.5740  1.0456
   39MOL   H70829664   0.304   3.664   5.124 -0.2882 -0.3707 -1.1241
   39MOL   H70929665   0.379   3.717   4.968 -0.1581 -0.7678  0.2016
   39MOL   H71029666   0.259   3.924   4.994  0.9797 -1.6397 -1.5705
   39MOL   H71129667   0.130   3.741   4.871 -2.3394  2.4458 -1.2946
   39MOL   H71229668   0.024   3.843   4.963 -0.6951 -0.4252  0.1775
   39MOL   H71329669   0.134   3.803   5.254 -1.4502 -0.2330 -2.0971
   39MOL   H71429670   0.082   3.950   5.174 -1.6267 -2.0237 -1.9446
   39MOL   H71529671   0.306   4.046   5.190 -0.3980  2.3604  2.2845
   39MOL   H71629672   0.254   4.004   5.359  2.2154 -2.1716  2.1818
   39MOL   H71729673   0.376   3.814   5.348  0.0177  0.0491 -0.0416
   39MOL   H71829674   0.495   3.995   5.436  0.3714 -1.5758  0.7419
   39MOL   H71929675   0.555   4.045   5.281 -2.5965 -1.4486 -3.2826
   39MOL   H72029676   1.035   3.876   5.418 -1.0085  0.8204  0.0412
   39MOL   H72129677   1.169   3.676   5.487  0.4213  0.8086 -0.7175
   39MOL   H72229678   0.805   3.442   5.477 -0.6266  0.6634 -1.3251
   39MOL   H72329679   0.681   3.635   5.423 -0.5083 -0.0420  1.2982
   39MOL   C72429680   0.947   2.911   5.352 -0.1032 -0.2105  0.0024
   39MOL   C72529681   1.010   3.045   5.386 -0.0074  0.2818  0.7995
   39MOL   C72629682   1.002   3.074   5.538  0.1460  0.5929 -0.0340
   39MOL   C72729683   1.077   3.194   5.582  0.1124 -0.6142  0.2843
   39MOL   C72829684   0.851   3.076   5.573 -0.1056 -1.1404 -0.4461
   39MOL   C72929685   0.775   2.954   5.535  0.1930  0.1683  0.6181
   39MOL   C73029686   0.790   2.919   5.384  0.8127  0.0402 -0.2096
   39MOL   C73129687   0.713   2.795   5.347  0.8440 -0.6020 -0.4408
   39MOL   O73229688   0.568   2.820   5.365 -0.2925  0.8585  0.2839
   39MOL   C73329689   0.481   2.715   5.385  0.2916  0.0774  0.3003
   39MOL   O73429690   0.520   2.604   5.420 -0.0848  0.6056  0.1885
   39MOL   C73529691   0.342   2.752   5.367  0.5957  0.1607 -0.4916
   39MOL   C73629692   0.239   2.653   5.366  0.0956 -0.4754  0.2611
   39MOL   C73729693   0.106   2.692   5.344 -0.1246  0.5864  0.0162
   39MOL   C73829694   0.073   2.827   5.331 -0.0724 -0.9643 -0.3001
   39MOL   C73929695   7.964   2.867   5.290 -0.5083  0.0439  0.3538
   39MOL   O74029696   7.939   2.975   5.246  0.5635 -0.0655  0.4826
   39MOL   O74129697   7.866   2.778   5.318  0.2375  0.4931  0.1087
   39MOL   C74229698   0.177   2.924   5.331  0.1969 -0.4509  0.0658
   39MOL   C74329699   0.312   2.890   5.346 -0.0018  0.1157 -0.1022
   39MOL   H74429700   0.985   2.831   5.416 -0.7085 -2.2621 -2.1326
   39MOL   H74529701   0.964   2.910   5.244 -1.3246 -0.3568 -0.1969
   39MOL   H74629702   0.954   3.117   5.326 -1.5624 -3.6892 -2.7257
   39MOL   H74729703   1.112   3.049   5.347 -0.4477  3.0084 -0.2103
   39MOL   H74829704   1.049   2.989   5.587  1.6830  0.9738 -0.8159
   39MOL   H74929705   1.178   3.196   5.540 -0.7250  0.5108 -1.7554
   39MOL   H75029706   1.082   3.194   5.691  0.3962  3.1845  0.3147
   39MOL   H75129707   0.817   3.162   5.516  1.0743 -1.4038 -1.5680
   39MOL   H75229708   0.840   3.098   5.679 -1.8879  2.2789 -1.2616
   39MOL   H75329709   0.809   2.864   5.587 -0.9339  1.2196  3.2765
   39MOL   H75429710   0.672   2.972   5.565  0.0952  0.0266  0.3750
   39MOL   H75529711   0.755   2.999   5.319 -1.6224 -0.1640  0.8206
   39MOL   H75629712   0.737   2.710   5.411 -0.6170 -1.6306 -1.2498
   39MOL   H75729713   0.722   2.770   5.242 -2.5648  0.1743 -0.9830
   39MOL   H75829714   0.261   2.548   5.371 -2.4380 -0.9579  1.6135
   39MOL   H75929715   0.029   2.616   5.337  0.8902 -0.3908 -0.7220
   39MOL   H76029716   0.151   3.028   5.318 -0.9259 -0.6811  0.4363
   39MOL   H76129717   0.386   2.969   5.336  0.1781 -0.1678 -1.0501
   39MOL   H76229718   7.781   2.817   5.302 -0.0682  0.1026  0.7574
   40MOL     C129719   3.519   0.684   6.147 -0.0177  0.3168 -0.5107
   40MOL     C229720   3.406   0.720   6.249  0.5744 -0.3969  0.1751
   40MOL     C329721   3.432   0.856   6.318 -0.1038 -0.1418 -0.7153
   40MOL     C429722   3.335   0.882   6.429  0.2470  0.0979 -0.3280
   40MOL     C529723   3.574   0.868   6.377 -0.2833 -0.2526 -0.4792
   40MOL     C629724   3.674   0.843   6.274 -0.3334  0.0274  0.7425
   40MOL     C729725   3.662   0.698   6.216  0.1226  0.2369 -0.7777
   40MOL     C829726   3.773   0.653   6.117  0.1916  0.4020  0.1453
   40MOL     O929727   3.885   0.596   6.185  0.2480 -0.0743 -0.0185
   40MOL    C1029728   4.007   0.652   6.192  0.4117  0.1701 -0.4409
   40MOL    O1129729   4.032   0.766   6.150  0.0107  0.2336  0.4419
   40MOL    C1229730   4.106   0.566   6.251 -0.0832  0.0404  0.5771
   40MOL    C1329731   4.077   0.473   6.354 -0.2358 -0.4150  0.3044
   40MOL    C1429732   4.174   0.406   6.425  0.1604  0.5012 -0.1471
   40MOL    C1529733   4.308   0.422   6.397  0.6720  0.3670 -0.0846
   40MOL    C1629734   4.406   0.332   6.461  0.7257  0.6148  0.5434
   40MOL    O1729735   4.513   0.300   6.406  0.3200 -0.3526 -0.6228
   40MOL    O1829736   4.356   0.280   6.566  0.0071  0.2950  0.1738
   40MOL    C1929737   4.339   0.510   6.292  0.5380 -0.2645  0.2870
   40MOL    C2029738   4.244   0.584   6.223 -0.5000  0.2981  0.2123
   40MOL    H2129739   3.514   0.748   6.059  0.3342  2.5862  1.0755
   40MOL    H2229740   3.494   0.584   6.113  1.9941 -0.2756 -0.3158
   40MOL    H2329741   3.424   0.644   6.325 -2.3645 -0.4693  0.8549
   40MOL    H2429742   3.303   0.711   6.217  1.3667 -1.3541 -2.2342
   40MOL    H2529743   3.409   0.921   6.233  0.3382  0.3004 -0.5033
   40MOL    H2629744   3.236   0.863   6.388  0.7869  1.4249 -2.3152
   40MOL    H2729745   3.333   0.988   6.452 -1.2692  0.1189 -0.5636
   40MOL    H2829746   3.591   0.795   6.457  0.0943  0.9845  0.5891
   40MOL    H2929747   3.584   0.967   6.420  0.9774 -0.2016 -0.8678
   40MOL    H3029748   3.653   0.920   6.199 -2.0767 -0.3326  0.8412
   40MOL    H3129749   3.771   0.854   6.323 -0.4793  0.9897  0.8282
   40MOL    H3229750   3.666   0.631   6.302  1.4003 -0.5106 -1.3974
   40MOL    H3329751   3.808   0.736   6.055 -0.5131 -1.5323 -2.9668
   40MOL    H3429752   3.726   0.578   6.054  2.0633 -3.0891  2.7289
   40MOL    H3529753   3.973   0.459   6.379 -0.2874 -1.4313 -0.4543
   40MOL    H3629754   4.147   0.324   6.490  0.0397  1.6020  1.1855
   40MOL    H3729755   4.443   0.515   6.264  0.5192 -0.4975  0.1788
   40MOL    H3829756   4.268   0.651   6.141 -2.3350 -0.0929 -0.6801
   40MOL    H3929757   3.337   0.823   6.521 -0.7895 -3.0502 -2.2328
   40MOL    C4029758   4.605   0.515   6.861  0.2307  0.5617 -0.8098
   40MOL    C4129759   4.568   0.435   6.736 -0.7462  0.4973 -0.2406
   40MOL    C4229760   4.464   0.326   6.780 -0.0961 -0.3550  0.5746
   40MOL    C4329761   4.433   0.227   6.668  0.3232  1.1339 -0.5496
   40MOL    C4429762   4.508   0.248   6.902 -0.7628  0.3217 -0.0447
   40MOL    C4529763   4.550   0.333   7.022 -0.0724  0.1257  0.4190
   40MOL    C4629764   4.657   0.435   6.983  0.0872  0.5032  0.0919
   40MOL    C4729765   4.685   0.523   7.105  0.3520  1.0406  0.5843
   40MOL    O4829766   4.604   0.632   7.124 -0.3379 -0.5394 -0.3513
   40MOL    C4929767   4.651   0.747   7.096 -0.3796 -0.2197  0.0408
   40MOL    O5029768   4.767   0.770   7.060  0.1683 -0.1111  0.4497
   40MOL    C5129769   4.547   0.851   7.096 -0.2830 -0.2825 -0.0511
   40MOL    C5229770   4.412   0.825   7.123 -0.3437 -0.4546  0.5389
   40MOL    C5329771   4.317   0.928   7.098 -0.7540  0.3539  0.5388
   40MOL    C5429772   4.355   1.058   7.061  1.1371  0.5710 -0.2429
   40MOL    C5529773   4.246   1.156   7.021  0.4156  0.0305  0.0683
   40MOL    O5629774   4.123   1.133   7.033  0.2140 -0.1848  0.2358
   40MOL    O5729775   4.286   1.270   6.961 -0.9614  0.3423 -0.0018
   40MOL    C5829776   4.487   1.084   7.037 -0.4561  0.2123  0.8233
   40MOL    C5929777   4.579   0.981   7.052  0.0993 -1.0298  0.0457
   40MOL    H6029778   4.517   0.563   6.905 -0.5753 -3.5568  2.3859
   40MOL    H6129779   4.672   0.596   6.833  1.1139 -0.0997 -0.6354
   40MOL    H6229780   4.659   0.396   6.690 -0.9180 -1.5839  1.0890
   40MOL    H6329781   4.525   0.509   6.669  1.6992  1.6130 -0.6431
   40MOL    H6429782   4.369   0.378   6.793  0.3997  0.5627  0.6178
   40MOL    H6529783   4.377   0.149   6.720  1.7899  0.6564  0.3421
   40MOL    H6629784   4.514   0.166   6.628 -0.3302 -2.3005  3.0838
   40MOL    H6729785   4.591   0.183   6.876 -0.3425  1.5955 -2.0023
   40MOL    H6829786   4.420   0.193   6.935 -1.0041  0.2816 -0.7526
   40MOL    H6929787   4.470   0.380   7.078 -0.5045  2.3920 -2.0138
   40MOL    H7029788   4.606   0.271   7.093 -0.9315 -1.4579 -0.2499
   40MOL    H7129789   4.747   0.386   6.946 -0.3513 -0.2061 -0.0478
   40MOL    H7229790   4.792   0.543   7.115  0.6512 -0.1468 -0.1606
   40MOL    H7329791   4.673   0.464   7.196 -0.9856 -0.3623 -0.4944
   40MOL    H7429792   4.375   0.726   7.146 -1.8487 -0.4614 -1.7817
   40MOL    H7529793   4.215   0.897   7.117 -1.4480  1.6658 -0.8953
   40MOL    H7629794   4.530   1.179   7.007  0.1035 -1.1178 -2.7954
   40MOL    H7729795   4.684   0.998   7.034 -0.0019 -0.4798 -0.0348
   40MOL    C7829796   4.335   1.718   6.989  0.0222  0.3443  0.6882
   40MOL    C7929797   4.331   1.576   6.928  0.1140 -0.4242 -0.2551
   40MOL    C8029798   4.201   1.500   6.960 -0.7213 -0.1679 -0.0454
   40MOL    C8129799   4.187   1.357   6.909  0.0664  0.9027 -0.0606
   40MOL    C8229800   4.183   1.500   7.108 -0.1508  0.1500  0.4447
   40MOL    C8329801   4.199   1.642   7.171 -0.2640  0.5339 -0.4047
   40MOL    C8429802   4.336   1.709   7.143  0.3067 -0.1569 -0.1564
   40MOL    C8529803   4.350   1.840   7.215 -0.2074 -0.3091  0.2275
   40MOL    O8629804   4.465   1.914   7.183  0.0311  0.6925  0.3764
   40MOL    C8729805   4.458   2.045   7.225  0.1005 -0.7432 -0.5620
   40MOL    O8829806   4.357   2.092   7.281 -0.3720 -0.3319  0.7411
   40MOL    C8929807   4.576   2.125   7.192 -0.0252  0.2957  0.3125
   40MOL    C9029808   4.688   2.070   7.125 -0.6749  0.0032  0.5053
   40MOL    C9129809   4.797   2.151   7.088  0.3407  0.0048 -0.4098
   40MOL    C9229810   4.786   2.287   7.106  0.4167 -0.3163 -0.0201
   40MOL    C9329811   4.882   2.382   7.047  0.1635  0.3198  0.5775
   40MOL    O9429812   4.875   2.507   7.058 -0.6349 -0.3825  0.1646
   40MOL    O9529813   4.984   2.328   6.988 -0.9802 -0.1087 -0.3486
   40MOL    C9629814   4.679   2.345   7.174 -0.2169  0.1377 -0.2946
   40MOL    C9729815   4.579   2.264   7.216 -0.6271 -0.0457 -0.1973
   40MOL    H9829816   4.245   1.771   6.958 -0.6943 -1.8615 -1.1106
   40MOL    H9929817   4.423   1.765   6.945 -1.1069  1.2165 -0.6872
   40MOL   H10029818   4.421   1.519   6.949  2.1385  2.1944 -1.5047
   40MOL   H10129819   4.324   1.584   6.819 -0.2269  2.1414 -0.0764
   40MOL   H10229820   4.117   1.565   6.934  0.2015  0.2777 -2.0417
   40MOL   H10329821   4.205   1.364   6.802 -1.0364  2.7606 -0.1579
   40MOL   H10429822   4.084   1.327   6.927 -0.4153  1.6979 -1.3797
   40MOL   H10529823   4.254   1.437   7.161  0.2100  1.4008  1.4820
   40MOL   H10629824   4.091   1.443   7.121 -0.3070 -0.9448 -4.3391
   40MOL   H10729825   4.113   1.703   7.144 -0.1609  0.8902  0.0576
   40MOL   H10829826   4.185   1.634   7.279 -0.4044  0.0429 -0.4590
   40MOL   H10929827   4.427   1.652   7.162  0.0078 -1.2708 -1.9018
   40MOL   H11029828   4.339   1.825   7.322  1.2907  2.1508  0.7758
   40MOL   H11129829   4.268   1.901   7.175  1.0788  1.0292 -0.4434
   40MOL   H11229830   4.707   1.964   7.113  1.3812  0.4690 -0.6616
   40MOL   H11329831   4.884   2.105   7.044  0.5433 -2.0547  2.0314
   40MOL   H11429832   4.678   2.452   7.192  2.2307  0.0547  0.6167
   40MOL   H11529833   4.495   2.316   7.260 -0.8418  1.2024 -1.9874
   40MOL   C11629834   5.334   2.636   7.073 -0.1719  0.6374  0.1846
   40MOL   C11729835   5.200   2.565   7.036 -0.4621  0.0018  0.2881
   40MOL   C11829836   5.209   2.440   6.948  0.2824  0.2169 -0.4232
   40MOL   C11929837   5.069   2.400   6.896 -0.7322  0.6993  0.7854
   40MOL   C12029838   5.302   2.466   6.824 -0.9170  0.0375  0.1646
   40MOL   C12129839   5.441   2.525   6.867  0.4158 -0.0184  0.4135
   40MOL   C12229840   5.421   2.658   6.947 -0.0083  0.0813  0.9192
   40MOL   C12329841   5.556   2.719   6.984 -0.4889  0.7633 -0.2485
   40MOL   O12429842   5.547   2.836   7.061 -0.6436  0.4817  0.5218
   40MOL   C12529843   5.513   2.956   7.008 -0.1769 -0.0917 -0.2912
   40MOL   O12629844   5.499   2.973   6.888 -0.7299 -0.4420  0.0333
   40MOL   C12729845   5.489   3.055   7.113  0.2950  0.0119  0.4431
   40MOL   C12829846   5.542   3.182   7.078 -0.0422  0.2244 -0.0940
   40MOL   C12929847   5.556   3.286   7.174 -0.1359  0.1292  0.2426
   40MOL   C13029848   5.495   3.265   7.297  1.1214  0.1235  0.0874
   40MOL   C13129849   5.515   3.374   7.400 -0.7571 -0.1987 -0.5142
   40MOL   O13229850   5.565   3.483   7.373 -0.1763  0.2114  0.5305
   40MOL   O13329851   5.455   3.352   7.512 -0.0033 -0.6160  0.2682
   40MOL   C13429852   5.435   3.137   7.326  0.2501 -0.7513  0.1297
   40MOL   C13529853   5.434   3.025   7.240 -0.7522  0.3092  0.3665
   40MOL   H13629854   5.380   2.573   7.149  0.4973  0.0779 -0.6681
   40MOL   H13729855   5.312   2.736   7.111 -3.4569 -0.6124  1.7876
   40MOL   H13829856   5.139   2.634   6.976  0.3042 -1.3150 -2.0778
   40MOL   H13929857   5.144   2.537   7.125  0.9983 -0.9015  0.9295
   40MOL   H14029858   5.259   2.368   7.012  0.9481 -0.4429 -1.6532
   40MOL   H14129859   5.083   2.336   6.808  0.7323  1.0507  0.7557
   40MOL   H14229860   5.011   2.484   6.857 -1.3699 -0.4724 -0.8937
   40MOL   H14329861   5.254   2.539   6.759 -0.2523 -0.9014 -1.4088
   40MOL   H14429862   5.309   2.373   6.767 -2.7499 -0.8750  1.3847
   40MOL   H14529863   5.489   2.450   6.929  1.0928  1.0014  1.1543
   40MOL   H14629864   5.511   2.544   6.785  0.4106 -1.1949  0.1329
   40MOL   H14729865   5.373   2.724   6.874 -0.5912 -1.8589 -0.4779
   40MOL   H14829866   5.607   2.739   6.890  0.5150  0.6514  0.2676
   40MOL   H14929867   5.604   2.646   7.050  1.6925  1.8842 -0.5673
   40MOL   H15029868   5.606   3.193   6.992  1.1504  2.4874  1.0460
   40MOL   H15129869   5.609   3.376   7.147  0.6227 -0.6195 -0.8261
   40MOL   H15229870   5.390   3.134   7.424 -0.9659 -1.0281 -0.4359
   40MOL   H15329871   5.398   2.929   7.276  0.4300 -0.4716 -0.4829
   40MOL   C15429872   5.440   3.444   8.017 -0.4132 -0.1597  0.7374
   40MOL   C15529873   5.479   3.495   7.871  0.3998 -0.2936 -0.5375
   40MOL   C15629874   5.430   3.396   7.758 -0.6225  0.5449 -0.3626
   40MOL   C15729875   5.487   3.440   7.620 -0.1422  0.2452  0.1317
   40MOL   C15829876   5.482   3.246   7.798 -1.0214  0.4194  0.3142
   40MOL   C15929877   5.431   3.202   7.940 -0.8425  0.3819 -0.1381
   40MOL   C16029878   5.487   3.296   0.014 -0.3863 -0.5295  0.2238
   40MOL   C16129879   5.440   3.266   0.157  0.1795  0.1524  0.2393
   40MOL   O16229880   5.496   3.145   0.206  0.4025  0.3125 -0.6935
   40MOL   C16329881   5.469   3.097   0.321  0.1808  0.3874 -0.0743
   40MOL   O16429882   5.405   3.168   0.405  0.2264 -0.2410  0.5322
   40MOL   C16529883   5.514   2.955   0.348 -0.4002  0.2488  0.7284
   40MOL   C16629884   5.592   2.879   0.257  0.1617 -0.0149 -0.2723
   40MOL   C16729885   5.645   2.752   0.301 -0.4948  0.2655  0.0051
   40MOL   C16829886   5.614   2.695   0.422 -0.3612 -0.3511  1.3332
   40MOL   C16929887   5.686   2.579   0.475 -0.6309 -0.4748 -0.5817
   40MOL   O17029888   5.654   2.519   0.580 -0.3768 -0.6301  0.1220
   40MOL   O17129889   5.783   2.541   0.396  0.0687  0.1751  0.0575
   40MOL   C17229890   5.518   2.769   0.501  0.0385  0.0442 -0.6643
   40MOL   C17329891   5.469   2.893   0.470  0.0724 -0.3808  0.5788
   40MOL   H17429892   5.332   3.432   8.015 -0.3649 -0.3096 -1.6804
   40MOL   H17529893   5.472   3.519   0.058  0.5537 -0.0790  0.2422
   40MOL   H17629894   5.587   3.503   7.862  0.2671  1.1840 -0.9360
   40MOL   H17729895   5.430   3.590   7.855 -2.4888 -1.1980  2.3479
   40MOL   H17829896   5.322   3.401   7.753 -0.6795  2.3647  2.0408
   40MOL   H17929897   5.595   3.443   7.634 -0.0370 -0.1550 -0.5671
   40MOL   H18029898   5.467   3.545   7.599 -0.8308 -0.0255 -0.5910
   40MOL   H18129899   5.591   3.247   7.802 -0.7527 -1.9510 -3.5168
   40MOL   H18229900   5.456   3.182   7.714  1.1139  1.0397 -0.8365
   40MOL   H18329901   5.323   3.193   7.953 -0.6978 -2.2459 -0.4297
   40MOL   H18429902   5.469   3.103   7.969  3.3519  0.8661 -3.4175
   40MOL   H18529903   5.596   3.298   0.010 -0.3104  2.2831  1.9484
   40MOL   H18629904   5.332   3.254   0.157  0.4419 -2.4244 -0.6102
   40MOL   H18729905   5.472   3.347   0.223  0.2212 -0.6276  1.1876
   40MOL   H18829906   5.625   2.921   0.164  0.3750  2.1877  0.7649
   40MOL   H18929907   5.719   2.709   0.235  0.0411 -3.1829  2.7380
   40MOL   H19029908   5.478   2.731   0.594  0.4260 -1.0536 -0.9297
   40MOL   H19129909   5.403   2.940   0.541  1.4986  1.1633  0.9150
   40MOL   C19229910   5.849   2.361   0.017  0.2564  0.1301  0.6648
   40MOL   C19329911   5.790   2.379   0.158 -0.0200 -0.0755  0.2253
   40MOL   C19429912   5.901   2.377   0.261 -0.7823 -0.0806  0.3050
   40MOL   C19529913   5.843   2.405   0.407  0.5495 -0.3422 -0.3815
   40MOL   C19629914   5.945   2.219   0.244  0.4695  0.2275  0.2054
   40MOL   C19729915   5.999   2.187   0.108  0.7228 -0.2047 -0.0056
   40MOL   C19829916   5.898   2.214   0.003  0.0416 -0.6183  0.0395
   40MOL   C19929917   5.949   2.199   7.890  0.2356 -0.3261 -0.0229
   40MOL   O20029918   6.063   2.270   7.871  0.7714  0.1300  0.2484
   40MOL   C20129919   6.140   2.244   7.760 -0.3041 -0.4505 -0.6290
   40MOL   O20229920   6.107   2.163   7.674  0.2094  0.1763  0.0954
   40MOL   C20329921   6.269   2.320   7.758 -0.0658 -0.2374 -0.0253
   40MOL   C20429922   6.355   2.297   7.652 -0.4904 -0.0386  0.0634
   40MOL   C20529923   6.473   2.374   7.637 -0.9344 -0.6193 -0.0883
   40MOL   C20629924   6.514   2.446   7.747  0.4074  0.2180  0.7655
   40MOL   C20729925   6.638   2.524   7.722  0.0411 -0.5202 -0.4685
   40MOL   O20829926   6.706   2.514   7.618 -0.1153 -0.0881  0.0516
   40MOL   O20929927   6.671   2.600   7.827 -0.2733 -0.2552  0.5248
   40MOL   C21029928   6.435   2.465   7.858  0.2828  0.3526  0.2583
   40MOL   C21129929   6.311   2.404   7.863 -0.3047 -0.6782 -0.2875
   40MOL   H21229930   5.922   2.437   8.022  0.9372 -0.9051 -0.4389
   40MOL   H21329931   5.768   2.381   7.979  0.5608  0.4840  0.4079
   40MOL   H21429932   5.705   2.314   0.178  0.2907 -0.4178  0.4390
   40MOL   H21529933   5.738   2.475   0.160  0.3779  0.1728 -0.8867
   40MOL   H21629934   5.972   2.450   0.223  2.3265 -1.4216  3.1680
   40MOL   H21729935   5.920   2.400   0.483  1.0116 -0.7431 -0.8626
   40MOL   H21829936   5.767   2.328   0.421 -1.4208  0.9978 -3.1671
   40MOL   H21929937   5.866   2.153   0.281  1.2720 -0.7708  0.1774
   40MOL   H22029938   6.032   2.216   0.310 -0.8331  0.0577  1.9511
   40MOL   H22129939   6.089   2.249   0.103  0.0664  0.6622 -1.3648
   40MOL   H22229940   6.034   2.084   0.111  0.3890 -0.3059  5.1265
   40MOL   H22329941   5.820   2.139   0.016 -0.4725 -0.0189  0.4052
   40MOL   H22429942   5.867   2.235   7.828 -0.5739 -1.5671  0.3072
   40MOL   H22529943   5.966   2.095   7.862 -0.6589  0.1971 -2.6444
   40MOL   H22629944   6.335   2.229   7.571  2.6308  1.0389 -1.6962
   40MOL   H22729945   6.538   2.350   7.554 -2.7839  0.2563 -1.8340
   40MOL   H22829946   6.465   2.520   7.946 -2.5296 -1.4486  2.4367
   40MOL   H22929947   6.245   2.421   7.947  0.2858  1.3912 -0.1983
   40MOL   C23029948   6.896   3.036   7.750 -0.6282 -0.3696  0.1242
   40MOL   C23129949   6.910   2.888   7.779 -0.2366  0.1263  0.8785
   40MOL   C23229950   6.766   2.829   7.794 -1.0497 -0.2684 -0.3211
   40MOL   C23329951   6.786   2.682   7.815  0.7211  0.3060 -0.3950
   40MOL   C23429952   6.702   2.901   7.914  0.6597 -0.0075 -0.7096
   40MOL   C23529953   6.682   3.050   7.895  0.1602 -0.3175  0.6897
   40MOL   C23629954   6.814   3.119   7.856  0.2573 -0.2827  0.4578
   40MOL   C23729955   6.787   3.268   7.826 -1.2060  0.4665  0.0416
   40MOL   O23829956   6.780   3.348   7.948 -0.1441 -0.1534 -0.1799
   40MOL   C23929957   6.865   3.454   7.969  0.5643  0.0782  0.3383
   40MOL   O24029958   6.974   3.456   7.911 -0.0522 -0.2035 -0.3715
   40MOL   C24129959   6.803   3.572   0.015 -0.6437 -0.3778  0.4899
   40MOL   C24229960   6.666   3.577   0.049  0.3306  0.0926  0.4418
   40MOL   C24329961   6.615   3.697   0.102  0.1478  0.9327  0.2982
   40MOL   C24429962   6.701   3.806   0.142 -0.3016  0.1093  0.2418
   40MOL   C24529963   6.646   3.923   0.213 -0.1605  0.6122  0.1180
   40MOL   O24629964   6.687   4.032   0.196  0.3061  0.1400  0.5301
   40MOL   O24729965   6.546   3.899   0.292  0.4351  0.1800  0.1301
   40MOL   C24829966   6.836   3.796   0.108 -0.1365 -0.5113  0.4870
   40MOL   C24929967   6.889   3.678   0.051  0.6251  0.6861  0.1151
   40MOL   H25029968   6.838   3.058   7.660  1.5001  1.8431 -0.7659
   40MOL   H25129969   6.993   3.083   7.736 -0.1544 -1.1271  0.8088
   40MOL   H25229970   6.977   2.873   7.864 -1.9320 -0.1018  2.2238
   40MOL   H25329971   6.964   2.835   7.701 -1.7066 -0.4334  0.2129
   40MOL   H25429972   6.705   2.850   7.706 -0.8066  1.6519 -0.0694
   40MOL   H25529973   6.832   2.684   7.914  3.3291 -1.5447 -1.4853
   40MOL   H25629974   6.854   2.629   7.748  0.8378 -0.1017  0.0413
   40MOL   H25729975   6.768   2.878   7.998 -0.8436  2.5871  1.2311
   40MOL   H25829976   6.608   2.855   7.942  1.3306  0.4948  2.4812
   40MOL   H25929977   6.595   3.061   7.830  2.1518 -3.0506 -2.6509
   40MOL   H26029978   6.656   3.095   7.991 -0.0028 -0.7607  0.8551
   40MOL   H26129979   6.880   3.120   7.943 -1.3808  1.8356  1.7112
   40MOL   H26229980   6.695   3.273   7.767 -1.7110  0.0851  0.7938
   40MOL   H26329981   6.866   3.296   7.756  0.0686 -0.4027  1.1302
   40MOL   H26429982   6.605   3.494   0.018 -0.5217  1.2931 -1.1700
   40MOL   H26529983   6.509   3.699   0.122 -0.2536 -1.2946 -1.4884
   40MOL   H26629984   6.903   3.878   0.127  0.2088 -1.3902  3.4270
   40MOL   H26729985   6.987   3.675   0.005 -0.3417  1.0557 -2.0330
   40MOL   C26829986   6.136   3.849   0.508 -0.0285 -0.1661  1.0405
   40MOL   C26929987   6.279   3.896   0.484  0.2068  0.1271 -0.6279
   40MOL   C27029988   6.309   3.960   0.346 -0.1464  0.1035  0.4044
   40MOL   C27129989   6.455   4.007   0.319  0.2954  0.3091 -0.1389
   40MOL   C27229990   6.253   3.880   0.223  0.1091  0.1373 -0.0319
   40MOL   C27329991   6.105   3.848   0.255 -0.1865 -0.0486  0.1415
   40MOL   C27429992   6.084   3.767   0.386 -0.5864 -0.1395 -0.4292
   40MOL   C27529993   5.936   3.716   0.414 -1.0122 -0.2657  0.1453
   40MOL   O27629994   5.938   3.638   0.528 -0.4560  0.1046 -0.1442
   40MOL   C27729995   5.856   3.533   0.551 -0.6179 -1.2530  0.3727
   40MOL   O27829996   5.778   3.499   0.459 -0.7413 -0.0475 -0.4408
   40MOL   C27929997   5.883   3.461   0.676  0.2273 -0.2550 -0.3415
   40MOL   C28029998   5.995   3.489   0.761 -0.2802 -0.1833  0.1948
   40MOL   C28129999   6.021   3.414   0.878  0.2339  0.3996  0.6895
   40MOL   C28230000   5.932   3.309   0.911  0.9319  0.3156  0.2901
   40MOL   C28330001   5.953   3.217   1.033 -0.2665 -0.6201  0.2815
   40MOL   O28430002   5.867   3.145   1.082 -0.4545  0.1406 -0.2707
   40MOL   O28530003   6.083   3.222   1.076 -0.6343  0.2230  0.3446
   40MOL   C28630004   5.819   3.282   0.831  1.1969  0.5638  0.1188
   40MOL   C28730005   5.800   3.353   0.712 -0.7337 -0.3844 -0.7326
   40MOL   H28830006   6.070   3.935   0.513 -1.3302 -1.0740 -0.2643
   40MOL   H28930007   6.129   3.798   0.605  3.6025 -1.4124  0.7140
   40MOL   H29030008   6.335   3.803   0.472 -0.6995 -0.3118 -1.5338
   40MOL   H29130009   6.325   3.942   0.572 -0.7291  0.9788 -0.5812
   40MOL   H29230010   6.262   4.059   0.346 -0.3071  0.0375  1.5158
   40MOL   H29330011   6.496   4.070   0.397 -0.3708 -0.5385  0.9099
   40MOL   H29430012   6.449   4.079   0.237 -1.8566 -1.2420 -1.4274
   40MOL   H29530013   6.305   3.787   0.199 -0.2438 -0.5604  1.8054
   40MOL   H29630014   6.259   3.948   0.138  0.1811  2.2398  1.5991
   40MOL   H29730015   6.052   3.942   0.257 -0.4892 -0.1961 -0.7812
   40MOL   H29830016   6.061   3.793   0.171 -1.7245 -0.7735  1.4079
   40MOL   H29930017   6.145   3.676   0.385  0.4408  0.5284  0.0144
   40MOL   H30030018   5.912   3.655   0.326 -5.5985  1.9811 -0.2842
   40MOL   H30130019   5.859   3.792   0.419  0.0495  0.6999  2.0322
   40MOL   H30230020   6.048   3.580   0.737 -2.3549  1.0383  0.1428
   40MOL   H30330021   6.110   3.432   0.937  1.4023 -2.3033 -0.1515
   40MOL   H30430022   5.750   3.201   0.852  0.5108  0.8587 -0.9433
   40MOL   H30530023   5.715   3.324   0.651 -1.0897 -0.7965 -0.0381
   40MOL   C30630024   6.232   2.798   1.234 -0.2905 -0.1019 -1.2486
   40MOL   C30730025   6.127   2.915   1.211 -0.2866 -0.1061 -0.4103
   40MOL   C30830026   6.202   3.052   1.216  0.2037 -0.4159 -0.3368
   40MOL   C30930027   6.110   3.175   1.212  0.6778 -0.0282 -0.3160
   40MOL   C31030028   6.286   3.064   1.348  0.4523  0.2629 -0.6725
   40MOL   C31130029   6.385   2.950   1.369 -0.2112 -0.5972  0.8587
   40MOL   C31230030   6.300   2.819   1.368 -0.6541  0.1937 -0.2235
   40MOL   C31330031   6.394   2.703   1.413 -1.4711  0.0184 -0.0823
   40MOL   O31430032   6.319   2.593   1.459 -0.2807  1.0785  0.2400
   40MOL   C31530033   6.327   2.469   1.399 -0.2707 -0.4355  0.6680
   40MOL   O31630034   6.395   2.441   1.302 -0.1185  0.0141  0.4148
   40MOL   C31730035   6.239   2.371   1.466  0.4588 -0.4476 -0.7459
   40MOL   C31830036   6.147   2.412   1.566  0.3371 -0.1282 -0.6470
   40MOL   C31930037   6.069   2.322   1.638  0.2569  1.0319 -0.1283
   40MOL   C32030038   6.078   2.181   1.612  0.3076  0.5563  0.5250
   40MOL   C32130039   5.967   2.098   1.673 -0.2234  0.3708  0.0353
   40MOL   O32230040   5.884   2.137   1.760 -1.0089 -0.5735  0.2716
   40MOL   O32330041   5.953   1.979   1.619 -0.0805  0.1473  0.5181
   40MOL   C32430042   6.179   2.139   1.520  0.3613 -0.1980  0.1569
   40MOL   C32530043   6.252   2.234   1.447 -0.1277  0.2413 -0.1882
   40MOL   H32630044   6.310   2.799   1.158  0.5964  0.6868 -0.3288
   40MOL   H32730045   6.191   2.698   1.221 -1.1508  0.2155 -1.0257
   40MOL   H32830046   6.043   2.912   1.280  0.1705  1.2432  0.2266
   40MOL   H32930047   6.082   2.907   1.112 -1.7041 -0.3044  0.2435
   40MOL   H33030048   6.276   3.060   1.136 -1.6958  2.6687 -1.8884
   40MOL   H33130049   6.139   3.260   1.275  1.1624 -0.4381  0.0177
   40MOL   H33230050   6.017   3.150   1.263 -1.0315  2.0677 -2.3456
   40MOL   H33330051   6.228   3.074   1.439  0.0564  0.5327 -0.9533
   40MOL   H33430052   6.342   3.158   1.341  3.6379 -1.4074  1.1553
   40MOL   H33530053   6.459   2.959   1.289  0.3742  0.5877  1.5301
   40MOL   H33630054   6.447   2.953   1.458  1.1324  1.9138 -0.1015
   40MOL   H33730055   6.221   2.810   1.443 -2.1967  1.4972 -1.6439
   40MOL   H33830056   6.442   2.735   1.505 -1.7012 -1.6816  0.6357
   40MOL   H33930057   6.479   2.679   1.350  1.5233  1.9372  3.0856
   40MOL   H34030058   6.131   2.518   1.578  0.7208 -0.1293 -0.1472
   40MOL   H34130059   5.983   2.358   1.693 -0.9483  1.0726 -1.9500
   40MOL   H34230060   6.183   2.032   1.504 -2.0114  0.0515 -2.6217
   40MOL   H34330061   6.331   2.204   1.379 -0.1970  0.6870 -0.4675
   40MOL   C34430062   5.690   1.645   1.403  0.6169 -0.2163  0.2619
   40MOL   C34530063   5.698   1.759   1.508  0.0807  0.5990  0.1492
   40MOL   C34630064   5.843   1.761   1.574  0.0159  0.4568  0.3785
   40MOL   C34730065   5.850   1.887   1.668  0.1215 -0.5813 -0.5616
   40MOL   C34830066   5.874   1.616   1.633  0.5467 -0.1995 -0.1646
   40MOL   C34930067   5.855   1.508   1.524  0.0485 -0.2251  0.7614
   40MOL   C35030068   5.717   1.504   1.461 -0.0824  0.0721 -0.5973
   40MOL   C35130069   5.705   1.390   1.364 -0.4536  0.2248  0.5500
   40MOL   O35230070   5.573   1.372   1.340  0.1941 -0.1475 -0.1555
   40MOL   C35330071   5.535   1.280   1.247 -0.3585 -0.0095 -0.2128
   40MOL   O35430072   5.615   1.197   1.199 -0.1504 -0.2642  0.3090
   40MOL   C35530073   5.385   1.283   1.217 -0.3781 -0.5508  0.1394
   40MOL   C35630074   5.305   1.388   1.279 -0.6820 -0.4469 -0.6831
   40MOL   C35730075   5.171   1.390   1.262 -0.1823 -0.4018 -0.5678
   40MOL   C35830076   5.108   1.286   1.188 -0.1993  0.2979  0.9154
   40MOL   C35930077   4.963   1.274   1.180  0.0889  0.2546  0.3289
   40MOL   O36030078   4.911   1.199   1.097  0.4537  0.0153  0.1467
   40MOL   O36130079   4.887   1.342   1.273 -0.0692  0.3919 -0.1354
   40MOL   C36230080   5.184   1.183   1.116 -0.3389 -0.3768  0.0215
   40MOL   C36330081   5.325   1.187   1.143 -0.2861  0.2754  0.0980
   40MOL   H36430082   5.768   1.671   1.332  0.0980 -3.3068 -1.5171
   40MOL   H36530083   5.604   1.655   1.337  1.1219 -0.6799 -0.4739
   40MOL   H36630084   5.621   1.741   1.583 -0.8521  0.6734 -0.7845
   40MOL   H36730085   5.678   1.856   1.463  0.7851  0.6180 -0.1368
   40MOL   H36830086   5.921   1.772   1.498  0.1435  2.1457  0.7461
   40MOL   H36930087   5.881   1.858   1.768  2.1165  1.1397 -0.6545
   40MOL   H37030088   5.752   1.933   1.680 -0.8289 -2.5590 -0.3934
   40MOL   H37130089   5.810   1.593   1.718 -0.2042 -1.3238 -1.0192
   40MOL   H37230090   5.975   1.613   1.674  0.6058 -3.0972 -0.4327
   40MOL   H37330091   5.916   1.537   1.438  1.2315 -1.1925  1.2511
   40MOL   H37430092   5.887   1.406   1.549  1.9302  0.0635 -0.3494
   40MOL   H37530093   5.648   1.482   1.542  0.3696 -0.0926 -0.2607
   40MOL   H37630094   5.748   1.299   1.406 -0.8103 -0.0580  0.3115
   40MOL   H37730095   5.757   1.408   1.270  0.8267 -1.6107  0.8743
   40MOL   H37830096   5.349   1.472   1.331 -0.7377 -0.6319 -0.3379
   40MOL   H37930097   5.115   1.463   1.319 -0.2184  0.2270 -1.4025
   40MOL   H38030098   5.149   1.099   1.058  0.8699 -0.7445 -0.1781
   40MOL   H38130099   5.387   1.109   1.102 -0.1157  0.2797  0.3492
   40MOL   C38230100   4.590   1.032   1.527  0.3897 -0.1970 -0.4861
   40MOL   C38330101   4.586   1.142   1.426 -0.0108 -0.3753 -0.1258
   40MOL   C38430102   4.726   1.213   1.418 -0.1605  0.2297 -0.1320
   40MOL   C38530103   4.750   1.306   1.294 -0.2706 -0.6590 -0.9074
   40MOL   C38630104   4.759   1.277   1.554 -0.3800 -0.1118  0.6295
   40MOL   C38730105   4.758   1.164   1.659 -0.1925  0.2024  0.4126
   40MOL   C38830106   4.618   1.093   1.673  0.7924  0.1624 -0.3009
   40MOL   C38930107   4.616   0.976   1.780  0.0980  0.0978 -0.1502
   40MOL   O39030108   4.488   0.907   1.778 -0.8003  0.6440 -0.0153
   40MOL   C39130109   4.482   0.788   1.842  0.3697 -0.1154 -0.4732
   40MOL   O39230110   4.558   0.750   1.928  0.3722  0.4665 -0.3669
   40MOL   C39330111   4.347   0.725   1.831 -0.5664  0.2401 -0.1784
   40MOL   C39430112   4.269   0.756   1.715  0.3776  0.0219  0.4659
   40MOL   C39530113   4.137   0.702   1.697  0.0645  1.2070 -0.3742
   40MOL   C39630114   4.087   0.621   1.800 -0.3428 -0.8577  0.5504
   40MOL   C39730115   3.956   0.558   1.787  0.1494  0.2945 -0.3500
   40MOL   O39830116   3.908   0.489   1.873 -0.4109  0.3108 -0.2629
   40MOL   O39930117   3.901   0.581   1.666  0.5784  0.4158  0.4809
   40MOL   C40030118   4.166   0.587   1.915 -0.4269  0.2964  0.3700
   40MOL   C40130119   4.301   0.635   1.926  0.2915 -0.0032  0.4716
   40MOL   H40230120   4.663   0.954   1.503 -2.0536 -2.7965  0.2144
   40MOL   H40330121   4.491   0.985   1.523  0.1393  0.0488  2.2861
   40MOL   H40430122   4.508   1.211   1.456 -1.1665 -2.1638  1.0826
   40MOL   H40530123   4.564   1.096   1.330  1.6652 -0.0275 -0.6882
   40MOL   H40630124   4.806   1.140   1.409 -0.6740 -0.2323 -1.0211
   40MOL   H40730125   4.678   1.387   1.308 -2.1750 -2.6010  0.8371
   40MOL   H40830126   4.705   1.257   1.208  1.0983  1.5181 -2.9576
   40MOL   H40930127   4.686   1.355   1.574 -0.4735 -0.3594  1.2583
   40MOL   H41030128   4.862   1.314   1.555 -0.0690 -0.9560 -0.0190
   40MOL   H41130129   4.839   1.098   1.630  0.0118  0.7621 -0.3050
   40MOL   H41230130   4.788   1.204   1.756  0.0738  2.2039 -0.4851
   40MOL   H41330131   4.539   1.166   1.689  1.6096  1.4860 -2.0593
   40MOL   H41430132   4.647   1.009   1.879 -0.3075 -0.4400  0.1598
   40MOL   H41530133   4.686   0.901   1.742 -1.5218 -1.2072 -0.6453
   40MOL   H41630134   4.307   0.828   1.644  2.0480  0.6806  2.0258
   40MOL   H41730135   4.069   0.727   1.617 -1.1785  0.1172  0.3363
   40MOL   H41830136   4.137   0.514   1.990  1.0440 -0.4901  0.1865
   40MOL   H41930137   4.368   0.602   2.004 -0.0973 -1.8844  0.0319
   40MOL   C42030138   3.759   0.636   1.237 -0.8791 -0.7763  0.1991
   40MOL   C42130139   3.766   0.637   1.391 -0.2459 -0.6013 -0.7040
   40MOL   C42230140   3.775   0.497   1.457 -0.3763 -0.5769  0.8040
   40MOL   C42330141   3.787   0.500   1.616  0.6509  0.2253 -1.0857
   40MOL   C42430142   3.663   0.415   1.404 -0.0484  0.5453  0.8101
   40MOL   C42530143   3.636   0.420   1.251 -0.1384  0.4625 -0.4024
   40MOL   C42630144   3.631   0.559   1.204 -0.0196 -0.4781 -0.0123
   40MOL   C42730145   3.611   0.556   1.050 -0.4713  0.0418 -0.0683
   40MOL   O42830146   3.601   0.689   1.009  0.5528 -0.6205 -0.1312
   40MOL   C42930147   3.641   0.717   0.884 -1.0451  0.0963  0.2420
   40MOL   O43030148   3.673   0.623   0.806 -0.0914 -0.2894 -0.4588
   40MOL   C43130149   3.651   0.860   0.845  0.5611  0.2204 -0.3525
   40MOL   C43230150   3.610   0.957   0.942  0.7189 -0.4734  0.5053
   40MOL   C43330151   3.612   1.095   0.914 -0.0055  0.1652  0.2940
   40MOL   C43430152   3.661   1.138   0.792  0.0243  0.3435 -0.1950
   40MOL   C43530153   3.632   1.276   0.750  0.3828  0.0127  0.3592
   40MOL   O43630154   3.534   1.335   0.786 -0.3903  0.3221  0.3901
   40MOL   O43730155   3.722   1.318   0.672  0.2839  0.1914  0.0942
   40MOL   C43830156   3.699   1.043   0.692  0.0268  0.2737 -0.2401
   40MOL   C43930157   3.691   0.904   0.719 -0.6718  0.1935  0.9035
   40MOL   H44030158   3.844   0.581   1.198 -0.4092  0.1135 -0.0431
   40MOL   H44130159   3.758   0.734   1.189 -1.9300 -0.5375  0.6751
   40MOL   H44230160   3.687   0.693   1.439  1.6816  0.8567  0.8679
   40MOL   H44330161   3.856   0.690   1.425 -1.1326 -0.6467  1.8145
   40MOL   H44430162   3.867   0.455   1.416 -1.2017 -2.5283  0.9206
   40MOL   H44530163   3.813   0.397   1.639 -2.9300 -0.0746  2.0396
   40MOL   H44630164   3.696   0.541   1.660  0.4844  0.5909 -1.7675
   40MOL   H44730165   3.572   0.459   1.446 -1.2060 -0.8773 -0.1554
   40MOL   H44830166   3.665   0.309   1.431  3.5219 -0.0908 -1.6383
   40MOL   H44930167   3.714   0.363   1.200 -0.7730 -0.3718 -0.4570
   40MOL   H45030168   3.548   0.363   1.222  0.3148 -0.4422 -0.0102
   40MOL   H45130169   3.549   0.612   1.254 -1.0661 -1.6443 -0.4717
   40MOL   H45230170   3.530   0.489   1.022 -1.4351  1.3458 -0.4606
   40MOL   H45330171   3.708   0.521   1.016 -0.3052  2.7230 -2.5276
   40MOL   H45430172   3.567   0.937   1.039 -1.4886  1.8518  0.0840
   40MOL   H45530173   3.562   1.162   0.982  1.8146  0.1812  1.6715
   40MOL   H45630174   3.722   1.068   0.589  0.6020  1.1409  0.0982
   40MOL   H45730175   3.726   0.835   0.644  1.6145  1.2628  0.9453
   40MOL   C45830176   3.886   1.772   0.772  0.2252  0.2878 -0.0464
   40MOL   C45930177   3.797   1.679   0.686 -0.3911 -0.3449  0.8372
   40MOL   C46030178   3.795   1.535   0.731  0.0956 -0.3007 -0.6994
   40MOL   C46130179   3.723   1.449   0.622  0.3164 -0.6708  0.0714
   40MOL   C46230180   3.935   1.478   0.775 -0.1050  0.3596  0.8268
   40MOL   C46330181   4.007   1.578   0.875  0.1711 -0.3345  0.5493
   40MOL   C46430182   4.024   1.706   0.799 -0.3398 -0.1815 -0.1684
   40MOL   C46530183   4.123   1.800   0.861 -0.7105  0.3932  0.4661
   40MOL   O46630184   4.087   1.863   0.985  0.1049 -0.6214  0.0954
   40MOL   C46730185   4.136   1.812   1.102 -0.1732  0.0220  0.1058
   40MOL   O46830186   4.203   1.707   1.098 -0.3437  0.4016  0.1699
   40MOL   C46930187   4.108   1.901   1.225  0.7451 -0.0165 -0.2578
   40MOL   C47030188   4.154   1.874   1.354  0.6934 -0.2702 -0.3544
   40MOL   C47130189   4.127   1.962   1.460  0.1511  0.0880  0.5384
   40MOL   C47230190   4.041   2.066   1.435  0.3501 -0.4442  0.2446
   40MOL   C47330191   3.997   2.146   1.560 -0.5884 -0.9039  0.2409
   40MOL   O47430192   4.042   2.128   1.668  0.1189 -0.0485  0.4539
   40MOL   O47530193   3.893   2.240   1.541  1.0173 -0.6813 -0.4661
   40MOL   C47630194   3.989   2.101   1.310 -0.1072  0.1854  0.1054
   40MOL   C47730195   4.036   2.017   1.202  0.7752  0.4763  0.4627
   40MOL   H47830196   3.836   1.787   0.868 -1.8766 -1.5063 -0.8208
   40MOL   H47930197   3.895   1.875   0.739 -3.1011  1.5250  2.6023
   40MOL   H48030198   3.829   1.682   0.582 -0.1662 -1.1865  0.8789
   40MOL   H48130199   3.696   1.720   0.680  0.7699  2.5368  0.2086
   40MOL   H48230200   3.732   1.527   0.819  1.7082 -3.4065  0.2302
   40MOL   H48330201   3.775   1.453   0.527  0.9018  1.2133  0.4532
   40MOL   H48430202   3.622   1.484   0.601  0.7766 -0.5016 -1.9714
   40MOL   H48530203   3.997   1.460   0.687 -0.8925  0.4895  0.2360
   40MOL   H48630204   3.920   1.380   0.819 -1.8354  0.4497  0.4922
   40MOL   H48730205   3.949   1.597   0.965 -0.0584  1.8047 -0.0071
   40MOL   H48830206   4.107   1.554   0.911  0.5528  0.1599 -0.1596
   40MOL   H48930207   4.065   1.671   0.704 -0.7506 -4.5697  1.1942
   40MOL   H49030208   4.140   1.871   0.780 -1.0768 -1.0568 -0.8933
   40MOL   H49130209   4.222   1.753   0.867 -0.6469  0.0695 -2.4510
   40MOL   H49230210   4.207   1.780   1.363  1.0182 -0.1186 -0.6780
   40MOL   H49330211   4.174   1.950   1.556 -0.9844 -0.1830  1.0732
   40MOL   H49430212   3.938   2.194   1.291  0.1626  0.5322  1.0454
   40MOL   H49530213   4.007   2.046   1.102 -0.4775  3.6018  1.6379
   40MOL   C49630214   4.115   2.611   1.509  0.3515  0.1038 -0.2071
   40MOL   C49730215   4.073   2.488   1.586 -0.1891 -0.6900  0.6180
   40MOL   C49830216   3.919   2.469   1.588  0.5153 -0.0456  0.2909
   40MOL   C49930217   3.862   2.337   1.637 -0.7602  0.3209  0.3256
   40MOL   C50030218   3.867   2.590   1.669 -0.1909 -0.0064 -0.4780
   40MOL   C50130219   3.895   2.724   1.599  0.1345 -0.3123 -0.1188
   40MOL   C50230220   4.045   2.746   1.559  0.1178  0.9800 -0.2808
   40MOL   C50330221   4.074   2.859   1.447  0.1207 -0.6870  0.3897
   40MOL   O50430222   4.015   2.989   1.466  0.2879  0.2255  0.3774
   40MOL   C50530223   4.058   3.086   1.382  0.0759 -0.2185  0.2790
   40MOL   O50630224   4.133   3.056   1.288  0.1380 -0.2218  0.1303
   40MOL   C50730225   4.012   3.219   1.422 -0.3153  0.9891 -0.0783
   40MOL   C50830226   3.928   3.248   1.536  0.1091  0.1830  0.2134
   40MOL   C50930227   3.890   3.377   1.573  0.3203  0.3216  0.1091
   40MOL   C51030228   3.928   3.486   1.485  0.5224 -0.3550  0.3747
   40MOL   C51130229   3.889   3.626   1.510 -0.6437 -0.0706  0.8721
   40MOL   O51230230   3.813   3.657   1.604 -0.1893 -0.1426 -0.0093
   40MOL   O51330231   3.966   3.720   1.439  0.0199  0.6114 -0.3160
   40MOL   C51430232   3.994   3.451   1.368  0.1522 -0.6408 -0.0030
   40MOL   C51530233   4.036   3.322   1.330  0.0199 -0.0896  0.5921
   40MOL   H51630234   4.081   2.585   1.409  1.4441 -1.1350 -0.2686
   40MOL   H51730235   4.223   2.624   1.502  0.7702 -1.6404  2.3558
   40MOL   H51830236   4.107   2.507   1.688  1.5813  2.1911 -0.4336
   40MOL   H51930237   4.119   2.395   1.553 -1.3964 -1.1773  0.2706
   40MOL   H52030238   3.884   2.472   1.485  0.1812 -0.7081  0.3788
   40MOL   H52130239   3.755   2.339   1.653 -0.5406  0.7385  1.8241
   40MOL   H52230240   3.913   2.315   1.731  1.0749 -1.1229 -0.9478
   40MOL   H52330241   3.910   2.589   1.769  1.2016  1.3949 -1.0429
   40MOL   H52430242   3.762   2.597   1.697  0.1827  3.1086  0.4176
   40MOL   H52530243   3.857   2.723   1.497 -2.1840 -2.8211  0.7160
   40MOL   H52630244   3.846   2.811   1.644  2.1428  1.7775 -1.8755
   40MOL   H52730245   4.093   2.778   1.651  2.4482 -3.2090  0.1316
   40MOL   H52830246   4.057   2.822   1.346 -0.0203  2.6339 -0.8780
   40MOL   H52930247   4.181   2.879   1.441 -0.1387  1.3955  1.8681
   40MOL   H53030248   3.886   3.163   1.589 -1.2887  1.0705  0.5407
   40MOL   H53130249   3.829   3.404   1.658  2.2813 -0.7409  1.9051
   40MOL   H53230250   4.019   3.526   1.294  0.3713 -0.8249 -0.1120
   40MOL   H53330251   4.088   3.312   1.236  0.1141 -0.5681  0.6962
   40MOL   C53430252   4.152   4.062   1.735 -0.8449 -0.1301 -0.0643
   40MOL   C53530253   4.047   4.026   1.636 -0.1913 -0.4153  0.1311
   40MOL   C53630254   4.074   3.891   1.574 -0.3727  0.9431  0.3628
   40MOL   C53730255   3.968   3.853   1.472 -0.5603  0.1612  0.2892
   40MOL   C53830256   4.212   3.878   1.507 -0.1153 -0.3660  0.1082
   40MOL   C53930257   4.329   3.919   1.605  0.8828 -0.0857 -0.2343
   40MOL   C54030258   4.300   4.050   1.676 -0.2546 -0.4499 -0.1005
   40MOL   C54130259   4.389   4.058   1.796  0.7382 -0.0155 -0.2741
   40MOL   O54230260   4.408   4.198   1.825  0.0793  0.1820 -0.1701
   40MOL   C54330261   4.512   4.231   1.893 -0.9992 -0.0320 -0.0638
   40MOL   O54430262   4.588   4.157   1.953 -0.5408 -0.4206  0.7457
   40MOL   C54530263   4.541   4.380   1.888  0.1869  0.1200  0.5354
   40MOL   C54630264   4.436   4.470   1.871 -0.7455  0.0009  0.2239
   40MOL   C54730265   4.467   4.609   1.869 -0.3344 -0.1597 -0.2217
   40MOL   C54830266   4.599   4.656   1.893 -0.2149  0.9669  0.3634
   40MOL   C54930267   4.635   4.804   1.886  0.1344 -0.0741 -0.0681
   40MOL   O55030268   4.742   4.851   1.936  0.6626 -0.3239  0.3718
   40MOL   O55130269   4.536   4.870   1.823 -0.4102  0.5619 -0.3400
   40MOL   C55230270   4.701   4.565   1.920  0.2268  0.4726  0.6433
   40MOL   C55330271   4.674   4.429   1.910 -0.2218  0.3262  0.1772
   40MOL   H55430272   4.145   4.002   1.826  3.7020  1.5513  1.5424
   40MOL   H55530273   4.138   4.165   1.767  0.2156  0.0655 -0.2109
   40MOL   H55630274   4.037   4.107   1.564 -0.4892  0.0981  0.7379
   40MOL   H55730275   3.950   4.013   1.684  0.4748 -1.4220  1.2553
   40MOL   H55830276   4.075   3.816   1.653  1.1509  0.1091 -0.4295
   40MOL   H55930277   3.966   3.919   1.385  0.5429  0.2024  0.2878
   40MOL   H56030278   3.867   3.880   1.504 -0.4004 -0.8821  1.7466
   40MOL   H56130279   4.221   3.930   1.412 -2.7386 -0.1647 -0.0838
   40MOL   H56230280   4.222   3.775   1.474 -0.5130 -0.1953 -0.5472
   40MOL   H56330281   4.338   3.841   1.680 -2.9373 -1.1298 -0.7638
   40MOL   H56430282   4.418   3.923   1.543  2.2536 -0.5675  1.6752
   40MOL   H56530283   4.320   4.141   1.618  3.9641 -0.0638  1.7614
   40MOL   H56630284   4.482   4.005   1.775  1.1390  0.7644 -0.4636
   40MOL   H56730285   4.354   4.007   1.886  2.0092 -1.3048 -0.4816
   40MOL   H56830286   4.337   4.428   1.859 -1.0947  0.4045  1.5985
   40MOL   H56930287   4.385   4.677   1.853 -0.2877 -0.3436 -1.3107
   40MOL   H57030288   4.803   4.599   1.936  1.1511 -1.9935  0.1581
   40MOL   H57130289   4.746   4.352   1.934 -1.2511 -0.0584  2.1295
   40MOL   C57230290   4.348   5.269   1.613  0.3622 -0.8243 -0.2848
   40MOL   C57330291   4.478   5.216   1.692 -0.4901  0.4184  0.5551
   40MOL   C57430292   4.436   5.089   1.758 -0.1144  0.4176 -0.3373
   40MOL   C57530293   4.553   5.012   1.822  0.5202 -0.3439 -0.8409
   40MOL   C57630294   4.326   5.130   1.865 -0.9998  0.1744  0.1677
   40MOL   C57730295   4.203   5.206   1.808  0.3721  0.2931 -0.3783
   40MOL   C57830296   4.241   5.326   1.713 -0.5130 -0.0051  0.6573
   40MOL   C57930297   4.123   5.391   1.642 -0.1551  0.5465 -0.3268
   40MOL   O58030298   4.071   5.303   1.546  0.7331  0.3364  0.1720
   40MOL   C58130299   3.993   5.356   1.460 -0.0299 -0.4665 -0.2175
   40MOL   O58230300   3.939   5.467   1.465 -1.0002  0.5639 -0.1474
   40MOL   C58330301   3.975   5.262   1.345  0.2654 -0.0010 -0.2365
   40MOL   C58430302   3.857   5.259   1.275  0.2926 -0.9024 -0.2602
   40MOL   C58530303   3.832   5.173   1.170 -1.1914  0.1552 -0.1727
   40MOL   C58630304   3.945   5.095   1.120 -0.3463  0.4520  0.1953
   40MOL   C58730305   3.931   5.003   1.003 -0.4514  0.5130 -0.0009
   40MOL   O58830306   4.022   4.925   0.966 -0.1019 -0.1796  0.7504
   40MOL   O58930307   3.807   5.009   0.951  0.0795  0.0931 -0.4991
   40MOL   C59030308   4.064   5.101   1.190  0.1900  0.2214 -0.4008
   40MOL   C59130309   4.074   5.169   1.309  0.1757 -0.5472 -0.2038
   40MOL   H59230310   4.301   5.191   1.554 -0.3395 -1.5017  1.1513
   40MOL   H59330311   4.377   5.353   1.550  0.7446  0.7917  1.9792
   40MOL   H59430312   4.515   5.291   1.762 -0.4266 -0.1879  1.1776
   40MOL   H59530313   4.564   5.195   1.629  0.4009  0.8767  1.6172
   40MOL   H59630314   4.391   5.018   1.688 -0.3765 -2.0920  2.2564
   40MOL   H59730315   4.568   5.041   1.926  1.1277 -1.4700 -0.6057
   40MOL   H59830316   4.643   5.017   1.761  0.8115  1.9104 -0.2501
   40MOL   H59930317   4.359   5.195   1.946  2.2393 -0.5322 -0.4960
   40MOL   H60030318   4.279   5.048   1.920 -3.0850  1.4955  0.3775
   40MOL   H60130319   4.134   5.149   1.746 -0.4650 -0.6953  1.4364
   40MOL   H60230320   4.152   5.246   1.895 -1.9223 -1.1871 -0.9964
   40MOL   H60330321   4.286   5.406   1.771  1.1782  0.2194 -0.9084
   40MOL   H60430322   4.162   5.482   1.598  0.5689  1.3826  1.9484
   40MOL   H60530323   4.049   5.432   1.709 -0.6214 -0.2336 -0.3566
   40MOL   H60630324   3.774   5.322   1.306 -1.5425 -3.7221  0.8453
   40MOL   H60730325   3.736   5.181   1.120 -0.8462  2.3426 -0.5186
   40MOL   H60830326   4.147   5.041   1.157  1.6974  1.6360  0.7597
   40MOL   H60930327   4.159   5.157   1.374  0.0019  0.8968  0.3200
   40MOL   C61030328   3.413   5.040   0.759 -0.2846 -0.6366 -0.4502
   40MOL   C61130329   3.541   5.001   0.841 -0.3301 -0.5401  0.2125
   40MOL   C61230330   3.664   4.997   0.753 -0.0032 -0.1639 -0.0275
   40MOL   C61330331   3.779   4.931   0.834  0.2585  0.0277 -0.0709
   40MOL   C61430332   3.650   4.928   0.622  0.5489 -0.0876  0.1766
   40MOL   C61530333   3.528   4.976   0.544 -0.3881 -0.2315  0.2132
   40MOL   C61630334   3.402   4.951   0.630  0.4835 -0.3215  0.7478
   40MOL   C61730335   3.270   4.972   0.560 -0.8599  0.1425 -1.1296
   40MOL   O61830336   3.172   4.955   0.658 -0.1955 -0.0414 -0.0274
   40MOL   C61930337   3.048   4.950   0.613  0.6242  0.0085  0.9278
   40MOL   O62030338   3.020   4.941   0.490 -0.5433  0.4167  0.0022
   40MOL   C62130339   2.945   4.957   0.724 -0.6139 -0.4152  0.1889
   40MOL   C62230340   2.977   4.868   0.833 -0.2553 -0.7350  0.1922
   40MOL   C62330341   2.879   4.840   0.929  0.3967  1.0422 -0.2717
   40MOL   C62430342   2.752   4.903   0.917  0.5741  0.4067 -0.2976
   40MOL   C62530343   2.648   4.892   1.015 -0.2390  0.1221 -0.5793
   40MOL   O62630344   2.532   4.916   0.990  0.3164  0.1574  0.2235
   40MOL   O62730345   2.701   4.857   1.135 -0.0879 -0.4200  0.3993
   40MOL   C62830346   2.723   4.982   0.802  0.3820  0.1531  0.6776
   40MOL   C62930347   2.816   5.006   0.699  0.4789 -0.4719 -0.2898
   40MOL   H63030348   3.430   5.145   0.736 -0.7773 -0.5904 -0.6023
   40MOL   H63130349   3.325   5.028   0.822  1.2124 -0.6406  1.6913
   40MOL   H63230350   3.516   4.901   0.877 -0.4340 -0.4946  0.2647
   40MOL   H63330351   3.555   5.076   0.918 -2.0917 -0.5965  0.5965
   40MOL   H63430352   3.689   5.100   0.727  0.9554  0.1900  2.1395
   40MOL   H63530353   3.868   4.932   0.771  0.3236  0.9916  0.0346
   40MOL   H63630354   3.759   4.827   0.861 -0.6765 -0.0074 -0.8835
   40MOL   H63730355   3.639   4.823   0.648  0.7719  0.5867  3.1824
   40MOL   H63830356   3.735   4.935   0.554  0.3659 -0.5089 -0.0983
   40MOL   H63930357   3.529   5.079   0.510 -3.4605  0.1353  1.0441
   40MOL   H64030358   3.522   4.920   0.451  1.8548  0.3599 -0.3024
   40MOL   H64130359   3.391   4.851   0.671 -0.2147 -0.2933  0.6261
   40MOL   H64230360   3.273   4.892   0.486  2.2582 -1.3069  0.4777
   40MOL   H64330361   3.262   5.071   0.514  1.6212  0.7245 -0.3988
   40MOL   H64430362   3.072   4.819   0.849  1.0416  0.4779 -3.3094
   40MOL   H64530363   2.894   4.767   1.008 -0.5255 -0.2250 -1.2331
   40MOL   H64630364   2.622   5.017   0.789  0.5943  0.9779  1.1575
   40MOL   H64730365   2.806   5.076   0.617 -0.3104  0.8229  0.8810
   40MOL   C64830366   2.726   5.057   1.582 -0.8391 -0.0373  0.6498
   40MOL   C64930367   2.635   4.967   1.488 -0.7318 -0.9117 -0.3324
   40MOL   C65030368   2.696   4.975   1.343 -0.0243  0.9101  0.2102
   40MOL   C65130369   2.630   4.870   1.253  0.1268 -0.0940 -0.2432
   40MOL   C65230370   2.673   5.119   1.289 -0.6055 -0.0971 -0.0808
   40MOL   C65330371   2.737   5.215   1.388 -0.1549 -0.0685 -0.2609
   40MOL   C65430372   2.697   5.201   1.539  0.2553 -0.0567 -0.3535
   40MOL   C65530373   2.755   5.317   1.632 -0.0158  0.4404 -0.2441
   40MOL   O65630374   2.894   5.321   1.634  0.0055  0.0722 -0.2162
   40MOL   C65730375   2.964   5.402   1.538  0.4579  0.5068  0.1512
   40MOL   O65830376   2.912   5.477   1.458 -0.2215 -0.4332 -0.2543
   40MOL   C65930377   3.112   5.379   1.552 -0.1567 -0.9180  0.3624
   40MOL   C66030378   3.159   5.260   1.607 -0.9059  0.1229  0.0604
   40MOL   C66130379   3.297   5.247   1.626 -0.4556  0.0356 -0.0911
   40MOL   C66230380   3.389   5.355   1.592 -0.1775  0.3056 -0.8147
   40MOL   C66330381   3.541   5.340   1.604  0.4590 -0.0008  0.0439
   40MOL   O66430382   3.625   5.412   1.550  0.6450 -0.0787  0.4467
   40MOL   O66530383   3.575   5.252   1.696  0.2843  0.3581 -0.6508
   40MOL   C66630384   3.331   5.479   1.552 -0.6491 -0.4075  0.3873
   40MOL   C66730385   3.190   5.492   1.524 -0.3295  0.1869 -0.2398
   40MOL   H66830386   2.833   5.038   1.573 -0.4533  1.4510  1.8247
   40MOL   H66930387   2.697   5.040   1.686  1.3417  2.0078  1.6369
   40MOL   H67030388   2.531   4.998   1.500  0.6761  4.0334  0.3878
   40MOL   H67130389   2.644   4.862   1.515  0.5073 -0.7710 -0.1976
   40MOL   H67230390   2.804   4.961   1.348 -0.2827 -1.5311 -0.5376
   40MOL   H67330391   2.525   4.884   1.231 -0.5448  2.2449  3.8600
   40MOL   H67430392   2.635   4.773   1.303  0.1919 -0.7191 -1.4426
   40MOL   H67530393   2.568   5.141   1.271 -1.0885 -2.1511  0.1784
   40MOL   H67630394   2.730   5.126   1.196  1.6035 -0.1866  1.2205
   40MOL   H67730395   2.845   5.206   1.377 -0.2172  1.1524 -2.0030
   40MOL   H67830396   2.707   5.318   1.370  0.8343 -0.3039 -3.6392
   40MOL   H67930397   2.590   5.214   1.548  0.0205 -2.8089  1.2997
   40MOL   H68030398   2.720   5.294   1.733  2.6525  1.0245  0.8381
   40MOL   H68130399   2.713   5.414   1.606  0.1541  0.1211 -1.7254
   40MOL   H68230400   3.098   5.173   1.626  0.3686 -0.4629  1.6243
   40MOL   H68330401   3.332   5.160   1.678  1.4378  2.0896  2.1891
   40MOL   H68430402   3.390   5.567   1.531 -0.2774 -0.8242 -0.3507
   40MOL   H68530403   3.144   5.589   1.507  0.0679  0.2698 -0.8551
   40MOL   C68630404   3.865   4.884   1.847 -0.1123  0.0883  0.0647
   40MOL   C68730405   3.862   5.019   1.778 -0.4045  0.5205  0.9907
   40MOL   C68830406   3.716   5.062   1.744 -0.1197 -0.5107  0.0018
   40MOL   C68930407   3.708   5.214   1.714  0.0813  0.1344 -0.2466
   40MOL   C69030408   3.659   4.958   1.656 -0.5064 -0.2613  0.3056
   40MOL   C69130409   3.654   4.827   1.726 -0.2013 -0.5866 -0.2048
   40MOL   C69230410   3.797   4.777   1.767  0.0775  0.0425  0.0715
   40MOL   C69330411   3.788   4.644   1.839 -0.1715  0.8738 -0.4528
   40MOL   O69430412   3.745   4.550   1.744 -0.3676 -0.2370 -0.5208
   40MOL   C69530413   3.828   4.465   1.675  0.3048  0.6635 -0.2412
   40MOL   O69630414   3.949   4.463   1.660 -0.3064  0.3376 -0.0018
   40MOL   C69730415   3.752   4.364   1.604  0.4875 -0.3444  0.5432
   40MOL   C69830416   3.824   4.262   1.538 -0.1467 -0.4199  0.0486
   40MOL   C69930417   3.755   4.160   1.471 -0.1328  0.0927  0.1415
   40MOL   C70030418   3.612   4.151   1.475 -0.8121  0.1158 -0.1430
   40MOL   C70130419   3.533   4.047   1.397  0.2026  0.3529  0.3449
   40MOL   O70230420   3.416   4.051   1.374  0.3396 -0.4340 -0.1393
   40MOL   O70330421   3.613   3.953   1.336  0.3063  0.9389 -0.0816
   40MOL   C70430422   3.544   4.254   1.538  0.4170  0.1819  0.5642
   40MOL   C70530423   3.613   4.362   1.595 -0.6082  0.4875 -0.0506
   40MOL   H70630424   3.820   4.894   1.946  1.7963  1.8881  0.7843
   40MOL   H70730425   3.967   4.856   1.873  0.2935  1.0579 -0.4695
   40MOL   H70830426   3.918   5.026   1.685  0.2814  2.5103  1.5297
   40MOL   H70930427   3.915   5.086   1.846 -0.7805  0.0785  1.7247
   40MOL   H71030428   3.670   5.048   1.842  3.3732 -0.8415  1.6603
   40MOL   H71130429   3.778   5.239   1.634 -0.9237  2.4526 -0.4569
   40MOL   H71230430   3.745   5.278   1.794 -2.7840  0.3464  0.9783
   40MOL   H71330431   3.716   4.953   1.563 -0.6267  1.8782  0.0988
   40MOL   H71430432   3.560   4.997   1.630 -0.2531 -0.1807 -0.5722
   40MOL   H71530433   3.578   4.831   1.804  2.5322  0.7386  2.5142
   40MOL   H71630434   3.607   4.752   1.662 -1.9105 -0.0140  0.3701
   40MOL   H71730435   3.859   4.749   1.682 -1.0062 -3.1635  0.2963
   40MOL   H71830436   3.717   4.639   1.922 -1.3558 -2.3169 -1.5916
   40MOL   H71930437   3.883   4.627   1.889 -1.7846 -0.7358  2.2182
   40MOL   H72030438   3.932   4.265   1.528 -0.2943 -2.0715 -2.8579
   40MOL   H72130439   3.805   4.086   1.411 -1.4397  1.2983 -2.5282
   40MOL   H72230440   3.437   4.266   1.530  0.5653  0.9158 -0.4280
   40MOL   H72330441   3.562   4.443   1.644  2.7194  2.3992  0.4296
   40MOL   C72430442   3.575   3.476   1.273 -0.0200  0.3470 -0.2878
   40MOL   C72530443   3.562   3.607   1.186  0.1797 -0.3393 -0.3445
   40MOL   C72630444   3.560   3.725   1.295  0.2659  0.1839  0.1934
   40MOL   C72730445   3.557   3.866   1.240  0.0677 -0.2465  0.3845
   40MOL   C72830446   3.438   3.705   1.393  0.4608 -0.3239  0.3297
   40MOL   C72930447   3.442   3.566   1.457 -0.0952  0.4242  0.3437
   40MOL   C73030448   3.452   3.452   1.351  0.1976  0.1165  0.0058
   40MOL   C73130449   3.447   3.313   1.410  0.1124 -0.5678 -0.0629
   40MOL   O73230450   3.446   3.219   1.307 -0.1406  0.3490  0.4490
   40MOL   C73330451   3.335   3.160   1.262 -0.3705 -0.9822 -0.0253
   40MOL   O73430452   3.218   3.195   1.283  0.4815  0.4131 -0.0736
   40MOL   C73530453   3.350   3.032   1.197 -0.5811  0.5987 -0.3214
   40MOL   C73630454   3.251   2.981   1.116  0.6367 -0.0027  0.3785
   40MOL   C73730455   3.256   2.852   1.051  0.1147  0.6306  0.3170
   40MOL   C73830456   3.362   2.770   1.088 -0.8135  0.4449  0.1903
   40MOL   C73930457   3.367   2.629   1.042 -0.2717  0.1315  0.4914
   40MOL   O74030458   3.319   2.595   0.930  0.3303 -0.1358 -0.1794
   40MOL   O74130459   3.409   2.540   1.139 -0.0718 -0.4116 -0.2616
   40MOL   C74230460   3.464   2.814   1.172 -0.4322 -0.0680 -0.4461
   40MOL   C74330461   3.463   2.952   1.224  0.1586  0.0667 -1.0826
   40MOL   H74430462   3.668   3.472   1.330 -0.4798  0.3254  0.4645
   40MOL   H74530463   3.583   3.389   1.208 -0.4651  0.5571 -0.6276
   40MOL   H74630464   3.468   3.614   1.132 -0.7094  0.6534  1.2702
   40MOL   H74730465   3.652   3.614   1.125  0.9806 -0.7972  0.7559
   40MOL   H74830466   3.654   3.717   1.349  0.0054  0.3125  0.6665
   40MOL   H74930467   3.456   3.893   1.208 -0.4773 -1.4072  1.1066
   40MOL   H75030468   3.630   3.863   1.160  2.5493  0.0950  2.5756
   40MOL   H75130469   3.352   3.706   1.325 -0.2618  0.4005  1.2394
   40MOL   H75230470   3.432   3.792   1.458 -0.1431  0.9338 -1.3990
   40MOL   H75330471   3.524   3.555   1.528  0.7767  1.2458 -0.5212
   40MOL   H75430472   3.344   3.559   1.504 -0.4717  1.9351 -0.2052
   40MOL   H75530473   3.370   3.451   1.278  0.4006 -0.5309 -0.2245
   40MOL   H75630474   3.350   3.301   1.458 -1.7207  0.0881 -3.4189
   40MOL   H75730475   3.529   3.289   1.478  0.2668  1.2538  0.4058
   40MOL   H75830476   3.162   3.037   1.091  0.3474 -2.3506 -4.5002
   40MOL   H75930477   3.178   2.814   0.987 -0.0010 -0.0949  0.8720
   40MOL   H76030478   3.538   2.739   1.196 -1.2652 -1.1578 -1.2732
   40MOL   H76130479   3.533   2.983   1.299 -1.8705 -2.9185  2.1861
   40MOL   H76230480   3.339   2.477   1.146 -0.6369  0.2542  0.0594
   41MOL     C130481   0.545   4.916   3.285  0.3567 -0.6490  0.4596
   41MOL     C230482   0.685   4.979   3.268  0.9343 -0.6511 -0.8456
   41MOL     C330483   0.729   4.983   3.110  0.2585 -0.2541 -0.1299
   41MOL     C430484   0.861   5.064   3.092 -0.0839 -0.1309 -0.3130
   41MOL     C530485   0.747   4.834   3.072 -0.5915 -0.3420  0.1750
   41MOL     C630486   0.618   4.761   3.099 -1.3071 -0.4934  0.6357
   41MOL     C730487   0.558   4.770   3.244  0.2928  0.6105 -0.0181
   41MOL     C830488   0.424   4.691   3.280 -0.0211 -0.0100  0.5311
   41MOL     O930489   0.444   4.545   3.286 -0.6543 -0.1214  0.2671
   41MOL    C1030490   0.422   4.486   3.406 -0.3577 -0.5530 -0.0622
   41MOL    O1130491   0.391   4.542   3.513  0.2014  0.2760  0.7904
   41MOL    C1230492   0.441   4.344   3.386 -0.2236  0.6468  0.2918
   41MOL    C1330493   0.483   4.284   3.266 -0.1947 -0.3996  0.6789
   41MOL    C1430494   0.508   4.146   3.253 -0.3120 -0.5546 -0.3706
   41MOL    C1530495   0.493   4.063   3.367 -0.0925 -0.2205 -0.3741
   41MOL    C1630496   0.524   3.918   3.368  0.4456 -0.1214 -0.1330
   41MOL    O1730497   0.519   3.854   3.474 -0.4298  0.1631  0.5546
   41MOL    O1830498   0.557   3.859   3.253 -0.0899 -0.0775 -0.4355
   41MOL    C1930499   0.452   4.122   3.489 -0.8138  0.0114 -0.3847
   41MOL    C2030500   0.430   4.258   3.503 -0.1257  0.3881  0.4269
   41MOL    H2130501   0.460   4.951   3.227  0.8578 -2.3210 -1.3502
   41MOL    H2230502   0.512   4.915   3.389 -2.6511 -2.1482 -0.4455
   41MOL    H2330503   0.751   4.928   3.338 -0.6222 -0.3741  0.8530
   41MOL    H2430504   0.688   5.080   3.311  0.8664 -1.4024  0.9767
   41MOL    H2530505   0.651   5.015   3.042 -0.6637  1.3285  1.6195
   41MOL    H2630506   0.851   5.160   3.141 -0.7545 -1.3120  1.9434
   41MOL    H2730507   0.879   5.071   2.984 -0.6113  1.2148 -0.3200
   41MOL    H2830508   0.821   4.773   3.124  0.0506 -0.5901 -1.0154
   41MOL    H2930509   0.767   4.830   2.965 -1.9978  2.7370 -0.2568
   41MOL    H3030510   0.546   4.780   3.019 -0.6250 -0.3840  0.0399
   41MOL    H3130511   0.629   4.655   3.076 -2.5560 -0.5679  0.3415
   41MOL    H3230512   0.626   4.718   3.311  0.2232 -0.7891 -1.0221
   41MOL    H3330513   0.350   4.714   3.204  0.2101  0.9311  0.5805
   41MOL    H3430514   0.376   4.724   3.372 -2.2063  1.9111 -1.2170
   41MOL    H3530515   0.489   4.344   3.177 -2.0581  1.7313  1.9403
   41MOL    H3630516   0.552   4.098   3.166 -0.9104 -0.3843 -0.7697
   41MOL    H3730517   0.448   4.064   3.580 -2.0487  1.3542  0.4569
   41MOL    H3830518   0.422   4.296   3.604 -0.9627  1.4992 -0.0511
   41MOL    H3930519   0.947   5.016   3.140  1.1082  0.0379 -2.2093
   41MOL    C4030520   0.807   3.653   2.933  0.0776  0.1084 -0.0518
   41MOL    C4130521   0.762   3.690   3.074 -0.3102 -0.3052  0.5232
   41MOL    C4230522   0.612   3.668   3.103  0.3993  0.0317  0.9505
   41MOL    C4330523   0.576   3.719   3.239 -0.3172  0.2191  0.1500
   41MOL    C4430524   0.531   3.729   2.988  0.2438  0.5488  0.1104
   41MOL    C4530525   0.578   3.661   2.863  0.6608 -0.2398 -0.2602
   41MOL    C4630526   0.717   3.697   2.823  0.3843  0.2388 -0.0084
   41MOL    C4730527   0.754   3.636   2.687 -0.3463 -0.2281 -1.2355
   41MOL    O4830528   0.672   3.658   2.577 -0.1413 -0.2784 -0.3716
   41MOL    C4930529   0.701   3.754   2.494 -0.0161 -0.6023  0.9732
   41MOL    O5030530   0.795   3.837   2.514 -0.2199  0.6782  0.4407
   41MOL    C5130531   0.615   3.740   2.375 -0.1276  0.4595  0.2143
   41MOL    C5230532   0.651   3.799   2.251  0.1930 -0.5141 -0.3705
   41MOL    C5330533   0.576   3.792   2.132  0.1771 -0.0573  0.3401
   41MOL    C5430534   0.453   3.716   2.135  0.0004  0.2155  0.2157
   41MOL    C5530535   0.370   3.724   2.015  0.2192 -0.8493  0.3686
   41MOL    O5630536   0.407   3.772   1.909 -0.4375  0.1792 -0.2944
   41MOL    O5730537   0.242   3.684   2.039 -0.2217  0.2511  0.7187
   41MOL    C5830538   0.414   3.657   2.260 -0.8842  0.0979 -0.1870
   41MOL    C5930539   0.495   3.664   2.377  0.2337  0.2195 -0.3095
   41MOL    H6030540   0.824   3.546   2.924 -0.4089  0.1435 -1.5270
   41MOL    H6130541   0.900   3.702   2.903 -1.5111  2.7452 -0.8685
   41MOL    H6230542   0.776   3.798   3.079 -1.7027 -0.0272 -1.0330
   41MOL    H6330543   0.824   3.639   3.147  1.4384  1.4301  0.2859
   41MOL    H6430544   0.583   3.563   3.103  0.1244  0.0919 -0.2714
   41MOL    H6530545   0.643   3.663   3.305 -0.8518 -1.5099 -0.7399
   41MOL    H6630546   0.483   3.671   3.271 -1.7939  2.6625 -0.3501
   41MOL    H6730547   0.541   3.837   2.977 -1.6477  0.5881 -1.5480
   41MOL    H6830548   0.427   3.700   3.005  1.0174 -2.9211 -0.9134
   41MOL    H6930549   0.571   3.552   2.871  0.0032 -0.1409  0.5933
   41MOL    H7030550   0.512   3.683   2.779 -0.4504 -1.3612  0.2872
   41MOL    H7130551   0.717   3.806   2.819  1.2457  0.2203 -0.6516
   41MOL    H7230552   0.775   3.529   2.684 -0.7623 -0.2788 -3.2444
   41MOL    H7330553   0.854   3.675   2.670  0.3842 -1.9607 -1.0788
   41MOL    H7430554   0.750   3.841   2.241 -0.8520  2.3797  0.7841
   41MOL    H7530555   0.614   3.843   2.045  3.3505 -1.0343  1.1126
   41MOL    H7630556   0.324   3.598   2.264  0.5545 -2.1262  0.2327
   41MOL    H7730557   0.459   3.612   2.464  0.8185 -1.1898 -0.8931
   41MOL    C7830558   7.923   3.957   2.100  0.3146 -0.4047  0.0529
   41MOL    C7930559   8.020   3.833   2.099 -0.1717 -0.5861 -0.0944
   41MOL    C8030560   0.037   3.804   1.953  0.3037 -0.2263 -0.3968
   41MOL    C8130561   0.138   3.686   1.944  0.2656 -0.2143  0.2602
   41MOL    C8230562   7.946   3.779   1.859 -0.1003  0.0179  0.3704
   41MOL    C8330563   7.833   3.885   1.871  0.2981  0.6385 -0.0107
   41MOL    C8430564   7.793   3.925   2.014  0.0466 -0.2309 -0.3480
   41MOL    C8530565   7.678   4.024   2.020  0.6188 -0.7982  1.2032
   41MOL    O8630566   7.567   3.963   1.957 -0.0621  0.0453  0.9545
   41MOL    C8730567   7.481   3.891   2.022 -0.0814 -0.2866  0.2418
   41MOL    O8830568   7.491   3.877   2.143  0.3068  0.3698  0.6070
   41MOL    C8930569   7.374   3.841   1.929  0.3639  0.2754  0.1445
   41MOL    C9030570   7.262   3.774   1.990  0.4091 -0.3818 -0.5179
   41MOL    C9130571   7.161   3.715   1.916  0.4045 -0.0184 -0.1386
   41MOL    C9230572   7.155   3.726   1.773 -0.0659  0.0470  0.0354
   41MOL    C9330573   7.047   3.656   1.698 -0.5520 -0.2466  0.0754
   41MOL    O9430574   7.042   3.643   1.576 -0.5630 -0.4201 -0.5560
   41MOL    O9530575   6.942   3.627   1.784 -0.6129 -0.3304 -0.0474
   41MOL    C9630576   7.270   3.784   1.707  0.0812  0.0016  0.2063
   41MOL    C9730577   7.373   3.848   1.785 -0.4408 -0.1836 -0.3693
   41MOL    H9830578   7.959   4.051   2.059 -0.1909 -0.3971 -0.3724
   41MOL    H9930579   7.887   3.987   2.199 -0.5180 -2.6891  0.4875
   41MOL   H10030580   7.959   3.754   2.143 -1.8026 -0.0604 -1.3516
   41MOL   H10130581   0.069   3.851   2.170 -0.4085  1.0963 -0.2316
   41MOL   H10230582   0.080   3.895   1.911  1.4339 -0.5877 -0.0407
   41MOL   H10330583   0.182   3.683   1.844 -0.6899  0.3010 -0.1852
   41MOL   H10430584   0.083   3.593   1.956  1.1701 -0.5858  1.6840
   41MOL   H10530585   7.916   3.683   1.900  2.6712 -0.7890  0.6323
   41MOL   H10630586   7.983   3.764   1.758 -3.9233  2.4828 -1.5175
   41MOL   H10730587   7.851   3.973   1.809 -0.8663 -0.4848 -1.9789
   41MOL   H10830588   7.748   3.848   1.814  2.2000 -1.2445 -1.7065
   41MOL   H10930589   7.750   3.833   2.054  1.4309 -1.5369 -1.7856
   41MOL   H11030590   7.710   4.114   1.969 -0.8324 -0.1732  1.3557
   41MOL   H11130591   7.652   4.042   2.125 -2.9958 -0.5666  0.3376
   41MOL   H11230592   7.238   3.788   2.095 -0.3361 -0.0514 -0.7239
   41MOL   H11330593   7.067   3.686   1.960 -0.4553 -0.2543 -2.0950
   41MOL   H11430594   7.266   3.787   1.599 -3.5319  2.9956  0.2928
   41MOL   H11530595   7.456   3.898   1.738  0.4608  1.4046  2.7934
   41MOL   C11630596   6.562   3.796   1.917 -1.0304  0.2429 -0.1306
   41MOL   C11730597   6.672   3.755   1.813 -0.1068  0.9642  0.3834
   41MOL   C11830598   6.699   3.602   1.809 -0.2096 -0.0250 -0.3840
   41MOL   C11930599   6.820   3.573   1.733  0.4871 -0.2232 -0.2056
   41MOL   C12030600   6.715   3.530   1.949 -0.1365  0.6145 -0.2640
   41MOL   C12130601   6.607   3.575   2.039  0.3355 -0.5859  0.8398
   41MOL   C12230602   6.596   3.730   2.048 -0.6516 -0.1237  0.2078
   41MOL   C12330603   6.501   3.779   2.160  0.3848 -0.1033 -0.5858
   41MOL   O12430604   6.367   3.760   2.122 -0.2181  0.9893 -0.0712
   41MOL   C12530605   6.275   3.788   2.210 -0.0742 -0.4218  0.0201
   41MOL   O12630606   6.306   3.827   2.324 -0.1475 -0.5618  0.6702
   41MOL   C12730607   6.143   3.746   2.163  0.6855  0.3538 -0.2400
   41MOL   C12830608   6.118   3.669   2.048  1.1385 -0.4430  0.2000
   41MOL   C12930609   5.990   3.612   2.028 -0.1454  0.2478  0.0104
   41MOL   C13030610   5.886   3.624   2.126 -0.5777 -0.0585 -0.1527
   41MOL   C13130611   5.755   3.556   2.100 -0.4024 -0.6443 -0.2519
   41MOL   O13230612   5.673   3.541   2.187  0.4806  0.4301 -0.1916
   41MOL   O13330613   5.745   3.511   1.973  0.0786  0.1419 -0.0171
   41MOL   C13430614   5.910   3.707   2.234 -0.3826 -0.5354 -1.1108
   41MOL   C13530615   6.033   3.777   2.250  0.2529 -0.2119  0.5644
   41MOL   H13630616   6.458   3.786   1.887 -0.7191 -0.7838 -0.9218
   41MOL   H13730617   6.583   3.902   1.931 -1.9860  0.5004 -0.5841
   41MOL   H13830618   6.758   3.813   1.846  1.4890 -0.9239 -0.3083
   41MOL   H13930619   6.651   3.785   1.710  2.0475  0.2772 -0.2933
   41MOL   H14030620   6.618   3.545   1.764  0.3638  0.0065 -1.4730
   41MOL   H14130621   6.806   3.630   1.641  0.3079  1.2447  0.7209
   41MOL   H14230622   6.823   3.466   1.710  0.9505 -0.9285  2.8261
   41MOL   H14330623   6.804   3.562   2.004  1.1112 -1.0710 -1.2303
   41MOL   H14430624   6.710   3.422   1.936  1.5970  0.7403 -2.3505
   41MOL   H14530625   6.510   3.535   2.010 -0.3673  1.5861  0.1264
   41MOL   H14630626   6.623   3.542   2.142  1.8938 -0.8299  0.5239
   41MOL   H14730627   6.689   3.782   2.071 -0.7844  0.5347 -0.7397
   41MOL   H14830628   6.508   3.887   2.173 -1.0437 -0.1544  0.7298
   41MOL   H14930629   6.529   3.726   2.252  1.9350  0.5205 -0.6747
   41MOL   H15030630   6.198   3.643   1.980  1.9952 -1.6771  1.6596
   41MOL   H15130631   5.966   3.559   1.937 -0.3093 -1.7015  1.1726
   41MOL   H15230632   5.831   3.715   2.306  0.7240 -0.6691  0.1316
   41MOL   H15330633   6.053   3.837   2.338  2.9037 -0.5895  0.2733
   41MOL   C15430634   5.742   3.108   1.813 -0.6538 -0.6059 -0.4539
   41MOL   C15530635   5.715   3.260   1.801  0.2781 -0.1540  0.0921
   41MOL   C15630636   5.621   3.300   1.904  0.2309 -0.1029 -0.0960
   41MOL   C15730637   5.617   3.452   1.930  0.2712  0.3035  0.7144
   41MOL   C15830638   5.488   3.236   1.873 -0.2785 -0.4125  0.4833
   41MOL   C15930639   5.489   3.084   1.859  0.5267 -0.6227  0.4094
   41MOL   C16030640   5.618   3.027   1.785  0.1493  0.0049  0.3108
   41MOL   C16130641   5.627   2.874   1.796 -0.6574  0.8219 -0.6071
   41MOL   O16230642   5.524   2.812   1.724  0.2243  0.0692 -0.3499
   41MOL   C16330643   5.519   2.683   1.730  0.0606  0.3469 -1.3840
   41MOL   O16430644   5.587   2.610   1.801 -0.4602  0.4365 -0.3834
   41MOL   C16530645   5.401   2.631   1.644 -1.1133  0.0642  0.1429
   41MOL   C16630646   5.346   2.501   1.660  0.5193 -0.7384 -0.5380
   41MOL   C16730647   5.225   2.473   1.601 -0.0111  0.0403 -0.2345
   41MOL   C16830648   5.160   2.563   1.509  0.4454 -0.0625  0.2928
   41MOL   C16930649   5.039   2.520   1.434 -0.3611  0.1570 -0.0517
   41MOL   O17030650   4.987   2.405   1.456  0.5797 -0.1055  0.8740
   41MOL   O17130651   4.994   2.610   1.353  0.1613 -0.5649 -0.0117
   41MOL   C17230652   5.221   2.689   1.490 -0.3546 -0.4728 -0.4227
   41MOL   C17330653   5.340   2.718   1.557  0.2502  0.5693  0.6873
   41MOL   H17430654   5.779   3.096   1.915 -1.9332 -1.9976 -0.1377
   41MOL   H17530655   5.823   3.086   1.745  1.8265  0.0209  2.2104
   41MOL   H17630656   5.686   3.304   1.706  1.5203  0.1433 -0.1561
   41MOL   H17730657   5.809   3.315   1.812  0.8141 -0.3432 -3.2311
   41MOL   H17830658   5.655   3.261   2.000  4.4377  0.7528 -1.1575
   41MOL   H17930659   5.536   3.485   1.996 -0.1492  0.3466  0.1847
   41MOL   H18030660   5.591   3.502   1.837 -0.3177  3.0140  2.2590
   41MOL   H18130661   5.437   3.275   1.785 -1.6316 -1.4680  0.7751
   41MOL   H18230662   5.416   3.245   1.954  0.2603 -2.0091  1.1593
   41MOL   H18330663   5.499   3.039   1.958  1.0887 -0.9714  0.2019
   41MOL   H18430664   5.392   3.054   1.820  0.7294  0.6119 -1.0846
   41MOL   H18530665   5.614   3.051   1.678  1.5261 -1.5240 -0.1038
   41MOL   H18630666   5.615   2.847   1.901 -0.1695  1.9598 -0.2511
   41MOL   H18730667   5.726   2.836   1.770 -1.6326 -1.8306 -0.5735
   41MOL   H18830668   5.393   2.434   1.730  2.0926 -1.2631 -2.0642
   41MOL   H18930669   5.185   2.376   1.624  2.5906 -0.9898  0.1007
   41MOL   H19030670   5.171   2.770   1.438  0.3700  0.1325 -0.1891
   41MOL   H19130671   5.383   2.813   1.527 -0.8702  0.5123 -1.1393
   41MOL   C19230672   4.644   2.876   1.328  0.1321  0.4787  0.5517
   41MOL   C19330673   4.779   2.801   1.292  0.1443 -0.1820  0.6693
   41MOL   C19430674   4.759   2.650   1.308 -0.2910  0.2228  0.5956
   41MOL   C19530675   4.892   2.584   1.256  0.7245  0.0551 -0.4099
   41MOL   C19630676   4.716   2.627   1.458  0.2442  0.2249  0.5323
   41MOL   C19730677   4.591   2.714   1.502 -0.3871  0.1565 -0.3474
   41MOL   C19830678   4.610   2.859   1.474 -0.8860 -0.2667  0.7193
   41MOL   C19930679   4.481   2.934   1.522 -0.0758  0.2256 -0.0105
   41MOL   O20030680   4.508   3.069   1.522  0.3181  0.7398 -0.4393
   41MOL   C20130681   4.408   3.158   1.546 -0.4647 -0.1049  0.5646
   41MOL   O20230682   4.299   3.142   1.590  0.4241  0.1279  0.0730
   41MOL   C20330683   4.442   3.296   1.486 -0.3787 -0.9052 -0.4309
   41MOL   C20430684   4.333   3.389   1.481 -0.3348  0.0638 -0.3214
   41MOL   C20530685   4.346   3.506   1.395 -0.4619 -0.2361  0.5110
   41MOL   C20630686   4.475   3.536   1.332 -0.0306 -0.3255  0.4611
   41MOL   C20730687   4.482   3.650   1.243 -0.5949 -0.2462  0.0280
   41MOL   O20830688   4.385   3.724   1.218 -0.3874  0.2628  0.3201
   41MOL   O20930689   4.596   3.647   1.176  0.0350 -0.0477  0.1656
   41MOL   C21030690   4.586   3.448   1.365 -0.4026  0.1784 -0.1852
   41MOL   C21130691   4.572   3.332   1.439  0.0105  0.7487 -0.3624
   41MOL   H21230692   4.561   2.842   1.266  0.4257 -0.0766  0.4609
   41MOL   H21330693   4.655   2.982   1.304  1.3769  0.7955  2.3472
   41MOL   H21430694   4.854   2.841   1.360  2.0151  1.5419 -2.2996
   41MOL   H21530695   4.812   2.815   1.189  0.6223 -3.1999  0.3519
   41MOL   H21630696   4.681   2.624   1.236 -1.3773  1.5134  1.2941
   41MOL   H21730697   4.908   2.621   1.154 -1.8112  3.2292  0.2894
   41MOL   H21830698   4.874   2.478   1.245 -0.7873  0.2719 -0.0383
   41MOL   H21930699   4.801   2.653   1.520  1.1405  0.2422 -0.6963
   41MOL   H22030700   4.695   2.520   1.463 -2.2192  0.6244 -0.2843
   41MOL   H22130701   4.508   2.672   1.446 -0.3931  0.2226 -0.3876
   41MOL   H22230702   4.579   2.701   1.610 -0.6908 -1.7480 -0.5987
   41MOL   H22330703   4.686   2.899   1.541 -1.2693  0.9703  0.4305
   41MOL   H22430704   4.447   2.906   1.622  2.2931  0.6079  0.9426
   41MOL   H22530705   4.409   2.910   1.444  0.5570  1.1865 -0.9060
   41MOL   H22630706   4.236   3.367   1.522  0.7141  1.6854  3.2724
   41MOL   H22730707   4.261   3.571   1.379  0.4313  1.2760  1.7205
   41MOL   H22830708   4.686   3.456   1.324 -0.1940 -0.3596  0.2087
   41MOL   H22930709   4.659   3.269   1.454 -1.8535 -2.2418 -1.5117
   41MOL   C23030710   5.018   3.649   1.117 -0.4879  0.5765  0.4428
   41MOL   C23130711   4.878   3.689   1.171  0.1141 -0.1339 -0.2885
   41MOL   C23230712   4.782   3.708   1.053 -0.0204 -0.3351  0.9497
   41MOL   C23330713   4.643   3.753   1.101  0.1875  0.7938  0.3473
   41MOL   C23430714   4.834   3.801   0.944  0.9539 -0.2133 -0.0248
   41MOL   C23530715   4.978   3.775   0.914 -0.3619  1.0446 -0.2110
   41MOL   C23630716   5.080   3.754   1.027  0.0929 -0.0845 -0.1130
   41MOL   C23730717   5.219   3.715   0.978 -0.5585 -0.5208  0.7520
   41MOL   O23830718   5.287   3.826   0.915  0.6041 -0.3959 -0.6301
   41MOL   C23930719   5.374   3.908   0.985 -0.6170  0.0455  0.1595
   41MOL   O24030720   5.411   3.884   1.103 -0.1620 -0.6055 -0.3185
   41MOL   C24130721   5.428   4.018   0.898  0.0799  0.3335  1.0333
   41MOL   C24230722   5.532   4.101   0.936  0.3010 -0.1157  0.3620
   41MOL   C24330723   5.574   4.203   0.849  0.0439  0.3344  0.2461
   41MOL   C24430724   5.514   4.224   0.724 -0.3287 -0.4407  0.1916
   41MOL   C24530725   5.577   4.323   0.630  0.1141 -0.2024 -0.0132
   41MOL   O24630726   5.692   4.372   0.643  0.2663  0.1186  0.3554
   41MOL   O24730727   5.505   4.343   0.518  0.1075 -0.0193  0.2683
   41MOL   C24830728   5.397   4.145   0.688 -0.3152 -0.1523 -0.1445
   41MOL   C24930729   5.360   4.042   0.775  0.1077  0.1749 -0.6695
   41MOL   H25030730   5.006   3.551   1.071  2.4735  0.4963 -0.2503
   41MOL   H25130731   5.084   3.638   1.203  2.4129 -0.1470 -1.8122
   41MOL   H25230732   4.880   3.787   1.219 -1.3955 -0.5560  0.6870
   41MOL   H25330733   4.841   3.617   1.245  2.1954 -1.0070 -0.0670
   41MOL   H25430734   4.768   3.606   1.017  0.8474 -0.4392  0.9059
   41MOL   H25530735   4.574   3.763   1.017 -0.3683  2.3536  0.9716
   41MOL   H25630736   4.659   3.848   1.151  1.5970  0.1249  1.2097
   41MOL   H25730737   4.812   3.903   0.977  0.3278 -0.9437  1.9009
   41MOL   H25830738   4.768   3.814   0.858  2.7753  3.3708 -0.9769
   41MOL   H25930739   4.970   3.687   0.851 -1.6209 -0.0958  1.5004
   41MOL   H26030740   5.019   3.848   0.844  0.8062  0.7256  0.1148
   41MOL   H26130741   5.084   3.847   1.083 -1.2349 -0.4887  0.6801
   41MOL   H26230742   5.199   3.644   0.897 -2.5729  0.6036  0.2400
   41MOL   H26330743   5.283   3.676   1.057 -1.2695 -2.2970  0.4686
   41MOL   H26430744   5.586   4.081   1.028  3.9101 -0.4742 -1.7439
   41MOL   H26530745   5.662   4.262   0.871  2.8097 -3.2419 -0.6461
   41MOL   H26630746   5.336   4.160   0.600  0.0539 -0.0431 -0.3820
   41MOL   H26730747   5.269   3.990   0.747 -0.4021 -0.0769  1.3927
   41MOL   C26830748   5.192   4.478   0.258  0.4228 -0.0723  0.3744
   41MOL   C26930749   5.300   4.491   0.363  0.1427 -0.1484  0.7278
   41MOL   C27030750   5.437   4.439   0.308  0.2422  0.4324 -0.0470
   41MOL   C27130751   5.548   4.430   0.418  0.3394  0.5461  0.3018
   41MOL   C27230752   5.428   4.304   0.233 -0.2391 -0.4252 -0.1796
   41MOL   C27330753   5.313   4.301   0.139 -0.0948  0.5303  0.0541
   41MOL   C27430754   5.180   4.332   0.205  0.7757 -0.6258  0.9964
   41MOL   C27530755   5.063   4.318   0.106 -0.2943  0.0272  0.9142
   41MOL   O27630756   4.947   4.393   0.143 -0.1793  0.3271  0.0234
   41MOL   C27730757   4.851   4.322   0.200 -0.1937 -0.3459  0.7602
   41MOL   O27830758   4.859   4.202   0.221 -0.0281 -0.1528 -0.1555
   41MOL   C27930759   4.732   4.396   0.256 -0.3528 -0.0034  0.2760
   41MOL   C28030760   4.653   4.349   0.363 -0.4608  0.2060  0.5386
   41MOL   C28130761   4.541   4.417   0.409 -0.1627  0.3391  1.3358
   41MOL   C28230762   4.507   4.538   0.350  0.2300  0.2461  0.2373
   41MOL   C28330763   4.384   4.612   0.387  0.0078  0.6592  0.0361
   41MOL   O28430764   4.342   4.716   0.333 -0.0746  0.3390 -0.2909
   41MOL   O28530765   4.315   4.546   0.493  0.0385  0.1583  0.1365
   41MOL   C28630766   4.591   4.602   0.256  0.1127  0.5277  0.3418
   41MOL   C28730767   4.704   4.531   0.212  0.5966 -0.1872  0.2421
   41MOL   H28830768   5.215   4.547   0.177  2.0161  0.2191  1.0634
   41MOL   H28930769   5.102   4.519   0.304 -0.9688 -0.7019 -1.7186
   41MOL   H29030770   5.277   4.441   0.457  1.3571 -1.6235  0.2802
   41MOL   H29130771   5.313   4.596   0.389  1.7495 -0.0716 -0.3148
   41MOL   H29230772   5.478   4.521   0.248  1.2671 -0.4633 -0.5876
   41MOL   H29330773   5.565   4.529   0.459 -0.7500  0.7416  0.2923
   41MOL   H29430774   5.643   4.403   0.371  0.4144  0.6077  0.4181
   41MOL   H29530775   5.440   4.213   0.291  1.8119 -0.4607 -0.6021
   41MOL   H29630776   5.512   4.298   0.163  0.9492 -1.4671  1.3076
   41MOL   H29730777   5.311   4.367   0.053  0.5070  0.0078 -0.3637
   41MOL   H29830778   5.309   4.200   0.098  1.6204  0.6244 -0.3623
   41MOL   H29930779   5.160   4.268   0.291 -0.7367  1.1787  2.0334
   41MOL   H30030780   5.032   4.217   0.077 -2.4729  0.5036  1.4651
   41MOL   H30130781   5.102   4.367   0.016  2.4127 -1.0888  1.4299
   41MOL   H30230782   4.676   4.252   0.403 -1.8488 -0.6938 -0.7879
   41MOL   H30330783   4.486   4.377   0.493 -1.1525 -1.2886 -0.0768
   41MOL   H30430784   4.566   4.696   0.209  2.2283  1.1114  0.3545
   41MOL   H30530785   4.760   4.587   0.139  0.7112  1.1236  1.3102
   41MOL   C30630786   4.067   4.322   0.780  0.5192 -0.3393 -0.2303
   41MOL   C30730787   4.132   4.392   0.656 -0.3594  0.6088  0.0066
   41MOL   C30830788   4.142   4.539   0.669 -0.1857  0.4089 -0.5799
   41MOL   C30930789   4.195   4.606   0.540  0.1083  0.8146  0.2949
   41MOL   C31030790   3.996   4.602   0.701  0.1616  0.1968 -0.0178
   41MOL   C31130791   3.928   4.537   0.817 -0.0409  0.5788 -1.1619
   41MOL   C31230792   3.923   4.380   0.814 -0.0960 -0.0915  0.1805
   41MOL   C31330793   3.872   4.325   0.948  0.5924  0.3776  0.1761
   41MOL   O31430794   3.866   4.190   0.925 -0.7130  0.1228 -0.3246
   41MOL   C31530795   3.875   4.105   1.038  0.1140 -0.3569 -0.1496
   41MOL   O31630796   3.863   4.134   1.160  0.3580 -0.0022 -0.0368
   41MOL   C31730797   3.901   3.961   0.996 -0.2858 -0.0919  0.7037
   41MOL   C31830798   3.905   3.863   1.096 -0.4810 -0.1965  0.3364
   41MOL   C31930799   3.925   3.725   1.066  0.1154  0.2466  0.6009
   41MOL   C32030800   3.949   3.689   0.929 -0.3206 -0.4232 -0.5326
   41MOL   C32130801   3.974   3.553   0.882 -0.0858  0.2609  0.4717
   41MOL   O32230802   3.987   3.525   0.758 -0.0580  0.1390 -0.1952
   41MOL   O32330803   3.989   3.463   0.978 -0.1318 -0.6469 -0.3622
   41MOL   C32430804   3.965   3.791   0.831 -0.0784  0.5836 -0.7641
   41MOL   C32530805   3.939   3.926   0.864  0.2199 -0.3236  0.2036
   41MOL   H32630806   4.125   4.336   0.871  1.2996 -3.3438 -0.2154
   41MOL   H32730807   4.061   4.215   0.762 -1.0258 -0.3883  0.4638
   41MOL   H32830808   4.075   4.365   0.567  0.5552 -1.4214  0.0031
   41MOL   H32930809   4.234   4.362   0.635 -0.3734  0.5657  0.0018
   41MOL   H33030810   4.206   4.570   0.752  0.4787  0.4155 -1.0811
   41MOL   H33130811   4.212   4.710   0.571 -3.4576  0.8320  2.5081
   41MOL   H33230812   4.111   4.611   0.471  0.7331  1.2704 -0.4460
   41MOL   H33330813   3.937   4.605   0.610  0.9395 -0.0603 -0.5403
   41MOL   H33430814   4.012   4.706   0.730  0.1524 -0.2848  1.7544
   41MOL   H33530815   3.982   4.557   0.910 -2.3737  0.1142  0.3434
   41MOL   H33630816   3.828   4.577   0.833 -0.7255 -1.4421 -0.2500
   41MOL   H33730817   3.856   4.352   0.733  2.5746 -0.7830 -1.8547
   41MOL   H33830818   3.782   4.380   0.972 -0.1953 -0.9119  0.2335
   41MOL   H33930819   3.936   4.353   1.032 -0.3072  1.8852  0.3721
   41MOL   H34030820   3.876   3.895   1.195 -1.1532 -0.5473  0.2550
   41MOL   H34130821   3.917   3.649   1.142  0.2497  1.7743  2.1650
   41MOL   H34230822   3.992   3.777   0.727  2.0064 -1.4860  0.0246
   41MOL   H34330823   3.946   4.007   0.793 -0.1419  0.7500  1.3781
   41MOL   C34430824   4.436   3.453   0.911  0.2065  0.6200  0.5494
   41MOL   C34530825   4.287   3.447   0.877 -1.2359  0.0592 -0.1825
   41MOL   C34630826   4.205   3.356   0.974  1.0821 -0.0367  0.1341
   41MOL   C34730827   4.054   3.342   0.945  0.4027  0.5063  0.2343
   41MOL   C34830828   4.274   3.224   1.009  0.2346 -0.5228 -0.2020
   41MOL   C34930829   4.419   3.253   1.059 -0.1925 -0.0636  0.4879
   41MOL   C35030830   4.502   3.318   0.953  0.3216 -0.1897  0.1454
   41MOL   C35130831   4.646   3.336   1.000  0.0241 -0.2896 -0.1582
   41MOL   O35230832   4.735   3.222   1.022 -0.3358  0.0038  0.0848
   41MOL   C35330833   4.819   3.213   1.128  0.8347  0.2473  0.3253
   41MOL   O35430834   4.830   3.294   1.222  0.1702 -0.1391  0.4701
   41MOL   C35530835   4.905   3.090   1.108  0.2584  0.1847 -0.2843
   41MOL   C35630836   4.898   3.006   0.994  0.0031  0.0909 -0.6865
   41MOL   C35730837   4.994   2.908   0.979 -0.2195  0.0054 -0.0310
   41MOL   C35830838   5.095   2.882   1.078 -0.7105 -0.0168  0.0525
   41MOL   C35930839   5.196   2.771   1.056 -0.0080  0.2227 -0.0799
   41MOL   O36030840   5.193   2.697   0.961 -0.8603 -0.0551  0.3307
   41MOL   O36130841   5.295   2.769   1.155 -0.4295 -0.1275 -0.5123
   41MOL   C36230842   5.094   2.965   1.197 -0.4958 -0.5429 -0.7759
   41MOL   C36330843   5.001   3.066   1.211  0.4726 -0.0590  0.8532
   41MOL   H36430844   4.445   3.523   0.995  1.7350  1.6489 -0.4492
   41MOL   H36530845   4.484   3.507   0.829 -2.3698 -0.9808 -2.0828
   41MOL   H36630846   4.284   3.417   0.772  1.0783  0.9150 -0.5316
   41MOL   H36730847   4.246   3.547   0.863  1.1372  1.2013  0.6963
   41MOL   H36830848   4.206   3.412   1.068 -1.9579  0.0035  0.1937
   41MOL   H36930849   4.000   3.271   1.008 -0.9375  0.6287 -0.7652
   41MOL   H37030850   4.028   3.313   0.843 -0.5875  2.9019 -0.2319
   41MOL   H37130851   4.272   3.159   0.921 -0.2507  1.1730 -1.4746
   41MOL   H37230852   4.211   3.169   1.078  0.5020 -1.6676 -0.8419
   41MOL   H37330853   4.407   3.319   1.145 -0.1654 -0.2973  0.6699
   41MOL   H37430854   4.464   3.158   1.086  1.0637  0.4197  0.0953
   41MOL   H37530855   4.504   3.247   0.870  1.3730 -1.2196  1.0472
   41MOL   H37630856   4.654   3.404   1.085 -2.6366  1.6212 -1.3532
   41MOL   H37730857   4.695   3.402   0.930  0.4092 -0.7134 -0.2850
   41MOL   H37830858   4.822   3.020   0.919  0.8542  1.1541 -1.3552
   41MOL   H37930859   4.990   2.843   0.892 -0.5667 -0.8235  0.6018
   41MOL   H38030860   5.169   2.950   1.273 -0.5913  1.6795 -0.2016
   41MOL   H38130861   5.003   3.136   1.293  0.9570 -0.1099  0.8877
   41MOL   C38230862   5.641   2.878   0.893  0.1232  0.1040 -0.2441
   41MOL   C38330863   5.512   2.810   0.950  0.6909 -0.4560  0.1572
   41MOL   C38430864   5.528   2.765   1.098 -0.2874  0.3698  0.2467
   41MOL   C38530865   5.408   2.686   1.153 -0.0680 -0.1952  0.4195
   41MOL   C38630866   5.647   2.667   1.105 -0.3591 -0.1481  0.5563
   41MOL   C38730867   5.779   2.735   1.059 -0.1288  0.0172  0.2812
   41MOL   C38830868   5.761   2.786   0.918 -1.2843  0.0484 -0.0219
   41MOL   C38930869   5.897   2.855   0.868 -0.1740  0.5656 -0.7188
   41MOL   O39030870   5.894   2.908   0.737  0.4817 -0.6195 -0.1688
   41MOL   C39130871   5.931   2.839   0.636 -0.5097  0.3265  0.1910
   41MOL   O39230872   5.979   2.724   0.650  0.1481  0.7040  0.5276
   41MOL   C39330873   5.930   2.916   0.511  0.1992  0.5917 -0.3286
   41MOL   C39430874   5.897   3.056   0.515  0.4258 -0.2328 -0.5031
   41MOL   C39530875   5.879   3.136   0.400  0.5169 -0.6174  0.4261
   41MOL   C39630876   5.901   3.076   0.276  0.3555  0.3251  0.1877
   41MOL   C39730877   5.910   3.147   0.143  0.8346  0.4580  0.5885
   41MOL   O39830878   5.924   3.269   0.138  0.1850  1.0680  0.3883
   41MOL   O39930879   5.892   3.067   0.034 -0.5083 -0.2004  0.1121
   41MOL   C40030880   5.926   2.936   0.270 -0.6122  0.2080 -0.0115
   41MOL   C40130881   5.931   2.858   0.387 -0.4314  0.4367  0.6276
   41MOL   H40230882   5.662   2.962   0.959  1.7886 -0.5929  0.1368
   41MOL   H40330883   5.633   2.902   0.787 -0.0541  1.0041 -0.0348
   41MOL   H40430884   5.471   2.730   0.888 -2.1393  0.8019  0.3120
   41MOL   H40530885   5.431   2.884   0.951  1.0712 -0.0508  1.6830
   41MOL   H40630886   5.554   2.846   1.165 -2.2054  0.9415  0.3213
   41MOL   H40730887   5.420   2.649   1.255  1.9197 -1.6324 -0.3030
   41MOL   H40830888   5.386   2.591   1.104  0.9348  0.7841 -1.9882
   41MOL   H40930889   5.621   2.587   1.036 -0.2101 -0.6274  1.0516
   41MOL   H41030890   5.671   2.618   1.199  0.4559  0.3186  0.5925
   41MOL   H41130891   5.802   2.815   1.129  0.7534  1.7872 -1.9752
   41MOL   H41230892   5.861   2.664   1.068 -1.4453 -1.1766  3.8902
   41MOL   H41330893   5.747   2.693   0.862 -1.3760  0.2163 -0.2783
   41MOL   H41430894   5.979   2.786   0.884 -0.9122 -0.0043  0.7389
   41MOL   H41530895   5.914   2.937   0.937  1.3245  0.2470 -0.6932
   41MOL   H41630896   5.890   3.107   0.611 -1.9174 -1.1911 -0.1303
   41MOL   H41730897   5.852   3.240   0.412  0.0270 -0.9778  2.6716
   41MOL   H41830898   5.935   2.887   0.174 -0.4350 -1.7423  0.9659
   41MOL   H41930899   5.960   2.754   0.383  0.6938  0.7484  0.5333
   41MOL   C42030900   6.131   3.267   7.673  0.3692  1.0140 -0.2066
   41MOL   C42130901   6.002   3.223   7.753 -0.3550 -0.2623 -0.6943
   41MOL   C42230902   6.030   3.168   7.892  0.8739  0.1191  0.3935
   41MOL   C42330903   5.889   3.122   7.938  0.8342 -0.3535 -0.0485
   41MOL   C42430904   6.139   3.060   7.893 -0.0511 -0.3483  0.3838
   41MOL   C42530905   6.263   3.099   7.817  0.5643 -0.0868 -0.4963
   41MOL   C42630906   6.233   3.148   7.679 -0.2222  0.2884  0.1010
   41MOL   C42730907   6.358   3.188   7.602  0.6326  0.0100 -0.3361
   41MOL   O42830908   6.415   3.305   7.650 -0.3277 -0.0122  0.5778
   41MOL   C42930909   6.516   3.365   7.590  0.1354  1.1265  1.0605
   41MOL   O43030910   6.579   3.326   7.494 -0.3836 -0.2395 -0.1967
   41MOL   C43130911   6.543   3.495   7.657 -0.5644  0.0243 -0.1132
   41MOL   C43230912   6.469   3.546   7.765 -0.1028  0.6814  0.2729
   41MOL   C43330913   6.488   3.675   7.812 -0.1817 -0.4396  0.5565
   41MOL   C43430914   6.590   3.757   7.762  0.7464  0.3515 -0.0558
   41MOL   C43530915   6.601   3.883   7.826 -0.1000 -1.1628 -0.0944
   41MOL   O43630916   6.520   3.929   7.906  0.0953 -0.3548  0.1677
   41MOL   O43730917   6.716   3.949   7.787 -0.0930 -0.2326  0.3205
   41MOL   C43830918   6.672   3.708   7.663  0.3508 -0.1115  0.0436
   41MOL   C43930919   6.648   3.583   7.605 -0.2157 -0.0586  0.2012
   41MOL   H44030920   6.169   3.362   7.709  1.1154  1.0774 -1.1506
   41MOL   H44130921   6.088   3.275   7.573 -3.6559 -2.1696  1.0984
   41MOL   H44230922   5.962   3.145   7.688  0.6441 -1.0376 -0.3961
   41MOL   H44330923   5.931   3.305   7.759 -0.7509 -0.6924  0.9188
   41MOL   H44430924   6.071   3.253   7.947  0.0263  1.4158 -0.9380
   41MOL   H44530925   5.842   3.051   7.871 -0.2449 -0.8269  1.1781
   41MOL   H44630926   5.809   3.196   7.940  1.2074  0.0374  0.5891
   41MOL   H44730927   6.093   2.977   7.839 -2.5036  1.5061 -0.4368
   41MOL   H44830928   6.170   3.024   7.991  0.5732  0.2987  0.4238
   41MOL   H44930929   6.312   3.184   7.865 -0.1500  1.6414 -2.7006
   41MOL   H45030930   6.321   3.007   7.813 -1.6479 -1.6045  1.2369
   41MOL   H45130931   6.196   3.067   7.616  1.6592  0.6296 -1.5109
   41MOL   H45230932   6.345   3.198   7.494  0.3737  1.4872 -0.1787
   41MOL   H45330933   6.425   3.102   7.610  0.1482 -0.2047  1.6003
   41MOL   H45430934   6.397   3.487   7.819 -0.8799  0.1774 -1.2734
   41MOL   H45530935   6.426   3.714   7.891  0.8280 -2.0101  2.1534
   41MOL   H45630936   6.752   3.773   7.632  1.0763 -1.7325 -1.5747
   41MOL   H45730937   6.716   3.554   7.527  0.7272  1.1584  0.5496
   41MOL   C45830938   6.505   4.323   7.687  0.8920  0.9586 -0.2852
   41MOL   C45930939   6.563   4.217   7.780  0.0388 -0.1609 -0.0152
   41MOL   C46030940   6.705   4.185   7.730  0.6789  1.2290 -0.2124
   41MOL   C46130941   6.767   4.076   7.827  0.2265  0.7853  0.7575
   41MOL   C46230942   6.706   4.143   7.582 -0.3612  0.1276  0.4511
   41MOL   C46330943   6.664   4.257   7.500 -0.4798 -0.7585  0.1784
   41MOL   C46430944   6.524   4.287   7.538  0.1557  0.7444 -0.7564
   41MOL   C46530945   6.467   4.391   7.447 -0.0729  0.1983  0.1106
   41MOL   O46630946   6.333   4.397   7.476  0.2245  0.4851 -0.0204
   41MOL   C46730947   6.239   4.439   7.389 -0.7069  0.4501  0.6745
   41MOL   O46830948   6.262   4.464   7.271  0.3071 -0.3395 -0.1064
   41MOL   C46930949   6.104   4.444   7.452 -0.4342 -0.6061  0.5504
   41MOL   C47030950   6.086   4.448   7.592 -0.9451  0.3392  0.1487
   41MOL   C47130951   5.964   4.463   7.651 -0.1898 -0.1624  0.1094
   41MOL   C47230952   5.850   4.477   7.581 -0.1053 -0.2554 -0.5169
   41MOL   C47330953   5.723   4.501   7.649  0.0390 -0.0146  0.7249
   41MOL   O47430954   5.708   4.492   7.768 -0.3537  0.2171 -0.0647
   41MOL   O47530955   5.630   4.541   7.565  0.2980 -0.2003  0.1385
   41MOL   C47630956   5.859   4.478   7.441  0.2049  0.3532 -0.7324
   41MOL   C47730957   5.987   4.462   7.377  0.5808 -0.6833  0.1376
   41MOL   H47830958   6.545   4.422   7.708  1.2927  0.8209 -0.3954
   41MOL   H47930959   6.399   4.329   7.713  0.0897  0.8293 -3.4083
   41MOL   H48030960   6.498   4.130   7.777  0.1907 -0.2762  0.0580
   41MOL   H48130961   6.561   4.252   7.883 -1.8375 -0.0404 -0.0810
   41MOL   H48230962   6.766   4.273   7.750 -0.1600  1.2341  2.5976
   41MOL   H48330963   6.736   4.090   7.931  0.3835  0.3758  0.8621
   41MOL   H48430964   6.874   4.071   7.810 -0.1416 -1.7560 -1.0602
   41MOL   H48530965   6.653   4.052   7.555  2.0184 -1.5957  1.4155
   41MOL   H48630966   6.810   4.128   7.553 -0.2070  1.5230  0.2392
   41MOL   H48730967   6.729   4.344   7.509  0.0472 -1.2367  1.0892
   41MOL   H48830968   6.661   4.238   7.392 -1.2318 -0.7776  0.2050
   41MOL   H48930969   6.468   4.194   7.530 -0.0052  0.4942  2.5293
   41MOL   H49030970   6.478   4.363   7.342  1.8489 -1.0332  0.6011
   41MOL   H49130971   6.516   4.485   7.471  2.6668 -1.8251  2.8833
   41MOL   H49230972   6.172   4.443   7.657  1.2362  0.3439 -2.6374
   41MOL   H49330973   5.965   4.473   7.759 -0.6606  0.7192  0.0403
   41MOL   H49430974   5.771   4.502   7.382  0.2039 -0.8902 -1.2601
   41MOL   H49530975   6.002   4.472   7.271  1.0592  0.7791  0.3238
   41MOL   C49630976   5.288   4.530   7.286 -0.3502  0.0835 -0.5121
   41MOL   C49730977   5.377   4.495   7.408 -0.0988 -0.0767 -0.1356
   41MOL   C49830978   5.412   4.627   7.486 -0.1265 -0.3902  0.4930
   41MOL   C49930979   5.504   4.596   7.602  0.6290 -0.6330 -0.6660
   41MOL   C50030980   5.484   4.723   7.387 -0.7891 -0.4165  0.3982
   41MOL   C50130981   5.402   4.753   7.261  0.4014  0.5698  0.3885
   41MOL   C50230982   5.356   4.623   7.190 -0.6536  0.2384 -0.2864
   41MOL   C50330983   5.262   4.665   7.072  0.2206  0.0379 -1.0717
   41MOL   O50430984   5.328   4.740   6.966  0.3222 -0.3967 -0.2646
   41MOL   C50530985   5.261   4.823   6.901  0.0407  0.2868  0.5356
   41MOL   O50630986   5.151   4.862   6.931 -0.3434  0.0679 -0.0493
   41MOL   C50730987   5.338   4.878   6.786 -0.5801 -0.1782 -0.1392
   41MOL   C50830988   5.268   4.963   6.702 -0.0493 -0.4086  0.3471
   41MOL   C50930989   5.335   5.011   6.586 -0.5990  0.4456  0.2840
   41MOL   C51030990   5.462   4.966   6.552  0.0592  0.0395 -0.8379
   41MOL   C51130991   5.535   5.009   6.424 -0.8750 -0.1936  0.6644
   41MOL   O51230992   5.629   4.950   6.376  0.0155  0.0951 -0.4168
   41MOL   O51330993   5.492   5.127   6.376  0.4986 -0.4507  0.0601
   41MOL   C51430994   5.524   4.871   6.633 -0.1333  0.4918  0.1235
   41MOL   C51530995   5.462   4.823   6.750 -0.4258 -0.6363 -0.1134
   41MOL   H51630996   5.185   4.557   7.313 -0.1002  1.3563 -0.8030
   41MOL   H51730997   5.274   4.436   7.233  0.1399 -1.1135  1.4202
   41MOL   H51830998   5.469   4.445   7.380  0.8938  1.8943 -0.4741
   41MOL   H51930999   5.323   4.427   7.475 -0.4647 -2.0014 -2.3472
   41MOL   H52031000   5.315   4.668   7.516 -1.6673 -3.2587 -0.3862
   41MOL   H52131001   5.453   4.524   7.666 -0.6786 -0.1935 -1.2073
   41MOL   H52231002   5.518   4.690   7.657 -0.5136 -0.3859 -0.7943
   41MOL   H52331003   5.580   4.682   7.356 -1.8496 -2.1162 -0.7644
   41MOL   H52431004   5.499   4.813   7.446  0.3920 -0.1240 -0.3333
   41MOL   H52531005   5.311   4.801   7.296 -0.3864 -0.9973  0.5301
   41MOL   H52631006   5.449   4.825   7.194 -0.8652 -0.7516 -1.9837
   41MOL   H52731007   5.445   4.572   7.154 -0.4661 -0.1259  0.6866
   41MOL   H52831008   5.176   4.713   7.118  1.2046  0.6344  0.1435
   41MOL   H52931009   5.225   4.574   7.025 -0.8734 -0.3570  0.5508
   41MOL   H53031010   5.176   5.013   6.729  0.1803  0.7056 -0.8634
   41MOL   H53131011   5.294   5.089   6.524 -1.8177  1.1601  1.9246
   41MOL   H53231012   5.621   4.829   6.609 -0.8433 -1.0165 -0.1958
   41MOL   H53331013   5.513   4.753   6.815  0.3051 -0.2277 -0.2440
   41MOL   C53431014   5.439   5.552   6.307 -0.2049  0.1402 -0.4619
   41MOL   C53531015   5.504   5.414   6.342 -0.3239 -1.0537 -0.0223
   41MOL   C53631016   5.481   5.318   6.224  0.6610 -0.0268  0.3663
   41MOL   C53731017   5.558   5.190   6.265  0.3405  0.2682  0.6044
   41MOL   C53831018   5.332   5.298   6.183  0.3929  0.1371 -0.2264
   41MOL   C53931019   5.262   5.439   6.165  0.3222  0.2725  0.2381
   41MOL   C54031020   5.290   5.537   6.278  0.2606  0.0666  0.4604
   41MOL   C54131021   5.215   5.668   6.253 -0.6126  0.2384 -0.3029
   41MOL   O54231022   5.253   5.754   6.366  0.2514  0.0912  0.2403
   41MOL   C54331023   5.167   5.841   6.413  0.0834 -0.2442 -0.3783
   41MOL   O54431024   5.055   5.858   6.362  0.1443 -0.0644 -0.4455
   41MOL   C54531025   5.218   5.926   6.525 -0.2091 -0.1156 -0.4330
   41MOL   C54631026   5.139   6.032   6.578 -0.0493 -0.1092 -0.6594
   41MOL   C54731027   5.191   6.111   6.682 -0.0862  0.0026 -0.0905
   41MOL   C54831028   5.310   6.078   6.740  0.0585 -0.1106 -0.0211
   41MOL   C54931029   5.369   6.167   6.845  0.0483 -0.1156  0.2950
   41MOL   O55031030   5.489   6.166   6.880  0.1010  0.1240 -0.0731
   41MOL   O55131031   5.276   6.256   6.894  0.2365  0.6656  0.2798
   41MOL   C55231032   5.383   5.962   6.706  1.1892  0.1222 -0.5234
   41MOL   C55331033   5.346   5.901   6.583  1.0512  0.0125 -0.5892
   41MOL   H55431034   5.490   5.598   6.222 -0.1587 -1.7240 -1.4632
   41MOL   H55531035   5.451   5.609   6.399 -2.3104  0.6030 -0.4445
   41MOL   H55631036   5.479   5.373   6.441  1.5832 -2.3516 -0.0447
   41MOL   H55731037   5.610   5.436   6.343 -0.7009  0.9198 -0.9830
   41MOL   H55831038   5.530   5.359   6.135  0.6044 -0.9326 -0.0914
   41MOL   H55931039   5.660   5.209   6.298  1.0654 -0.3075 -1.2241
   41MOL   H56031040   5.570   5.133   6.173 -2.6218  0.9009 -0.2208
   41MOL   H56131041   5.280   5.248   6.265  1.4624 -1.9471 -0.7912
   41MOL   H56231042   5.319   5.230   6.099  1.4237 -0.0721 -0.2197
   41MOL   H56331043   5.303   5.488   6.076  0.0113  0.4916  0.2118
   41MOL   H56431044   5.156   5.423   6.145  0.0932  2.6688 -0.6760
   41MOL   H56531045   5.240   5.499   6.367  0.3203  0.5393  0.6983
   41MOL   H56631046   5.108   5.647   6.260 -0.6433  0.0864 -1.1254
   41MOL   H56731047   5.242   5.707   6.155 -1.4905  1.4550 -0.0757
   41MOL   H56831048   5.039   6.046   6.540  0.2095  1.1974 -0.8898
   41MOL   H56931049   5.131   6.193   6.719  0.7338  1.4375 -1.8682
   41MOL   H57031050   5.485   5.948   6.739  1.2174  4.0697  1.4310
   41MOL   H57131051   5.416   5.834   6.534  0.9222  0.1665 -0.9842
   41MOL   C57231052   5.082   6.548   7.230  0.0670 -0.3210  0.7436
   41MOL   C57331053   5.214   6.491   7.168  0.0033 -0.0653 -0.8407
   41MOL   C57431054   5.181   6.394   7.056 -0.5437 -0.0528  0.7953
   41MOL   C57531055   5.311   6.339   7.001  1.0606 -0.0341  0.0416
   41MOL   C57631056   5.081   6.288   7.101  0.7197 -0.8308  1.1566
   41MOL   C57731057   4.951   6.352   7.151  0.1383 -0.0730 -0.8612
   41MOL   C57831058   4.981   6.440   7.270  0.5628 -0.7970 -0.4933
   41MOL   C57931059   4.845   6.506   7.303 -0.2315  0.6380 -0.2972
   41MOL   O58031060   4.859   6.564   7.434  0.9128 -0.7088 -0.0784
   41MOL   C58131061   4.833   6.494   7.539 -0.0771  0.0835 -0.1019
   41MOL   O58231062   4.770   6.386   7.538  0.7068  0.2231  0.2528
   41MOL   C58331063   4.885   6.540   7.667  0.1447  0.2631  0.0569
   41MOL   C58431064   4.844   6.486   7.792  0.1509  0.0802 -0.1944
   41MOL   C58531065   4.903   6.529   7.914  0.5221 -0.0836  0.2534
   41MOL   C58631066   5.004   6.630   7.911  0.9476 -0.3357 -0.6501
   41MOL   C58731067   5.071   6.682   0.005 -0.0039 -0.0880  0.2634
   41MOL   O58831068   5.018   6.676   0.120 -0.3890  0.2590 -0.1515
   41MOL   O58931069   5.187   6.738   8.010  0.1257 -0.6142 -0.3565
   41MOL   C59031070   5.043   6.684   7.784  0.0201  0.0256  0.2101
   41MOL   C59131071   4.979   6.644   7.664 -0.2449  0.4813  0.1902
   41MOL   H59231072   5.038   6.607   7.150  1.9535  0.8648  0.5698
   41MOL   H59331073   5.111   6.609   7.315 -0.0411  1.9938 -0.8335
   41MOL   H59431074   5.274   6.451   7.250  0.7024 -1.4844 -2.0260
   41MOL   H59531075   5.267   6.578   7.129 -0.9720  1.2976  0.8221
   41MOL   H59631076   5.126   6.443   6.975 -0.2201 -2.4333 -0.9148
   41MOL   H59731077   5.358   6.281   7.081 -1.7439 -0.5921  1.3371
   41MOL   H59831078   5.376   6.417   6.963 -1.1609  1.1459 -1.4129
   41MOL   H59931079   5.113   6.224   7.184  1.2251 -1.7918  0.2274
   41MOL   H60031080   5.063   6.222   7.016 -0.8848  0.6801  0.3052
   41MOL   H60131081   4.904   6.420   7.080  0.6394  1.8251  0.5778
   41MOL   H60231082   4.886   6.272   7.184  1.3617 -0.6665  0.1267
   41MOL   H60331083   5.016   6.384   7.356 -0.1661 -2.0376 -1.0022
   41MOL   H60431084   4.765   6.432   7.295  2.0462 -2.1964  2.0092
   41MOL   H60531085   4.815   6.587   7.236 -0.3121 -0.2085 -1.3029
   41MOL   H60631086   4.769   6.408   7.796  0.2768 -0.0725 -0.7879
   41MOL   H60731087   4.880   6.479   8.007  0.7955 -1.0088 -0.1786
   41MOL   H60831088   5.121   6.758   7.788  0.3902 -0.2927 -0.8848
   41MOL   H60931089   5.013   6.700   7.578 -0.2252  2.5113  1.4713
   41MOL   C61031090   5.622   6.656   0.177 -0.6140  0.0540  0.0844
   41MOL   C61131091   5.497   6.728   0.189 -0.1867 -0.8125  1.0079
   41MOL   C61231092   5.405   6.710   0.069 -0.1538 -0.0496 -0.2274
   41MOL   C61331093   5.269   6.784   0.081  0.0185  0.5497  0.4948
   41MOL   C61431094   5.484   6.746   7.971 -0.2067  0.1235  0.5196
   41MOL   C61531095   5.614   6.667   7.957 -0.2015  0.2786  0.0360
   41MOL   C61631096   5.701   6.691   0.052  0.0562  0.1429  0.7286
   41MOL   C61731097   5.828   6.599   0.045  0.0380 -0.2169  0.0435
   41MOL   O61831098   5.891   6.602   7.946 -0.1733 -0.2392 -0.2059
   41MOL   C61931099   6.010   6.548   7.931  1.3349 -0.1874  0.2264
   41MOL   O62031100   6.067   6.477   8.024  0.3881 -0.4744  0.6130
   41MOL   C62131101   6.063   6.559   7.799 -0.0699  0.5165  0.1192
   41MOL   C62231102   5.995   6.633   7.704 -0.0785 -0.4641  0.0970
   41MOL   C62331103   6.039   6.646   7.570 -0.7678  0.1769 -0.0143
   41MOL   C62431104   6.148   6.566   7.528  0.5115 -0.4714 -0.2614
   41MOL   C62531105   6.197   6.574   7.391 -0.0855 -0.6125  0.1141
   41MOL   O62631106   6.154   6.652   7.308 -0.8278  0.4300  0.1489
   41MOL   O62731107   6.282   6.470   7.357 -0.1593  0.3268  0.0311
   41MOL   C62831108   6.222   6.499   7.630  0.0876  0.8124 -0.3707
   41MOL   C62931109   6.188   6.501   7.767  0.6623  0.2165 -0.3973
   41MOL   H63031110   5.588   6.552   0.185  0.3446 -0.0640  3.6405
   41MOL   H63131111   5.669   6.665   0.275  1.6753  1.2378 -1.1125
   41MOL   H63231112   5.501   6.834   0.215  0.7382 -0.5280 -0.2234
   41MOL   H63331113   5.442   6.689   0.274 -1.6161  0.9202  0.9062
   41MOL   H63431114   5.387   6.603   0.059  1.4170 -0.2050 -1.6227
   41MOL   H63531115   5.279   6.890   0.060  0.4484  0.1831 -1.1748
   41MOL   H63631116   5.225   6.776   0.181  1.0878  0.1584  0.9467
   41MOL   H63731117   5.519   6.848   7.986  0.6781 -0.1100  0.1076
   41MOL   H63831118   5.411   6.755   7.891 -0.7429 -0.1301  0.9748
   41MOL   H63931119   5.586   6.562   7.952  1.8362 -0.4440  2.7359
   41MOL   H64031120   5.671   6.688   7.867 -0.5186 -1.1459 -0.5158
   41MOL   H64131121   5.749   6.789   0.054 -1.1123  0.7076  1.3094
   41MOL   H64231122   5.784   6.501   0.063 -2.9932  0.9844 -0.5954
   41MOL   H64331123   5.896   6.611   0.130 -0.4543  0.5529  0.3270
   41MOL   H64431124   5.907   6.688   7.734 -0.9596 -2.5299  1.4357
   41MOL   H64531125   5.980   6.698   7.496  0.6484  0.2226 -1.1155
   41MOL   H64631126   6.308   6.434   7.617 -1.6599 -1.3649 -1.3989
   41MOL   H64731127   6.249   6.448   7.839 -1.8897  1.1608  2.5525
   41MOL   C64831128   6.439   6.079   7.228  0.8370 -0.5722  0.6057
   41MOL   C64931129   6.434   6.232   7.259  0.3187  0.8464  0.0287
   41MOL   C65031130   6.316   6.305   7.188  0.1860 -0.8569  0.1278
   41MOL   C65131131   6.310   6.456   7.222  0.1811  0.1005 -0.5703
   41MOL   C65231132   6.335   6.286   7.035 -0.1964  0.1370  0.6764
   41MOL   C65331133   6.334   6.135   6.998 -0.6675  1.1422 -0.2109
   41MOL   C65431134   6.448   6.064   7.078  0.2084 -0.2351  0.0158
   41MOL   C65531135   6.470   5.914   7.042  0.4670  0.2516  0.3166
   41MOL   O65631136   6.359   5.837   7.078  0.1477  0.5796 -0.3577
   41MOL   C65731137   6.273   5.780   6.979 -0.3889 -0.3309 -0.1310
   41MOL   O65831138   6.302   5.801   6.860  0.4527  0.7760  0.5183
   41MOL   C65931139   6.161   5.696   7.030  0.0569 -0.7780 -0.1595
   41MOL   C66031140   6.141   5.676   7.170  0.2373 -0.6636  0.0839
   41MOL   C66131141   6.035   5.591   7.209  0.3320 -0.6307  0.6688
   41MOL   C66231142   5.949   5.528   7.116  0.3417  0.0519 -0.3295
   41MOL   C66331143   5.863   5.417   7.171  0.8461  0.6833  0.4678
   41MOL   O66431144   5.769   5.361   7.110 -0.2772 -0.4595 -0.2369
   41MOL   O66531145   5.895   5.378   7.293  0.7980 -0.0947  0.7125
   41MOL   C66631146   5.964   5.554   6.979  0.4137  0.4165  0.4044
   41MOL   C66731147   6.073   5.633   6.937 -0.2942  0.2915  0.2093
   41MOL   H66831148   6.348   6.029   7.261  0.6567  0.3785  1.5881
   41MOL   H66931149   6.531   6.044   7.275  0.7971 -2.2336 -0.5425
   41MOL   H67031150   6.527   6.278   7.224 -0.7469  0.0655 -4.1265
   41MOL   H67131151   6.432   6.230   7.368  1.6010 -1.1182  0.0431
   41MOL   H67231152   6.219   6.269   7.222 -0.9644  2.3399  0.3535
   41MOL   H67331153   6.234   6.508   7.164 -0.1601  0.3780  0.1205
   41MOL   H67431154   6.409   6.500   7.210  0.9203 -0.7633  1.9263
   41MOL   H67531155   6.430   6.324   6.997  0.5579 -0.4940  1.9249
   41MOL   H67631156   6.253   6.342   6.990 -1.3458  0.4056  3.0242
   41MOL   H67731157   6.240   6.095   7.035  0.5279 -0.7034  0.9741
   41MOL   H67831158   6.359   6.117   6.893  1.1396 -1.1502  0.5550
   41MOL   H67931159   6.547   6.105   7.058 -0.2913  1.0270  0.1209
   41MOL   H68031160   6.562   5.887   7.095  1.8493  1.8193 -1.2036
   41MOL   H68131161   6.492   5.892   6.937  1.0619  2.6136 -0.0738
   41MOL   H68231162   6.197   5.725   7.248 -1.4534  1.4890  0.0156
   41MOL   H68331163   6.036   5.583   7.316 -0.5372  0.0020  0.7212
   41MOL   H68431164   5.915   5.494   6.903  0.3941  1.3013 -0.2792
   41MOL   H68531165   6.101   5.651   6.834  1.5222 -0.4667  0.5498
   41MOL   C68631166   6.164   5.136   7.516  0.7102 -0.4475  0.1461
   41MOL   C68731167   6.045   5.222   7.490  0.6012  0.5883 -0.3795
   41MOL   C68831168   5.941   5.169   7.383 -0.3854 -0.3903  0.4558
   41MOL   C68931169   5.827   5.266   7.353 -0.2802 -0.4733 -0.3728
   41MOL   C69031170   6.014   5.123   7.250  0.4549  0.3333 -0.4188
   41MOL   C69131171   6.138   5.029   7.282  0.4647 -0.0318 -0.0636
   41MOL   C69231172   6.234   5.091   7.382  0.3247  0.2291  0.3854
   41MOL   C69331173   6.338   4.986   7.431 -0.3360 -0.8476 -0.8785
   41MOL   O69431174   6.431   5.027   7.538 -0.3380 -0.5147  0.2147
   41MOL   C69531175   6.526   5.113   7.505  0.4616 -0.3783 -0.2134
   41MOL   O69631176   6.551   5.152   7.386  0.1085  0.1455  0.3108
   41MOL   C69731177   6.592   5.174   7.625  0.5474  0.0642 -0.1902
   41MOL   C69831178   6.713   5.238   7.619  0.5655 -0.3511  0.2688
   41MOL   C69931179   6.767   5.306   7.734  0.4878 -1.1533  0.1652
   41MOL   C70031180   6.694   5.305   7.855 -0.1367 -0.5863  0.0768
   41MOL   C70131181   6.758   5.361   7.978 -0.4775 -0.5643 -0.2899
   41MOL   O70231182   6.881   5.373   7.986  0.4627 -0.2415  0.3674
   41MOL   O70331183   6.669   5.388   0.048  0.9825 -0.0864 -0.0511
   41MOL   C70431184   6.566   5.241   7.863  0.2096 -0.1295  0.4374
   41MOL   C70531185   6.516   5.180   7.744  0.3369  1.3225 -0.4972
   41MOL   H70631186   6.132   5.054   7.581  0.2011 -0.8157 -0.5688
   41MOL   H70731187   6.233   5.189   7.583  0.0469  0.7242 -0.0878
   41MOL   H70831188   6.071   5.322   7.454 -2.4450  1.7919  0.5652
   41MOL   H70931189   6.004   5.252   7.587 -0.1646  1.9318 -1.1021
   41MOL   H71031190   5.904   5.075   7.426  0.9754 -1.7520 -1.2523
   41MOL   H71131191   5.771   5.293   7.442 -0.2780  0.8830 -0.7652
   41MOL   H71231192   5.757   5.222   7.282  0.3996 -2.2698  0.0523
   41MOL   H71331193   6.052   5.206   7.190 -0.8530 -0.0797 -1.8724
   41MOL   H71431194   5.943   5.060   7.195 -0.5555  0.5295  0.6283
   41MOL   H71531195   6.087   4.938   7.315  0.8168 -0.4779 -0.7228
   41MOL   H71631196   6.193   5.004   7.191  0.2712 -0.2605 -0.1201
   41MOL   H71731197   6.278   5.173   7.325  0.6339 -1.6165 -2.1168
   41MOL   H71831198   6.391   4.941   7.346  1.9669 -1.3927  0.7862
   41MOL   H71931199   6.279   4.902   7.470  1.9694 -2.3748 -0.5417
   41MOL   H72031200   6.774   5.243   7.530  0.2953 -0.2963  0.0847
   41MOL   H72131201   6.861   5.358   7.727  0.4152 -1.1589 -0.9933
   41MOL   H72231202   6.521   5.227   7.961 -2.4920 -1.8789 -0.9910
   41MOL   H72331203   6.421   5.128   7.752  1.5039 -1.1944 -2.3464
   41MOL   C72431204   6.620   5.781   0.171  0.5563 -0.5672  0.1534
   41MOL   C72531205   6.682   5.655   0.120  0.4072  0.0385  0.0060
   41MOL   C72631206   6.676   5.546   0.232 -0.1086 -0.0054  0.2499
   41MOL   C72731207   6.727   5.411   0.178  0.2025 -0.1691  0.6675
   41MOL   C72831208   6.747   5.593   0.355 -0.3641 -0.3834  0.4539
   41MOL   C72931209   6.721   5.739   0.406  0.4907  0.0832  0.5102
   41MOL   C73031210   6.698   5.841   0.288  0.6209 -0.0907  0.0575
   41MOL   C73131211   6.645   5.977   0.331  0.1509  0.5855 -0.3341
   41MOL   O73231212   6.746   6.043   0.400  0.0466  0.0413 -0.1430
   41MOL   C73331213   6.733   6.179   0.410 -1.2711  0.3219 -0.6043
   41MOL   O73431214   6.635   6.238   0.366  0.0587  0.1801  0.2566
   41MOL   C73531215   6.856   6.250   0.467  0.0396 -0.5253  0.2439
   41MOL   C73631216   6.965   6.189   0.534 -0.1234  0.3418  0.2537
   41MOL   C73731217   7.082   6.267   0.564  0.7975 -0.0630 -0.3078
   41MOL   C73831218   7.079   6.411   0.548  0.3174  0.1193  0.3361
   41MOL   C73931219   7.202   6.493   0.574  0.0102  0.1239 -0.0962
   41MOL   O74031220   7.299   6.464   0.645 -0.9477 -0.1846 -0.4172
   41MOL   O74131221   7.207   6.596   0.490  0.6361  0.3392 -0.1926
   41MOL   C74231222   6.957   6.471   0.506 -1.0990 -0.2288  0.0619
   41MOL   C74331223   6.849   6.392   0.464  0.0922  0.8153 -0.2274
   41MOL   H74431224   6.516   5.772   0.202  0.3234 -2.6930 -1.1322
   41MOL   H74531225   6.628   5.846   0.084  2.2984 -1.4913 -0.4002
   41MOL   H74631226   6.780   5.678   0.077  1.5173 -0.9720  1.9328
   41MOL   H74731227   6.616   5.620   0.040  1.0975 -0.1417 -0.4947
   41MOL   H74831228   6.573   5.528   0.264 -0.0970  0.0445  0.3159
   41MOL   H74931229   6.688   5.339   0.250  0.3706 -0.9155  0.0163
   41MOL   H75031230   6.835   5.395   0.176 -0.0862 -2.1785 -1.8561
   41MOL   H75131231   6.855   5.585   0.344 -0.1376  2.2867  0.4758
   41MOL   H75231232   6.706   5.535   0.437 -1.2214  1.8706  1.6751
   41MOL   H75331233   6.630   5.745   0.466 -1.0082 -0.2940 -1.6532
   41MOL   H75431234   6.793   5.768   0.482  0.2553 -0.3167  0.8869
   41MOL   H75531235   6.795   5.868   0.246  1.1387 -1.0231  0.6364
   41MOL   H75631236   6.565   5.964   0.404  0.6783 -1.6344 -0.1267
   41MOL   H75731237   6.615   6.035   0.244  0.4556  1.1704 -0.0508
   41MOL   H75831238   6.966   6.081   0.541  0.4200  0.5115  4.1842
   41MOL   H75931239   7.177   6.221   0.588 -0.1312 -1.9020 -0.0185
   41MOL   H76031240   6.952   6.578   0.492  0.4552 -0.3878 -2.0593
   41MOL   H76131241   6.750   6.428   0.442  0.8175  2.5141 -0.7462
   41MOL   H76231242   7.288   6.645   0.496 -0.0022  1.4144 -0.1860
   42MOL     C131243   7.617   3.869   7.417 -0.7931  0.4740 -0.3082
   42MOL     C231244   7.519   3.933   7.317  0.3957 -0.4850  1.0239
   42MOL     C331245   7.494   4.080   7.349  0.6684 -0.5238 -0.9922
   42MOL     C431246   7.401   4.154   7.252 -0.5263 -0.0111  0.1117
   42MOL     C531247   7.450   4.108   7.497  0.0051 -0.1927 -0.1632
   42MOL     C631248   7.536   4.039   7.598 -0.2001 -0.3186  0.2830
   42MOL     C731249   7.567   3.890   7.562 -0.1791 -0.2765 -0.9122
   42MOL     C831250   7.642   3.812   7.671  0.0121 -0.3805 -0.1533
   42MOL     O931251   7.635   3.672   7.635  0.1363 -0.3942 -0.0699
   42MOL    C1031252   7.701   3.583   7.716 -0.3613  0.3584  0.4656
   42MOL    O1131253   7.774   3.627   7.811 -0.0107  0.0614  0.0497
   42MOL    C1231254   7.676   3.439   7.696 -0.2105 -0.3306  0.6727
   42MOL    C1331255   7.714   3.347   7.794 -0.4533 -0.1703 -0.3934
   42MOL    C1431256   7.698   3.208   7.777  0.4666  0.2423 -0.1129
   42MOL    C1531257   7.646   3.157   7.657 -0.3769 -0.2750 -0.0291
   42MOL    C1631258   7.645   3.011   7.630  0.3122 -0.0022  0.4017
   42MOL    O1731259   7.576   2.951   7.543 -0.6229  0.1674  0.5309
   42MOL    O1831260   7.704   2.947   7.731 -0.1931  0.0419 -0.0291
   42MOL    C1931261   7.593   3.251   7.564  0.2875 -0.0903  0.5726
   42MOL    C2031262   7.615   3.393   7.579  0.1170 -0.4519  0.5810
   42MOL    H2131263   7.717   3.911   7.416 -1.6793  2.6153 -0.8656
   42MOL    H2231264   7.638   3.763   7.399 -2.5193  0.0514  0.0601
   42MOL    H2331265   7.421   3.885   7.320  0.5289 -0.8266  0.1142
   42MOL    H2431266   7.551   3.937   7.213  0.3019 -2.3550  0.9054
   42MOL    H2531267   7.591   4.130   7.346  1.3157 -1.5326  1.8017
   42MOL    H2631268   7.391   4.261   7.269 -3.4593  0.0032 -1.4852
   42MOL    H2731269   7.298   4.119   7.261 -0.7365  0.7093  0.5165
   42MOL    H2831270   7.346   4.075   7.503  0.3518 -1.1724  0.4997
   42MOL    H2931271   7.432   4.215   7.511  1.5899  0.1926 -0.9108
   42MOL    H3031272   7.628   4.097   7.607 -1.3847  1.1144  4.0077
   42MOL    H3131273   7.481   4.050   7.691 -0.7949  1.3578 -0.2491
   42MOL    H3231274   7.464   3.853   7.562 -0.2473 -0.1048 -2.6771
   42MOL    H3331275   7.597   3.825   7.769 -1.4414 -1.0734 -0.7224
   42MOL    H3431276   7.745   3.847   7.677 -0.3899  1.0181 -1.1181
   42MOL    H3531277   7.767   3.381   7.882 -0.2464 -0.6337 -0.3381
   42MOL    H3631278   7.729   3.145   7.859  0.8119  1.5855  0.8084
   42MOL    H3731279   7.539   3.212   7.479  2.2328 -0.0540 -0.6892
   42MOL    H3831280   7.589   3.459   7.498 -0.5544 -2.2659 -0.7198
   42MOL    H3931281   7.438   4.139   7.151  3.7609 -1.1297  1.7229
   42MOL    C4031282   8.004   2.728   7.455  1.2494  0.2808 -0.4412
   42MOL    C4131283   7.878   2.794   7.518  0.1778  0.2943 -0.2276
   42MOL    C4231284   7.854   2.750   7.663  0.5223 -0.4599 -0.4968
   42MOL    C4331285   7.726   2.804   7.728 -0.0524  0.7360  0.2019
   42MOL    C4431286   7.856   2.599   7.668  0.7369 -0.0425 -1.0250
   42MOL    C4531287   7.984   2.530   7.619  0.1548 -0.0343 -0.1315
   42MOL    C4631288   7.993   2.572   7.465  0.3903 -0.8407  0.3658
   42MOL    C4731289   0.072   2.506   7.377  0.2103  0.0086 -0.5381
   42MOL    O4831290   0.047   2.361   7.364 -0.0691 -0.1961  0.2401
   42MOL    C4931291   0.119   2.277   7.448 -0.0251 -0.1666  0.3797
   42MOL    O5031292   0.223   2.307   7.504 -0.3384 -0.2537  0.5429
   42MOL    C5131293   0.060   2.140   7.459  0.5015  0.4354  0.0758
   42MOL    C5231294   0.134   2.040   7.527  0.2753 -0.3959 -0.1026
   42MOL    C5331295   0.081   1.913   7.548 -0.1521  0.1216 -0.4917
   42MOL    C5431296   7.987   1.879   7.503 -0.6384 -0.2682 -0.9913
   42MOL    C5531297   7.929   1.741   7.528  0.0039 -0.2910 -0.4327
   42MOL    O5631298   8.000   1.655   7.575 -0.1381  0.1955  0.2218
   42MOL    O5731299   7.797   1.723   7.494 -0.3483  0.4897 -0.0622
   42MOL    C5831300   7.912   1.974   7.431  0.1372  0.1063 -0.0741
   42MOL    C5931301   7.954   2.108   7.421 -0.3500  1.0470  0.3720
   42MOL    H6031302   0.069   2.768   7.484  0.6379  1.4196  0.0773
   42MOL    H6131303   8.013   2.751   7.349 -2.0591  1.4503 -0.5386
   42MOL    H6231304   7.788   2.784   7.458  0.4816  0.2544 -0.6827
   42MOL    H6331305   7.893   2.902   7.513  1.1248  0.2038  0.5350
   42MOL    H6431306   7.941   2.787   7.716  0.8904 -0.5540 -1.0352
   42MOL    H6531307   7.728   2.772   7.832  1.6930 -0.7869 -0.2666
   42MOL    H6631308   7.638   2.755   7.688  1.6712 -1.6705 -0.7545
   42MOL    H6731309   7.768   2.562   7.616  0.4161  1.0977 -1.3016
   42MOL    H6831310   7.842   2.572   7.772 -0.6280 -2.4393 -1.8032
   42MOL    H6931311   0.042   2.564   7.670  0.6299 -0.0108 -0.9814
   42MOL    H7031312   7.975   2.422   7.626 -1.3085 -0.0860 -2.2829
   42MOL    H7131313   7.894   2.539   7.434 -0.5457  1.0135  1.2905
   42MOL    H7231314   0.170   2.520   7.422  0.2749 -3.3032  0.5140
   42MOL    H7331315   0.076   2.559   7.282 -0.2492 -0.4378 -0.8088
   42MOL    H7431316   0.237   2.050   7.560  0.6881 -0.1737 -1.4615
   42MOL    H7531317   0.137   1.846   7.612  0.9635 -0.5711 -2.1745
   42MOL    H7631318   7.814   1.957   7.388 -0.1482 -0.1238  0.6494
   42MOL    H7731319   7.900   2.184   7.367  0.0414  1.0994  0.0533
   42MOL    C7831320   7.638   1.307   7.740 -0.4167 -0.1803  0.3199
   42MOL    C7931321   7.672   1.378   7.606  0.4244 -0.0085 -0.3378
   42MOL    C8031322   7.723   1.520   7.621 -0.3703  0.3721  0.0745
   42MOL    C8131323   7.759   1.581   7.486 -0.1416  0.1487  0.1440
   42MOL    C8231324   7.626   1.596   7.711  0.6814  0.9656 -0.2954
   42MOL    C8331325   7.604   1.531   7.854 -0.0061  0.0859  0.1768
   42MOL    C8431326   7.548   1.387   7.837 -0.3988  0.4501 -0.4572
   42MOL    C8531327   7.519   1.324   7.977 -0.4803  0.2794 -0.0771
   42MOL    O8631328   7.417   1.238   7.951 -0.6839 -0.5104  0.5307
   42MOL    C8731329   7.415   1.121   8.009  0.6334 -0.4468 -0.0977
   42MOL    O8831330   7.504   1.085   0.050 -0.0031  0.4891 -0.3519
   42MOL    C8931331   7.307   1.031   7.966 -0.4786 -0.3493  1.0751
   42MOL    C9031332   7.200   1.074   7.889  0.0574 -0.5461  0.0405
   42MOL    C9131333   7.100   0.988   7.849 -1.4889 -0.5569  0.7421
   42MOL    C9231334   7.104   0.858   7.887  0.5307  0.6608 -0.2369
   42MOL    C9331335   6.992   0.770   7.845 -0.0829 -0.4174 -0.0797
   42MOL    O9431336   6.917   0.795   7.749  0.5310  0.5918 -0.6257
   42MOL    O9531337   6.978   0.672   7.928  0.3746 -0.1122 -0.6195
   42MOL    C9631338   7.219   0.807   7.951 -0.3603 -0.3231 -0.0974
   42MOL    C9731339   7.317   0.895   8.001 -0.3841  0.5937 -0.1154
   42MOL    H9831340   7.731   1.299   7.796  0.7089  1.6447 -1.2153
   42MOL    H9931341   7.606   1.206   7.716  1.3861 -0.3266 -1.5390
   42MOL   H10031342   7.590   1.373   7.534 -0.2268 -0.9674  0.4510
   42MOL   H10131343   7.751   1.319   7.560  1.7442  1.4570 -0.0090
   42MOL   H10231344   7.818   1.510   7.673 -0.3687  3.0905  0.6563
   42MOL   H10331345   7.676   1.577   7.415 -2.1511 -3.8629  2.5456
   42MOL   H10431346   7.838   1.524   7.437  2.3176  1.3934  2.5261
   42MOL   H10531347   7.534   1.573   7.658 -0.4506 -1.5434  2.5707
   42MOL   H10631348   7.646   1.703   7.715  0.0633  1.0203  2.0184
   42MOL   H10731349   7.695   1.537   7.914  1.2401 -0.3202 -1.6373
   42MOL   H10831350   7.539   1.596   7.913 -0.3366 -0.1168  0.0393
   42MOL   H10931351   7.455   1.404   7.782 -0.8656 -2.6304 -0.6860
   42MOL   H11031352   7.497   1.397   0.023  1.5856 -0.3091  1.0835
   42MOL   H11131353   7.609   1.272   8.009 -0.1750 -0.4945 -2.0901
   42MOL   H11231354   7.196   1.174   7.847 -1.1703  0.4553  2.4661
   42MOL   H11331355   7.016   1.023   7.791 -1.7196 -1.2465  0.6602
   42MOL   H11431356   7.222   0.704   7.983 -0.0528 -0.4699 -0.5941
   42MOL   H11531357   7.398   0.861   0.032  0.8822 -1.2134 -2.6082
   42MOL   C11631358   6.853   0.217   7.819 -0.0881  0.1720  0.1733
   42MOL   C11731359   6.797   0.360   7.841 -0.1187  0.0837 -0.6535
   42MOL   C11831360   6.910   0.446   7.902  0.2517  0.6015  1.0019
   42MOL   C11931361   6.862   0.588   7.916 -0.0976  0.4457 -0.3669
   42MOL   C12031362   6.958   0.396   0.010 -0.1732  0.1667  0.2205
   42MOL   C12131363   7.021   0.263   8.020 -0.0459 -0.4641  0.3066
   42MOL   C12231364   6.917   0.159   7.953  0.5589  0.2951  0.3596
   42MOL   C12331365   6.988   0.019   7.933  0.1435 -0.2496 -0.1787
   42MOL   O12431366   7.105   0.014   7.855  0.5949  0.0021  0.4328
   42MOL   C12531367   7.159   7.932   7.824  0.4771 -0.3196  0.4825
   42MOL   O12631368   7.102   7.819   7.840  0.2396 -0.7152  0.1274
   42MOL   C12731369   7.285   7.950   7.756 -0.6558  0.2507 -0.0549
   42MOL   C12831370   7.370   7.841   7.737 -0.2992  0.2067  0.2500
   42MOL   C12931371   7.496   7.855   7.674  0.2311 -0.5788  0.2650
   42MOL   C13031372   7.538   7.976   7.623  0.2491 -0.6242 -0.1146
   42MOL   C13131373   7.675   7.987   7.556 -0.1344 -0.3886  0.2511
   42MOL   O13231374   7.753   7.889   7.537  0.0852  0.5860 -0.5574
   42MOL   O13331375   7.713   0.080   7.542  0.1233  0.6868 -0.7381
   42MOL   C13431376   7.449   0.055   7.633  0.0381 -0.5636 -0.0353
   42MOL   C13531377   7.327   0.045   7.704  0.1933 -0.2502 -0.1166
   42MOL   H13631378   6.930   0.226   7.743  1.1228  1.0540  1.4570
   42MOL   H13731379   6.779   0.143   7.790  0.6295 -1.4821  2.3805
   42MOL   H13831380   6.710   0.355   7.907 -1.5237 -1.1631 -2.5583
   42MOL   H13931381   6.770   0.395   7.741 -0.8595 -0.1530 -0.5392
   42MOL   H14031382   6.992   0.432   7.832 -1.6949  0.3573 -1.3124
   42MOL   H14131383   6.790   0.588   7.998  0.0057 -0.5677 -0.2673
   42MOL   H14231384   6.802   0.616   7.830 -2.1453  4.5758  2.2734
   42MOL   H14331385   6.874   0.381   0.077 -0.2019 -0.5254  0.0237
   42MOL   H14431386   7.033   0.465   0.050  0.1821  1.3170 -2.3334
   42MOL   H14531387   7.103   0.266   7.948 -1.0278  0.9255 -0.7956
   42MOL   H14631388   7.048   0.222   0.085  0.3114 -0.1496  0.3421
   42MOL   H14731389   6.839   0.150   8.029  0.1503 -0.9003 -0.1831
   42MOL   H14831390   6.913   7.987   7.887 -1.9547  2.6098 -0.8690
   42MOL   H14931391   6.998   7.995   8.026  1.4698 -0.4566 -0.4348
   42MOL   H15031392   7.344   7.742   7.772 -0.1433 -0.6659 -1.9947
   42MOL   H15131393   7.557   7.768   7.656  1.4346  0.7948 -2.7010
   42MOL   H15231394   7.480   0.153   7.600  1.8625 -1.2831 -0.5039
   42MOL   H15331395   7.264   0.131   7.720  0.6346 -0.3458  2.3310
   42MOL   C15431396   7.746   0.427   7.239  0.3532 -0.0935 -0.0919
   42MOL   C15531397   7.735   0.289   7.311  0.5940 -0.0955  0.3790
   42MOL   C15631398   7.839   0.259   7.430 -0.2411  0.1286  0.1988
   42MOL   C15731399   7.838   0.110   7.475  1.3187 -0.5624  0.5359
   42MOL   C15831400   7.980   0.300   7.376  0.9825  0.2106  0.5543
   42MOL   C15931401   7.976   0.443   7.323 -0.1545 -1.0229  0.2569
   42MOL   C16031402   7.889   0.460   7.200 -0.2761 -0.4336 -0.3130
   42MOL   C16131403   7.900   0.597   7.141  0.0005 -0.1795  0.2376
   42MOL   O16231404   7.806   0.626   7.048 -0.5894 -0.7871  0.3821
   42MOL   C16331405   7.826   0.588   6.914 -0.1968 -0.5078  0.6994
   42MOL   O16431406   7.929   0.536   6.878 -0.5713 -0.1723 -0.1921
   42MOL   C16531407   7.709   0.622   6.827 -0.2663  1.0868 -0.0815
   42MOL   C16631408   7.602   0.691   6.877  0.0060 -0.3863  0.0692
   42MOL   C16731409   7.481   0.705   6.807 -0.0246 -0.1397 -0.3976
   42MOL   C16831410   7.470   0.647   6.680  0.6400  0.1893  0.6151
   42MOL   C16931411   7.333   0.662   6.605  0.0126  1.2127 -0.1598
   42MOL   O17031412   7.246   0.739   6.646 -0.0743 -0.2972 -0.0023
   42MOL   O17131413   7.324   0.580   6.501  0.2665 -0.4808  0.0258
   42MOL   C17231414   7.575   0.573   6.620  0.7539 -0.4629  0.0295
   42MOL   C17331415   7.692   0.557   6.698 -0.8261  0.3454  0.2611
   42MOL   H17431416   7.710   0.496   7.315  2.4591  1.8804 -0.8190
   42MOL   H17531417   7.672   0.438   7.160 -1.5394 -1.1947  1.4845
   42MOL   H17631418   7.743   0.205   7.242 -0.4963 -0.0155  0.1461
   42MOL   H17731419   7.635   0.296   7.354  1.1809 -0.4168  1.8328
   42MOL   H17831420   7.813   0.327   7.511 -2.2212 -0.4706  0.0951
   42MOL   H17931421   7.914   0.095   7.552  1.0844  1.0781  1.1150
   42MOL   H18031422   7.846   0.046   7.388 -0.4502  2.5663 -2.0391
   42MOL   H18131423   8.021   0.235   7.299  0.3539  1.2641 -0.6934
   42MOL   H18231424   0.011   0.289   7.464 -0.2883 -2.2496  1.2204
   42MOL   H18331425   7.959   0.523   7.395  1.5829  0.3642 -0.8401
   42MOL   H18431426   0.046   0.459   7.287  0.7572  0.0741  3.1228
   42MOL   H18531427   7.912   0.385   7.124 -2.2836  0.0395 -1.4551
   42MOL   H18631428   8.002   0.600   7.102  0.5813 -1.0735  1.6111
   42MOL   H18731429   7.903   0.668   7.224  0.9373  0.0439  0.0158
   42MOL   H18831430   7.598   0.739   6.974 -2.9792 -0.7012  0.1549
   42MOL   H18931431   7.394   0.753   6.852  0.0964 -0.6680  0.4146
   42MOL   H19031432   7.575   0.525   6.523 -1.9103 -0.0898 -0.1819
   42MOL   H19131433   7.777   0.500   6.664  1.5137  2.9352  1.5501
   42MOL   C19231434   7.075   0.235   6.418 -0.7139 -0.4824 -0.0564
   42MOL   C19331435   7.188   0.342   6.413 -0.6368 -0.7281  0.5927
   42MOL   C19431436   7.133   0.477   6.453 -0.2477  0.0435 -0.3507
   42MOL   C19531437   7.220   0.591   6.413 -0.4403  0.9595 -0.2727
   42MOL   C19631438   6.999   0.504   6.378  0.1348  0.0864 -0.2703
   42MOL   C19731439   6.888   0.398   6.397 -0.5805 -0.2129 -0.3086
   42MOL   C19831440   6.938   0.265   6.348 -0.2225  0.4368  0.6672
   42MOL   C19931441   6.828   0.152   6.362 -0.1558 -0.4959 -0.2790
   42MOL   O20031442   6.712   0.191   6.287 -0.4024 -0.0869 -0.0441
   42MOL   C20131443   6.680   0.117   6.173 -0.6911  0.1554 -0.6023
   42MOL   O20231444   6.748   0.023   6.135 -0.6765  0.0430  0.2108
   42MOL   C20331445   6.553   0.163   6.112  0.3659 -0.0712  0.2957
   42MOL   C20431446   6.482   0.273   6.159  0.0947 -0.0942 -0.5382
   42MOL   C20531447   6.353   0.297   6.110  0.4453 -0.5108 -0.5181
   42MOL   C20631448   6.294   0.221   6.009  0.1308  0.0064  0.1415
   42MOL   C20731449   6.149   0.251   5.972  0.6394  0.3838  0.1940
   42MOL   O20831450   6.082   0.351   5.997 -0.0118  0.5632 -0.0038
   42MOL   O20931451   6.098   0.147   5.898  0.4267  0.1143 -0.2079
   42MOL   C21031452   6.375   0.122   5.950  0.1226 -0.0929  0.1905
   42MOL   C21131453   6.501   0.090   6.000  0.0160 -0.5739 -0.2581
   42MOL   H21231454   7.052   0.206   6.520  1.3665 -1.6035  0.1133
   42MOL   H21331455   7.113   0.139   6.383  0.4842 -0.7597  1.9150
   42MOL   H21431456   7.224   0.362   6.312 -0.7996 -0.0769  0.6594
   42MOL   H21531457   7.276   0.323   6.474  0.7600  2.4723 -0.3046
   42MOL   H21631458   7.109   0.471   6.559  1.6528 -0.5440  0.0695
   42MOL   H21731459   7.173   0.687   6.433 -0.1219  1.0380  0.0798
   42MOL   H21831460   7.253   0.587   6.309 -1.9424  2.3170 -0.8263
   42MOL   H21931461   7.028   0.515   6.273  0.5557 -4.6640 -0.7657
   42MOL   H22031462   6.968   0.601   6.416  0.9714  0.9507 -1.7289
   42MOL   H22131463   6.862   0.396   6.503  0.5678 -2.8054 -0.0559
   42MOL   H22231464   6.800   0.435   6.344  1.2465 -0.5148 -3.6880
   42MOL   H22331465   6.955   0.273   6.241 -1.2049 -2.3139  0.2745
   42MOL   H22431466   6.793   0.139   6.464 -0.7462 -0.4779 -0.4796
   42MOL   H22531467   6.875   0.058   6.334  0.5449  0.3472 -1.9682
   42MOL   H22631468   6.516   0.340   6.236 -1.4088  0.6509 -0.5029
   42MOL   H22731469   6.283   0.364   6.159  0.0760 -1.4042  0.1788
   42MOL   H22831470   6.336   0.057   5.873  0.8571  0.3236 -0.5408
   42MOL   H22931471   6.562   0.018   5.947 -2.1761 -1.7806 -1.2344
   42MOL   C23031472   5.808   7.978   5.558  0.1514  0.0959 -0.0210
   42MOL   C23131473   5.814   0.046   5.677  0.0600 -0.0300  0.2763
   42MOL   C23231474   5.961   0.045   5.731  0.0355  1.3470  0.4107
   42MOL   C23331475   5.965   0.141   5.850 -0.9712  0.4314 -0.5276
   42MOL   C23431476   5.996   7.935   5.777 -0.4058  0.5078 -0.3350
   42MOL   C23531477   5.976   7.820   5.670 -0.2209  0.2900 -0.1823
   42MOL   C23631478   5.838   7.837   5.602 -0.6752  0.1144  0.3344
   42MOL   C23731479   5.829   7.731   5.486  0.3467 -1.3004  0.0798
   42MOL   O23831480   5.722   7.776   5.398 -0.5152 -0.5722 -0.1210
   42MOL   C23931481   5.693   7.715   5.282 -0.3349 -0.6673  0.5011
   42MOL   O24031482   5.750   7.619   5.236  0.2641 -0.3339  0.5398
   42MOL   C24131483   5.600   7.802   5.203  0.3366 -0.3398 -1.0671
   42MOL   C24231484   5.538   7.917   5.253 -0.4600 -0.5429 -0.0510
   42MOL   C24331485   5.453   8.000   5.176 -0.0285  1.1201 -0.3864
   42MOL   C24431486   5.433   7.968   5.039  0.0892 -0.0591 -0.0025
   42MOL   C24531487   5.337   0.008   4.953  0.2414 -0.3530 -0.0717
   42MOL   O24631488   5.224   0.052   4.988  0.6527  0.0244 -0.2790
   42MOL   O24731489   5.385   0.034   4.832 -0.0121 -0.2056  0.0271
   42MOL   C24831490   5.509   7.859   4.984  0.2488 -0.0085 -0.7071
   42MOL   C24931491   5.589   7.779   5.065 -0.3768 -0.8527 -0.0954
   42MOL   H25031492   5.889   8.013   5.493  0.3346  0.0816  0.2013
   42MOL   H25131493   5.710   7.991   5.511  0.4180  3.9476  0.3376
   42MOL   H25231494   5.743   0.019   5.755 -1.2694 -1.0128 -1.2335
   42MOL   H25331495   5.786   0.147   5.648 -1.3687 -0.1281  1.2771
   42MOL   H25431496   6.040   0.071   5.660  2.4904 -2.4732  1.5960
   42MOL   H25531497   5.898   0.099   5.925  1.6351 -1.2475  0.9281
   42MOL   H25631498   5.931   0.241   5.821 -1.2679  1.0780  1.9498
   42MOL   H25731499   5.938   7.915   5.867 -2.1351 -1.0705 -1.7535
   42MOL   H25831500   6.099   7.938   5.814 -1.2189 -1.3590  2.2403
   42MOL   H25931501   6.056   7.819   5.596  1.3264 -0.4437  1.4334
   42MOL   H26031502   5.992   7.727   5.724  0.4621 -0.8577 -2.3144
   42MOL   H26131503   5.768   7.810   5.681 -1.8850 -1.4628 -1.2304
   42MOL   H26231504   5.833   7.629   5.524  0.3922 -1.1331  0.5184
   42MOL   H26331505   5.920   7.744   5.427  1.5824 -0.2422  2.1587
   42MOL   H26431506   5.550   7.944   5.357 -1.7016  0.5180 -0.1652
   42MOL   H26531507   5.404   0.052   5.223  0.8306 -0.3019  3.1835
   42MOL   H26631508   5.497   7.830   4.880  1.9734  0.9146 -1.1808
   42MOL   H26731509   5.629   7.690   5.019 -2.7732 -2.3692  0.6499
   42MOL   C26831510   5.160   7.838   4.539 -0.0517  0.4000  0.7374
   42MOL   C26931511   5.259   7.922   4.625  0.6882  0.5409  1.1134
   42MOL   C27031512   5.202   0.022   4.662  0.6948  0.0336 -0.0498
   42MOL   C27131513   5.303   0.107   4.743 -0.3521 -0.5063 -0.0873
   42MOL   C27231514   5.157   0.104   4.543  0.0997  0.1541  0.3276
   42MOL   C27331515   5.062   0.019   4.453  0.0686  0.2099  0.2977
   42MOL   C27431516   5.131   7.923   4.412 -0.1966 -0.0454  0.1545
   42MOL   C27531517   5.051   7.831   4.309 -0.4328  0.3992  1.0925
   42MOL   O27631518   5.158   7.754   4.237 -0.2930 -0.0323  0.5360
   42MOL   C27731519   5.203   7.795   4.122  0.7416 -0.7361  0.5085
   42MOL   O27831520   5.169   7.899   4.064 -0.2744  0.4225 -0.6849
   42MOL   C27931521   5.305   7.702   4.060 -0.4285 -0.0068  0.6252
   42MOL   C28031522   5.365   7.728   3.935 -1.3773  0.2251  0.9403
   42MOL   C28131523   5.465   7.641   3.879 -0.1079  0.2560 -0.1242
   42MOL   C28231524   5.498   7.521   3.945 -0.4073 -0.4030 -0.6864
   42MOL   C28331525   5.592   7.422   3.886  0.1164  0.1049 -0.2181
   42MOL   O28431526   5.635   7.432   3.769  0.1942  0.0850  0.1812
   42MOL   O28531527   5.620   7.314   3.962 -0.2705  0.5835 -0.1124
   42MOL   C28631528   5.444   7.494   4.073  0.0256 -0.2706  0.2070
   42MOL   C28731529   5.344   7.579   4.126 -0.4493  0.5568 -0.3368
   42MOL   H28831530   5.064   7.822   4.588  0.3417 -0.4991  1.2401
   42MOL   H28931531   5.189   7.740   4.500 -0.0503  1.2367 -1.4370
   42MOL   H29031532   5.357   7.932   4.578  0.1211 -2.0057 -0.6990
   42MOL   H29131533   5.276   7.863   4.716  1.8383  0.6396  0.9729
   42MOL   H29231534   5.123   8.029   4.732  1.0399 -0.6273  0.1037
   42MOL   H29331535   5.251   0.183   4.802  1.7457  0.0236  1.1292
   42MOL   H29431536   5.357   0.148   4.658 -2.4643 -1.2936 -1.8638
   42MOL   H29531537   5.233   0.145   4.476 -1.0421 -0.0296 -1.0934
   42MOL   H29631538   5.104   0.188   4.587  2.0214  2.5649 -1.8077
   42MOL   H29731539   4.968   0.003   4.506 -1.2831  1.2631 -1.7400
   42MOL   H29831540   5.038   0.080   4.366  1.4777 -1.9067 -1.6463
   42MOL   H29931541   5.230   7.942   4.369 -1.5737 -0.5547 -3.3682
   42MOL   H30031542   5.007   7.910   4.247 -1.2349 -0.1252  0.9904
   42MOL   H30131543   4.967   7.779   4.355 -0.6921 -0.8921 -0.8141
   42MOL   H30231544   5.329   7.818   3.886 -1.5697 -0.2110  0.2796
   42MOL   H30331545   5.500   7.666   3.780 -0.0326 -0.2851 -0.2335
   42MOL   H30431546   5.475   7.408   4.129 -0.5130 -0.8929 -0.4330
   42MOL   H30531547   5.313   7.547   4.224  0.1592  0.8616 -0.0387
   42MOL   C30631548   6.014   7.030   4.028 -0.4518 -0.0981  0.6223
   42MOL   C30731549   5.899   7.085   3.936  0.2950  1.0028  0.2854
   42MOL   C30831550   5.803   7.172   4.013  0.1196 -0.2878  0.4038
   42MOL   C30931551   5.703   7.217   3.909  0.5359  0.1083 -0.1324
   42MOL   C31031552   5.743   7.112   4.144 -0.0315  0.2496  0.1181
   42MOL   C31131553   5.850   7.050   4.236  0.2769  0.3358  0.5405
   42MOL   C31231554   5.966   6.963   4.161  0.3529 -0.1133  1.3761
   42MOL   C31331555   6.088   6.949   4.258 -0.1587 -0.0182  0.3956
   42MOL   O31431556   6.033   6.901   4.383 -0.0204  0.0085 -0.4796
   42MOL   C31531557   6.106   6.884   4.499  0.0799 -0.3779  0.5227
   42MOL   O31631558   6.222   6.936   4.511 -0.4490  0.1425 -0.1087
   42MOL   C31731559   6.038   6.805   4.601  0.3847  0.1814  0.0313
   42MOL   C31831560   6.099   6.711   4.689  0.0829  0.3439 -0.3992
   42MOL   C31931561   6.018   6.637   4.776 -0.0897 -0.1051 -0.3817
   42MOL   C32031562   5.877   6.666   4.786 -0.2907  0.3840 -0.5089
   42MOL   C32131563   5.802   6.581   4.882 -0.2639  0.7397 -0.4492
   42MOL   O32231564   5.856   6.523   4.971 -0.4552  1.2369 -0.4606
   42MOL   O32331565   5.669   6.575   4.859 -0.3233 -0.5123  0.4520
   42MOL   C32431566   5.819   6.762   4.706  0.4687 -0.3549 -0.0933
   42MOL   C32531567   5.898   6.833   4.615 -0.0203  0.5233  0.5221
   42MOL   H32631568   6.077   7.113   4.055 -0.1242  0.4829 -1.7727
   42MOL   H32731569   6.080   6.960   3.977 -1.9615 -0.7527 -0.4834
   42MOL   H32831570   5.838   7.006   3.892  0.5402  0.2250  1.3399
   42MOL   H32931571   5.948   7.148   3.861 -2.3268  1.4485 -1.0909
   42MOL   H33031572   5.869   7.252   4.046 -0.3657 -0.2067  1.1852
   42MOL   H33131573   5.648   7.136   3.862  0.4685  0.8297 -1.3281
   42MOL   H33231574   5.757   7.253   3.821  0.7931 -0.9153 -0.3972
   42MOL   H33331575   5.665   7.037   4.131  1.4459 -1.2167 -0.4539
   42MOL   H33431576   5.678   7.189   4.186  0.1884  0.3003  0.3667
   42MOL   H33531577   5.907   7.122   4.294  0.0457  0.4241  0.6606
   42MOL   H33631578   5.789   6.982   4.297  1.2797 -1.0433  0.0354
   42MOL   H33731579   5.920   6.865   4.149 -1.7056  0.5595  3.3452
   42MOL   H33831580   6.127   7.047   4.285 -0.9152 -0.1694  2.0786
   42MOL   H33931581   6.167   6.890   4.211 -0.0458 -0.3499  1.0033
   42MOL   H34031582   6.207   6.709   4.694  0.2382  1.4960 -2.7945
   42MOL   H34131583   6.060   6.570   4.849 -0.7985  1.4830  1.5385
   42MOL   H34231584   5.716   6.792   4.716  0.0949 -1.9032  0.8685
   42MOL   H34331585   5.855   6.905   4.548  0.9474  0.6028 -0.0304
   42MOL   C34431586   5.197   6.560   5.007  0.0644 -0.0135  0.6765
   42MOL   C34531587   5.339   6.492   5.025 -0.7489 -0.1001 -0.9176
   42MOL   C34631588   5.436   6.538   4.914  0.9832  0.6059 -0.1064
   42MOL   C34731589   5.582   6.511   4.949 -0.5344 -0.2694  0.1812
   42MOL   C34831590   5.384   6.492   4.773 -1.6177  1.0361  0.5654
   42MOL   C34931591   5.251   6.568   4.754  0.3879 -0.1908 -0.3672
   42MOL   C35031592   5.145   6.533   4.865  0.3154 -0.3539  0.0731
   42MOL   C35131593   5.008   6.596   4.843  0.4469  0.4867 -0.7567
   42MOL   O35231594   5.021   6.735   4.833  0.2978  0.0060 -0.4777
   42MOL   C35331595   4.912   6.813   4.808 -0.9042  0.2140  0.0439
   42MOL   O35431596   4.793   6.770   4.795  0.0377  0.2946 -0.0848
   42MOL   C35531597   4.951   6.957   4.801 -0.3201 -0.6053 -0.0125
   42MOL   C35631598   4.851   7.060   4.786  0.5866 -0.0223  0.0915
   42MOL   C35731599   4.880   7.195   4.762 -0.0198  0.2684  1.1280
   42MOL   C35831600   5.014   7.234   4.749  0.2178  0.4273 -0.2120
   42MOL   C35931601   5.040   7.379   4.720  0.3296  0.0866 -0.1871
   42MOL   O36031602   4.955   7.465   4.700  0.0482  0.3428  0.6689
   42MOL   O36131603   5.164   7.408   4.725  0.0201  0.4618 -0.1699
   42MOL   C36231604   5.115   7.141   4.774  0.1754 -0.2857 -0.0334
   42MOL   C36331605   5.081   7.005   4.797 -1.4777  0.7702 -0.4052
   42MOL   H36431606   5.211   6.667   5.020 -1.6420  0.3546 -0.4290
   42MOL   H36531607   5.122   6.530   5.080 -0.6297 -2.5905 -1.0553
   42MOL   H36631608   5.340   6.384   5.026  2.3088 -0.0956  0.5844
   42MOL   H36731609   5.368   6.525   5.125 -0.9041 -2.9944  0.1284
   42MOL   H36831610   5.425   6.646   4.910  1.7966  0.6971  0.0326
   42MOL   H36931611   5.592   6.402   4.944 -0.2958 -0.3336  1.8350
   42MOL   H37031612   5.604   6.543   5.051 -2.1670 -0.6609  0.6701
   42MOL   H37131613   5.370   6.384   4.771  3.0234  0.3343  1.1164
   42MOL   H37231614   5.455   6.518   4.695 -3.5205  3.3890 -0.4726
   42MOL   H37331615   5.279   6.674   4.759  0.8920 -0.3354 -0.0271
   42MOL   H37431616   5.212   6.559   4.653 -0.7697 -0.4355  0.1063
   42MOL   H37531617   5.135   6.425   4.849  3.3091 -0.6424 -0.2169
   42MOL   H37631618   4.949   6.561   4.928  3.0063 -0.4660  0.6879
   42MOL   H37731619   4.959   6.564   4.751 -2.1836  0.3867  0.6519
   42MOL   H37831620   4.748   7.029   4.798  0.3720  0.4894 -0.3850
   42MOL   H37931621   4.795   7.260   4.743 -0.7511 -1.2416 -0.9478
   42MOL   H38031622   5.219   7.168   4.786  0.3748 -1.8476  2.0036
   42MOL   H38131623   5.164   6.940   4.819  0.0902  2.5912 -0.7281
   42MOL   C38231624   5.144   7.714   5.119 -0.7706 -0.0287 -0.1611
   42MOL   C38331625   5.184   7.705   4.965 -0.1086  0.1161 -0.4211
   42MOL   C38431626   5.168   7.560   4.917  0.1585  0.1666  0.2337
   42MOL   C38531627   5.194   7.542   4.769  0.1189  0.5055 -0.2571
   42MOL   C38631628   5.259   7.468   4.996 -0.1172 -0.1767  0.8998
   42MOL   C38731629   5.233   7.472   5.150  0.0867  0.2441 -0.2681
   42MOL   C38831630   5.242   7.620   5.202 -0.2646  0.0835 -1.2101
   42MOL   C38931631   5.213   7.626   5.350 -0.4579  0.2389 -0.0534
   42MOL   O39031632   5.266   7.744   5.407  0.6840 -0.4198 -0.2170
   42MOL   C39131633   5.326   7.749   5.533  0.8236  0.4380  0.1216
   42MOL   O39231634   5.358   7.650   5.599 -0.1727  0.5027 -0.0626
   42MOL   C39331635   5.349   7.887   5.579  0.4696 -0.4556  0.6210
   42MOL   C39431636   5.423   7.913   5.697 -0.6029 -0.0248 -1.1082
   42MOL   C39531637   5.466   0.014   5.735  0.6326  0.0275  0.1223
   42MOL   C39631638   5.420   0.124   5.655  0.4094 -0.4571 -0.4970
   42MOL   C39731639   5.475   0.260   5.678 -0.1730 -0.2387 -0.6649
   42MOL   O39831640   5.456   0.360   5.606  0.1177 -0.0787  0.0664
   42MOL   O39931641   5.541   0.263   5.793  0.2458 -0.0609 -0.3190
   42MOL   C40031642   5.326   0.101   5.553 -0.0212 -0.6387 -0.0485
   42MOL   C40131643   5.289   8.002   5.517 -0.2682 -0.2664 -0.7823
   42MOL   H40231644   5.041   7.679   5.126 -1.3511  1.1817 -2.3924
   42MOL   H40331645   5.148   7.819   5.146  0.7408 -0.0054 -0.4276
   42MOL   H40431646   5.283   7.741   4.935  1.5491 -0.5354  3.9422
   42MOL   H40531647   5.120   7.775   4.911  1.6752  1.8686 -0.3177
   42MOL   H40631648   5.067   7.522   4.934  0.4407  0.1250  1.9192
   42MOL   H40731649   5.299   7.558   4.745  0.2486 -0.0738 -0.0903
   42MOL   H40831650   5.146   7.615   4.704 -0.4846  0.9367  0.6640
   42MOL   H40931651   5.363   7.497   4.981 -0.0007 -0.8909  0.2937
   42MOL   H41031652   5.236   7.366   4.966 -1.7310  0.2113  0.7688
   42MOL   H41131653   5.135   7.427   5.166  0.1260 -0.1947 -1.1945
   42MOL   H41231654   5.316   7.417   5.195 -0.4657 -1.9673 -1.8528
   42MOL   H41331655   5.344   7.650   5.181 -0.0063 -0.1373 -0.2947
   42MOL   H41431656   5.244   7.538   5.405 -1.3715 -0.5748 -0.8058
   42MOL   H41531657   5.105   7.636   5.366 -0.6656 -1.6164 -0.0899
   42MOL   H41631658   5.460   7.832   5.757  0.4432  1.6030  0.5148
   42MOL   H41731659   5.529   0.028   5.822 -1.2292  0.8154  1.3575
   42MOL   H41831660   5.295   0.190   5.499  0.0041 -0.6313 -0.0515
   42MOL   H41931661   5.232   7.997   5.425 -1.0245  3.1502 -0.5618
   42MOL   C42031662   5.625   0.309   6.228 -0.1784  0.1526 -0.1942
   42MOL   C42131663   5.552   0.342   6.096  0.5307  0.2389 -0.1706
   42MOL   C42231664   5.655   0.375   5.982  0.5009  0.7581 -0.0640
   42MOL   C42331665   5.591   0.387   5.845 -0.5721 -0.4164 -0.5536
   42MOL   C42431666   5.735   0.502   6.027 -0.3510 -0.3011 -0.1028
   42MOL   C42531667   5.817   0.472   6.162 -0.5605  0.0336 -0.2057
   42MOL   C42631668   5.721   0.417   6.273 -0.1920 -0.3304 -0.4228
   42MOL   C42731669   5.790   0.375   6.407 -1.0253  0.4362  0.6463
   42MOL   O42831670   5.893   0.282   6.394  0.4610  0.2435  0.5131
   42MOL   C42931671   5.994   0.280   6.483 -0.9622 -0.3386  0.5575
   42MOL   O43031672   5.998   0.343   6.585  0.3242  0.1015  0.1815
   42MOL   C43131673   6.097   0.187   6.441  0.4694 -0.7865 -0.0767
   42MOL   C43231674   6.190   0.148   6.543  0.2878  0.3273 -0.3294
   42MOL   C43331675   6.288   0.052   6.516 -0.3618  0.3273 -0.0640
   42MOL   C43431676   6.292   8.024   6.390 -0.1322  0.2207  0.1487
   42MOL   C43531677   6.396   7.921   6.364  0.0417  0.3924 -0.2183
   42MOL   O43631678   6.380   7.822   6.290  0.0593  0.3485 -0.9050
   42MOL   O43731679   6.509   7.950   6.423  0.2597  0.2111  0.3514
   42MOL   C43831680   6.204   0.030   6.288 -0.0709 -0.4552  0.4266
   42MOL   C43931681   6.109   0.131   6.317  0.1814 -0.1457  0.3782
   42MOL   H44031682   5.680   0.216   6.226 -1.9231 -0.9322  0.6805
   42MOL   H44131683   5.548   0.279   6.300 -1.5941  2.9612 -0.4331
   42MOL   H44231684   5.484   0.423   6.121 -0.9934 -1.4066  1.1103
   42MOL   H44331685   5.506   0.247   6.073  0.3179  0.7169 -1.7732
   42MOL   H44431686   5.730   0.297   5.968 -0.2444 -0.2198  1.3192
   42MOL   H44531687   5.663   0.417   5.769 -0.3943 -3.0108 -1.4729
   42MOL   H44631688   5.508   0.456   5.856 -0.3473 -0.3446  0.7282
   42MOL   H44731689   5.667   0.587   6.029  0.3283  0.2477 -0.1639
   42MOL   H44831690   5.806   0.523   5.947  0.9839 -1.5301  0.7252
   42MOL   H44931691   5.900   0.405   6.140 -1.7042 -1.7336  0.7216
   42MOL   H45031692   5.853   0.572   6.187 -1.7267  0.7717 -1.4070
   42MOL   H45131693   5.660   0.505   6.296  1.8548  0.7538  1.0966
   42MOL   H45231694   5.711   0.332   6.469 -2.1169  0.3039 -0.8272
   42MOL   H45331695   5.833   0.457   6.464  0.9463  0.5619 -0.9664
   42MOL   H45431696   6.187   0.191   6.642  1.2728 -2.2714  0.8757
   42MOL   H45531697   6.367   0.036   6.588 -0.9753  3.4648  1.3818
   42MOL   H45631698   6.208   8.016   6.190  1.9279  0.5800 -0.0189
   42MOL   H45731699   6.043   0.169   6.240 -1.3792 -1.1962  1.1753
   42MOL   C45831700   6.546   7.595   6.686  0.0854  0.1293 -0.1203
   42MOL   C45931701   6.529   7.730   6.604 -0.2049  0.4561  0.1173
   42MOL   C46031702   6.603   7.724   6.470  0.1333 -0.3389 -0.1127
   42MOL   C46131703   6.622   7.867   6.403 -0.0488 -0.2816  0.1039
   42MOL   C46231704   6.743   7.666   6.481  0.4201  0.7554 -0.4534
   42MOL   C46331705   6.741   7.529   6.556 -0.0147 -0.1267  0.6719
   42MOL   C46431706   6.694   7.556   6.692  0.9635 -0.0661 -0.3745
   42MOL   C46531707   6.717   7.433   6.787  0.1327  0.4299  0.0573
   42MOL   O46631708   6.655   7.311   6.740  0.2903  0.0223 -0.0090
   42MOL   C46731709   6.722   7.193   6.725 -0.5108  0.0893  0.7975
   42MOL   O46831710   6.831   7.164   6.778 -0.2245  0.1296  0.1521
   42MOL   C46931711   6.643   7.095   6.633  0.2336  0.2702 -0.4601
   42MOL   C47031712   6.667   6.957   6.630 -0.0495  0.1165 -0.1152
   42MOL   C47131713   6.604   6.873   6.535 -0.5459  0.7098  0.1329
   42MOL   C47231714   6.518   6.919   6.434  0.4079 -0.0207 -0.0927
   42MOL   C47331715   6.448   6.831   6.333  0.0659  0.5686 -0.1974
   42MOL   O47431716   6.492   6.716   6.306  0.3330  0.2773 -0.2730
   42MOL   O47531717   6.348   6.886   6.270  0.6172 -0.1271 -0.4567
   42MOL   C47631718   6.488   7.053   6.441  0.1472  0.2921  0.0802
   42MOL   C47731719   6.548   7.135   6.539 -0.0728  0.0171  0.5938
   42MOL   H47831720   6.480   7.526   6.632 -1.1274  1.5293 -0.4641
   42MOL   H47931721   6.508   7.601   6.788 -2.2645 -0.6196 -0.9118
   42MOL   H48031722   6.566   7.813   6.664  0.5959 -0.2727  0.6445
   42MOL   H48131723   6.426   7.757   6.580  0.0311  1.5701  0.3104
   42MOL   H48231724   6.548   7.666   6.397 -0.2516 -0.9434  0.6440
   42MOL   H48331725   6.633   7.862   6.294  2.6296  2.1804  0.1924
   42MOL   H48431726   6.711   7.921   6.434  0.5822  0.6537 -3.0961
   42MOL   H48531727   6.815   7.719   6.544 -0.3293 -0.0512  1.0888
   42MOL   H48631728   6.791   7.660   6.383 -0.5306 -0.9646 -0.8428
   42MOL   H48731729   6.675   7.453   6.514 -0.8092  1.5979 -1.3170
   42MOL   H48831730   6.843   7.491   6.554 -0.1320 -0.4203 -1.1327
   42MOL   H48931731   6.755   7.639   6.725 -0.4613 -0.3559  3.2078
   42MOL   H49031732   6.695   7.442   6.894  1.9615  0.3779  0.4538
   42MOL   H49131733   6.825   7.415   6.785 -0.1551 -1.2820 -1.1066
   42MOL   H49231734   6.745   6.914   6.691  1.9221 -0.3288 -2.9018
   42MOL   H49331735   6.642   6.772   6.529  0.0625  1.0921 -4.3380
   42MOL   H49431736   6.405   7.087   6.381 -1.5566 -0.6589  1.8469
   42MOL   H49531737   6.515   7.238   6.540 -0.6633 -0.1429 -0.6662
   42MOL   C49631738   6.048   7.094   6.010 -0.7237 -0.2729 -0.7363
   42MOL   C49731739   6.093   7.001   6.124 -0.2175 -0.0643  0.5277
   42MOL   C49831740   6.215   6.914   6.078 -0.6226 -1.3078 -0.2561
   42MOL   C49931741   6.276   6.810   6.173 -0.0295 -0.3632  0.1479
   42MOL   C50031742   6.188   6.841   5.941 -0.1994 -0.5617 -0.3403
   42MOL   C50131743   6.138   6.939   5.836  0.1633 -0.4791  0.5264
   42MOL   C50231744   6.011   7.013   5.881 -0.2473  0.4186  0.3503
   42MOL   C50331745   5.958   7.104   5.774  0.9919  0.3034  0.3863
   42MOL   O50431746   6.057   7.204   5.749  0.5299 -0.2898  0.1682
   42MOL   C50531747   6.046   7.272   5.635  0.7224 -0.2010  0.1271
   42MOL   O50631748   5.951   7.255   5.552  0.1849 -0.0828  0.1672
   42MOL   C50731749   6.157   7.367   5.613 -0.2688 -0.4196  0.4744
   42MOL   C50831750   6.134   7.477   5.529  0.9078  0.1113 -0.4596
   42MOL   C50931751   6.241   7.562   5.491 -0.1045  0.9525 -0.5038
   42MOL   C51031752   6.373   7.543   5.545  0.2641 -0.5231  0.2653
   42MOL   C51131753   6.486   7.634   5.505 -0.0923 -0.1901 -0.4897
   42MOL   O51231754   6.604   7.610   5.535  0.2365  0.2162  0.2485
   42MOL   O51331755   6.448   7.744   5.431  0.0244 -0.4570  1.2752
   42MOL   C51431756   6.396   7.430   5.629  0.0495  0.1916  0.4336
   42MOL   C51531757   6.287   7.349   5.664 -0.4430  0.3874 -0.3020
   42MOL   H51631758   6.131   7.159   5.982 -2.1500  1.7240 -0.4622
   42MOL   H51731759   5.964   7.151   6.051 -0.7589 -0.8467 -0.0052
   42MOL   H51831760   6.008   6.941   6.156 -0.0723 -0.7415 -0.3270
   42MOL   H51931761   6.124   7.058   6.212 -1.6481  0.4303  0.7189
   42MOL   H52031762   6.293   6.985   6.051 -1.1094 -0.9123 -0.6479
   42MOL   H52131763   6.346   6.739   6.128  0.0969 -0.7549  0.9506
   42MOL   H52231764   6.206   6.753   6.234  1.0211 -1.0593  0.7412
   42MOL   H52331765   6.114   6.762   5.955  0.1269 -0.8476 -0.2324
   42MOL   H52431766   6.277   6.798   5.896 -1.3799 -1.9707 -1.4055
   42MOL   H52531767   6.226   7.002   5.821 -0.7054  0.7600  0.5703
   42MOL   H52631768   6.140   6.895   5.736  0.7622  0.9405 -0.1089
   42MOL   H52731769   5.944   6.931   5.906  0.5192  0.2812  2.0240
   42MOL   H52831770   5.863   7.152   5.800  0.0156 -2.1827  1.6361
   42MOL   H52931771   5.946   7.052   5.679 -3.0597  1.8568 -0.0722
   42MOL   H53031772   6.036   7.471   5.483 -0.4769 -1.3390  2.5808
   42MOL   H53131773   6.229   7.641   5.418 -0.0493 -1.4941 -3.2444
   42MOL   H53231774   6.493   7.420   5.675 -0.1047 -2.2473  0.2892
   42MOL   H53331775   6.304   7.275   5.740 -0.7395  3.1749  2.5897
   42MOL   C53431776   6.275   0.104   5.454 -0.3027  0.7235  0.3665
   42MOL   C53531777   6.342   8.006   5.388  0.0983  0.3744  0.6966
   42MOL   C53631778   6.485   7.984   5.432 -0.2894  0.1804  0.1027
   42MOL   C53731779   6.544   7.847   5.397  0.2291  0.6523 -0.5887
   42MOL   C53831780   6.562   0.081   5.403 -0.1420  0.0572 -0.3527
   42MOL   C53931781   6.507   0.205   5.466  0.1196 -1.2807 -0.9270
   42MOL   C54031782   6.357   0.232   5.435  0.5541 -0.0395 -0.0944
   42MOL   C54131783   6.291   0.348   5.510 -0.1543  0.7112 -0.2105
   42MOL   O54231784   6.161   0.359   5.471  0.3352 -0.0451  0.2436
   42MOL   C54331785   6.081   0.434   5.551  0.1615  0.2988  0.1596
   42MOL   O54431786   6.120   0.499   5.651  0.2243 -0.8550  0.3330
   42MOL   C54531787   5.942   0.444   5.508  0.5086 -0.1459  0.3288
   42MOL   C54631788   5.900   0.375   5.387 -0.5192 -0.2770 -0.3707
   42MOL   C54731789   5.771   0.403   5.331 -0.4134 -0.3988 -0.1423
   42MOL   C54831790   5.678   0.488   5.398 -0.5408  0.2553 -0.1591
   42MOL   C54931791   5.540   0.508   5.351  0.5936 -0.0197  0.3507
   42MOL   O55031792   5.476   0.608   5.379  0.7664 -0.1631 -0.0802
   42MOL   O55131793   5.507   0.415   5.270 -0.2105 -0.1219 -0.0446
   42MOL   C55231794   5.721   0.551   5.520  0.3738 -0.0676 -1.0382
   42MOL   C55331795   5.853   0.527   5.577  0.2194 -0.2218  0.2965
   42MOL   H55431796   6.265   0.074   5.558  0.8679  0.8903  0.5358
   42MOL   H55531797   6.172   0.102   5.417  1.0791 -0.2577 -3.7465
   42MOL   H55631798   6.343   8.019   5.279 -1.4460  0.7589  0.7101
   42MOL   H55731799   6.273   7.923   5.404  2.3108 -1.6324  0.0540
   42MOL   H55831800   6.476   7.990   5.541  1.2343  1.1550  0.1745
   42MOL   H55931801   6.644   7.829   5.435 -0.2430 -1.9403 -0.5115
   42MOL   H56031802   6.546   7.849   5.288  0.2777 -1.6881 -0.6437
   42MOL   H56131803   6.561   0.101   5.296  0.9098  1.1526 -0.1639
   42MOL   H56231804   6.667   0.061   5.427 -0.9847 -1.5516  2.1405
   42MOL   H56331805   6.532   0.209   5.572 -1.9189 -0.3674 -0.4544
   42MOL   H56431806   6.563   0.291   5.430  0.1758 -1.4705 -1.2877
   42MOL   H56531807   6.354   0.261   5.330 -0.6478  0.7353  0.1426
   42MOL   H56631808   6.340   0.442   5.486  0.3178  0.7916  1.0444
   42MOL   H56731809   6.292   0.332   5.618  0.0239  2.3569  0.0470
   42MOL   H56831810   5.968   0.305   5.343 -0.6587 -1.4943  1.2899
   42MOL   H56931811   5.744   0.342   5.246  0.1044 -2.1101  0.8994
   42MOL   H57031812   5.647   0.616   5.563  1.1088  0.7692 -1.0385
   42MOL   H57131813   5.879   0.581   5.667 -1.1025  2.0142 -0.6103
   42MOL   C57231814   5.338   0.673   4.891 -0.4274 -0.1854  0.9290
   42MOL   C57331815   5.285   0.559   4.986 -0.3228  0.0825 -0.0023
   42MOL   C57431816   5.412   0.507   5.068  0.6360 -0.0650 -0.5676
   42MOL   C57531817   5.383   0.422   5.195  0.4559  0.9416 -0.3812
   42MOL   C57631818   5.508   0.430   4.967 -0.0664  0.2486 -0.7135
   42MOL   C57731819   5.553   0.537   4.867  0.0270 -0.6180 -0.7086
   42MOL   C57831820   5.450   0.630   4.794  0.5506 -0.0958 -0.0715
   42MOL   C57931821   5.514   0.746   4.724 -0.6348 -0.1356 -0.0152
   42MOL   O58031822   5.416   0.801   4.639 -0.1197  0.0533  0.3587
   42MOL   C58131823   5.416   0.763   4.513 -0.2094 -0.7489 -0.0680
   42MOL   O58231824   5.510   0.705   4.465  0.5811 -0.2754 -0.3647
   42MOL   C58331825   5.294   0.806   4.448  0.2081  0.1353 -0.3466
   42MOL   C58431826   5.212   0.906   4.505  0.0260  0.4694  0.7548
   42MOL   C58531827   5.082   0.934   4.456 -0.8567  0.5481 -0.3044
   42MOL   C58631828   5.036   0.874   4.348 -0.2048  0.6292 -0.0320
   42MOL   C58731829   4.900   0.910   4.295 -0.1713 -0.1701 -1.0961
   42MOL   O58831830   4.811   0.966   4.352 -0.1334 -0.6471  0.0676
   42MOL   O58931831   4.884   0.869   4.167  0.2038 -0.2416  0.8792
   42MOL   C59031832   5.121   0.780   4.281  0.6102  0.1146  0.1917
   42MOL   C59131833   5.249   0.746   4.335 -0.5759  0.1445  0.3330
   42MOL   H59231834   5.366   0.755   4.957 -1.0406  0.9399 -0.1930
   42MOL   H59331835   5.246   0.705   4.842  0.7762  0.8084 -0.7191
   42MOL   H59431836   5.247   0.476   4.925  1.0388  0.2048 -1.0264
   42MOL   H59531837   5.209   0.608   5.048  2.7528  1.3519  2.8934
   42MOL   H59631838   5.468   0.590   5.110 -2.4159  1.6097  0.3785
   42MOL   H59731839   5.356   0.319   5.170  2.1131 -0.3807  2.9883
   42MOL   H59831840   5.303   0.456   5.261 -0.5424 -0.4468 -0.8384
   42MOL   H59931841   5.457   0.352   4.909 -0.0403  1.1450 -1.9594
   42MOL   H60031842   5.595   0.385   5.015 -1.4913 -3.2542 -1.2771
   42MOL   H60131843   5.627   0.602   4.913  0.9563 -0.6283 -2.1508
   42MOL   H60231844   5.598   0.485   4.782 -0.5261 -0.4576 -1.1041
   42MOL   H60331845   5.397   0.571   4.719 -1.5251  3.6574 -1.6698
   42MOL   H60431846   5.598   0.713   4.663 -1.4424 -0.0949 -1.1785
   42MOL   H60531847   5.566   0.824   4.779 -0.4041  0.8246 -1.5536
   42MOL   H60631848   5.244   0.963   4.592  3.7413 -1.5477  0.8364
   42MOL   H60731849   5.017   1.007   4.501 -2.3040  0.5529 -2.3476
   42MOL   H60831850   5.091   0.733   4.188  2.3675  0.7331 -0.7161
   42MOL   H60931851   5.309   0.665   4.295 -0.0336  0.3558  0.7187
   42MOL   C61031852   4.637   0.686   3.779  0.8426  0.2097 -0.5177
   42MOL   C61131853   4.624   0.771   3.907 -0.4996 -0.3588 -0.7114
   42MOL   C61231854   4.754   0.778   3.988  0.4204 -0.4628  0.5543
   42MOL   C61331855   4.757   0.869   4.112 -1.1043 -0.6885  0.7466
   42MOL   C61431856   4.786   0.632   4.040 -0.1666  0.2605  0.5711
   42MOL   C61531857   4.797   0.538   3.918  0.3746  0.0138  1.2232
   42MOL   C61631858   4.671   0.543   3.814  0.2574 -0.6499 -0.1506
   42MOL   C61731859   4.689   0.440   3.696  0.3737 -0.4157 -0.2670
   42MOL   O61831860   4.562   0.444   3.635  0.6306  0.7252  0.1522
   42MOL   C61931861   4.545   0.433   3.503  0.0603  0.7576 -0.9516
   42MOL   O62031862   4.635   0.413   3.424 -0.3336 -0.2021  0.5093
   42MOL   C62131863   4.408   0.460   3.461  0.9796  0.2903 -0.3503
   42MOL   C62231864   4.378   0.484   3.326  0.1222 -0.2909  0.1659
   42MOL   C62331865   4.254   0.522   3.279 -0.6099  0.0863  0.4703
   42MOL   C62431866   4.148   0.542   3.375 -0.4176  0.5372 -0.2374
   42MOL   C62531867   4.024   0.613   3.335  0.2542  1.2184 -0.0066
   42MOL   O62631868   3.975   0.593   3.222  0.3403 -0.2933  0.1616
   42MOL   O62731869   3.972   0.700   3.421  0.6721  0.0310 -0.1485
   42MOL   C62831870   4.171   0.510   3.513  0.1523  1.1663 -0.4170
   42MOL   C62931871   4.296   0.460   3.551  0.0065  0.0696 -0.1326
   42MOL   H63031872   4.723   0.726   3.724  0.2235  1.2404 -0.7563
   42MOL   H63131873   4.550   0.704   3.716 -0.0765  0.3220  0.7823
   42MOL   H63231874   4.537   0.738   3.965 -0.4259  1.6892  0.6317
   42MOL   H63331875   4.602   0.871   3.870  2.3773  0.6351  0.0907
   42MOL   H63431876   4.838   0.803   3.924 -1.1616 -2.6706 -2.4808
   42MOL   H63531877   4.685   0.833   4.185 -2.0357 -0.8637 -0.2419
   42MOL   H63631878   4.732   0.971   4.084  0.6560 -0.7201 -1.0707
   42MOL   H63731879   4.704   0.599   4.104  0.3838 -0.2807  1.0131
   42MOL   H63831880   4.878   0.630   4.100  0.9497 -0.3297 -1.1262
   42MOL   H63931881   4.882   0.566   3.855 -1.8149 -0.2448 -1.9648
   42MOL   H64031882   4.833   0.439   3.947  0.9278 -0.1641 -0.0193
   42MOL   H64131883   4.583   0.512   3.871 -0.8086  2.0364 -0.2662
   42MOL   H64231884   4.711   0.341   3.734 -0.0353 -0.2370  0.4470
   42MOL   H64331885   4.773   0.460   3.628  0.2906 -1.2602 -0.6246
   42MOL   H64431886   4.468   0.473   3.266  0.0639  1.4525 -0.2727
   42MOL   H64531887   4.222   0.541   3.178 -0.4837  0.0772  0.4290
   42MOL   H64631888   4.095   0.525   3.589 -0.7777  1.0975 -1.3289
   42MOL   H64731889   4.310   0.436   3.656  1.2291  3.0490  0.4539
   42MOL   C64831890   3.868   1.058   3.666  0.0718  1.0281  0.4153
   42MOL   C64931891   3.866   0.917   3.604 -0.5626  0.3265  0.8727
   42MOL   C65031892   3.856   0.917   3.451 -0.3053 -0.7007 -0.3945
   42MOL   C65131893   3.860   0.781   3.374  0.5365 -0.5295 -0.2734
   42MOL   C65231894   3.714   0.984   3.422  0.1755  0.0549  0.0235
   42MOL   C65331895   3.713   1.134   3.481  0.0208 -0.1653 -0.2839
   42MOL   C65431896   3.743   1.140   3.631 -0.2444  0.2254 -0.2669
   42MOL   C65531897   3.778   1.287   3.674  0.6367 -0.2217  0.0559
   42MOL   O65631898   3.653   1.347   3.711 -0.7211  0.4330 -0.1936
   42MOL   C65731899   3.570   1.414   3.634 -0.2140  1.1408  0.0255
   42MOL   O65831900   3.586   1.438   3.517 -0.6226 -0.3284 -0.0037
   42MOL   C65931901   3.461   1.476   3.717  0.2526  0.0837  1.0009
   42MOL   C66031902   3.447   1.435   3.849 -0.6764  0.4244  0.0142
   42MOL   C66131903   3.361   1.503   3.937  0.0681  0.5388  0.7641
   42MOL   C66231904   3.280   1.613   3.889 -1.2413  0.3885  0.0755
   42MOL   C66331905   3.180   1.669   3.978 -0.0250 -0.3322 -0.5515
   42MOL   O66431906   3.160   1.642   4.098 -0.3027  0.3138  0.0754
   42MOL   O66531907   3.097   1.767   3.914 -0.3472 -0.1628  0.0731
   42MOL   C66631908   3.299   1.654   3.755 -0.2004  0.0153 -0.6102
   42MOL   C66731909   3.390   1.591   3.671  0.0477 -0.2858  0.3711
   42MOL   H66831910   3.960   1.102   3.627 -0.6262  0.8521 -1.4616
   42MOL   H66931911   3.880   1.044   3.774 -1.3610 -1.5839  0.2845
   42MOL   H67031912   3.772   0.875   3.641 -0.5328  1.9394  2.8280
   42MOL   H67131913   3.959   0.867   3.630 -0.0937 -0.2883 -1.8352
   42MOL   H67231914   3.934   0.983   3.413 -1.0575  0.6798  0.4162
   42MOL   H67331915   3.867   0.805   3.268 -0.7083  0.0990 -0.2248
   42MOL   H67431916   3.773   0.719   3.391 -0.4481  0.9869  0.3553
   42MOL   H67531917   3.631   0.928   3.463  0.0120 -0.0706 -0.4802
   42MOL   H67631918   3.694   0.990   3.315  1.1197  1.0697 -0.1089
   42MOL   H67731919   3.791   1.186   3.426  0.4479  0.9161  1.3114
   42MOL   H67831920   3.618   1.183   3.459 -0.8236 -0.9466  1.4955
   42MOL   H67931921   3.662   1.106   3.696 -1.2823  0.4375 -1.4233
   42MOL   H68031922   3.829   1.345   3.596  1.8537 -0.0453  0.9648
   42MOL   H68131923   3.828   1.275   3.770  2.5162  0.3668 -0.8253
   42MOL   H68231924   3.494   1.344   3.882 -1.1052 -0.3834 -1.5783
   42MOL   H68331925   3.338   1.464   4.035 -1.0861 -1.0599 -0.1149
   42MOL   H68431926   3.243   1.743   3.729  0.6912  0.4981 -0.8996
   42MOL   H68531927   3.407   1.629   3.571 -0.4831  2.4869  1.2830
   42MOL   C68631928   2.787   2.109   3.835 -0.1436 -0.9482  0.2190
   42MOL   C68731929   2.843   2.023   3.949 -0.4881  0.2339  0.1676
   42MOL   C68831930   2.936   1.926   3.881 -0.3786  0.4860 -0.5014
   42MOL   C68931931   2.998   1.827   3.982  0.2353  0.2362 -0.0491
   42MOL   C69031932   2.873   1.846   3.765 -0.3128 -0.5589  0.0350
   42MOL   C69131933   2.796   1.929   3.659  0.9131 -0.8587 -0.1377
   42MOL   C69231934   2.704   2.026   3.737  0.5987  0.0467  0.2765
   42MOL   C69331935   2.626   2.110   3.640  0.5461 -0.1747  0.3389
   42MOL   O69431936   2.533   2.186   3.707  0.5635  0.4964  0.1220
   42MOL   C69531937   2.433   2.237   3.626  0.6527  0.5875 -0.4524
   42MOL   O69631938   2.432   2.232   3.502  0.4597  0.9090 -0.0824
   42MOL   C69731939   2.338   2.313   3.706 -0.0430  0.0385 -0.0642
   42MOL   C69831940   2.253   2.405   3.641  0.7483  0.3613  0.1734
   42MOL   C69931941   2.166   2.487   3.716  0.1705  0.2938 -0.1314
   42MOL   C70031942   2.177   2.488   3.857 -0.0245  0.7081  0.0945
   42MOL   C70131943   2.107   2.586   3.938 -0.4989  0.6206  0.2107
   42MOL   O70231944   2.016   2.651   3.894 -0.4795  0.3173 -0.1030
   42MOL   O70331945   2.158   2.592   4.062 -0.3318 -0.3344  0.2603
   42MOL   C70431946   2.253   2.382   3.921  0.2084 -0.2617  0.3482
   42MOL   C70531947   2.332   2.297   3.846  0.2557 -1.3479 -1.0266
   42MOL   H70631948   2.865   2.165   3.785 -1.9479 -0.1568 -1.7840
   42MOL   H70731949   2.730   2.189   3.883  0.5711 -1.0004  1.1614
   42MOL   H70831950   2.764   1.975   4.007 -1.5560 -1.0199 -2.2748
   42MOL   H70931951   2.899   2.089   4.015  0.3448 -2.1679  1.9239
   42MOL   H71031952   3.011   1.991   3.836  2.5899 -0.9925  2.1202
   42MOL   H71131953   2.922   1.752   4.004  0.3572 -0.4059 -1.7220
   42MOL   H71231954   3.032   1.889   4.065 -1.6262  0.1169  0.8457
   42MOL   H71331955   2.796   1.778   3.802  1.4412 -1.9073  1.3068
   42MOL   H71431956   2.951   1.790   3.714 -0.6256 -0.7188 -0.2658
   42MOL   H71531957   2.871   1.983   3.601 -0.0245 -0.7717 -1.2733
   42MOL   H71631958   2.755   1.860   3.586  0.3881  1.1127 -1.7514
   42MOL   H71731959   2.631   1.967   3.791  0.1624  0.9757  0.7210
   42MOL   H71831960   2.588   2.049   3.559  1.5286  0.1609 -0.3896
   42MOL   H71931961   2.689   2.185   3.592 -2.6169  2.1056 -0.3989
   42MOL   H72031962   2.259   2.426   3.536 -1.2473  0.8916  0.1339
   42MOL   H72131963   2.119   2.565   3.658 -1.4319  0.1301  0.9226
   42MOL   H72231964   2.262   2.381   4.029 -0.9866  2.2747  0.5165
   42MOL   H72331965   2.396   2.222   3.891  0.5977 -0.1896  0.4622
   42MOL   C72431966   2.176   2.764   4.522  0.3027  0.2036  0.0674
   42MOL   C72531967   2.080   2.713   4.405  0.6097 -0.2393  0.1060
   42MOL   C72631968   2.160   2.676   4.279 -0.1075 -0.3187 -0.2468
   42MOL   C72731969   2.074   2.660   4.154 -0.5578 -0.1183 -0.5145
   42MOL   C72831970   2.267   2.783   4.245 -0.2035 -0.7710 -0.6207
   42MOL   C72931971   2.345   2.830   4.361 -0.4873  0.5304  0.4938
   42MOL   C73031972   2.270   2.878   4.483 -0.0214  0.4067 -0.1130
   42MOL   C73131973   2.367   2.923   4.605 -0.0281  0.8419 -0.4440
   42MOL   O73231974   2.442   3.043   4.571  0.3502  0.0053 -0.5775
   42MOL   C73331975   2.496   3.113   4.674 -0.0536  0.8212  0.5256
   42MOL   O73431976   2.506   3.073   4.789  0.7986  0.2390 -0.3525
   42MOL   C73531977   2.558   3.244   4.626  0.0239  1.7304  0.4861
   42MOL   C73631978   2.625   3.328   4.713 -0.1169  0.0754  0.3028
   42MOL   C73731979   2.686   3.442   4.666  0.4229 -0.3984 -0.3544
   42MOL   C73831980   2.671   3.484   4.532  0.7113  0.2397 -0.3853
   42MOL   C73931981   2.738   3.609   4.493  0.8916 -0.1010 -0.0526
   42MOL   O74031982   2.797   3.684   4.571 -0.3197 -0.0259 -0.1648
   42MOL   O74131983   2.709   3.655   4.367  0.1832 -0.6272 -0.2011
   42MOL   C74231984   2.595   3.399   4.443  0.0425 -0.5252  0.1080
   42MOL   C74331985   2.541   3.277   4.491 -0.3827 -0.2894  0.8236
   42MOL   H74431986   2.224   2.680   4.572  0.2286  0.9591  1.4341
   42MOL   H74531987   2.120   2.793   4.611  1.3962  0.5685  0.6535
   42MOL   H74631988   2.009   2.796   4.393  0.6573  0.0156  1.4898
   42MOL   H74731989   2.024   2.628   4.445  2.2602 -1.3050  0.1944
   42MOL   H74831990   2.209   2.584   4.309 -0.1254 -0.0643  0.5606
   42MOL   H74931991   2.044   2.758   4.116 -1.0450  0.7323  1.9963
   42MOL   H75031992   1.982   2.602   4.168 -1.3451  1.3131  0.3481
   42MOL   H75131993   2.223   2.868   4.192 -0.4670  0.9183  2.1883
   42MOL   H75231994   2.342   2.742   4.178  0.5063 -1.1869  0.4162
   42MOL   H75331995   2.419   2.756   4.391 -0.9159  0.0422  0.3521
   42MOL   H75431996   2.402   2.916   4.325  0.6877 -0.8789 -1.0766
   42MOL   H75531997   2.213   2.968   4.459  0.9859  2.0889  3.4014
   42MOL   H75631998   2.429   2.846   4.652 -0.7846  0.5797  0.1494
   42MOL   H75731999   2.296   2.953   4.682 -1.5557 -1.5831 -0.8614
   42MOL   H75832000   2.637   3.307   4.818  1.7830 -1.6441 -0.2442
   42MOL   H75932001   2.750   3.505   4.727  0.0449  0.3128 -0.6905
   42MOL   H76032002   2.573   3.431   4.342  1.1837  0.9028  0.3032
   42MOL   H76132003   2.480   3.225   4.419  0.7556 -0.7054  0.1473
   42MOL   H76232004   2.739   3.743   4.352  0.1703 -0.7122 -0.7284
   43MOL     C132005   5.527   3.443   1.033 -0.7829  0.3752  0.0798
   43MOL     C232006   5.446   3.421   0.900  0.2944  0.0988 -0.1483
   43MOL     C332007   5.304   3.362   0.940  0.6467  0.6363 -0.3158
   43MOL     C432008   5.212   3.350   0.822 -0.0109 -0.3893  0.3082
   43MOL     C532009   5.323   3.232   1.015  0.0429  0.0734 -0.0406
   43MOL     C632010   5.394   3.254   1.143 -0.1286 -0.1089  0.3288
   43MOL     C732011   5.539   3.312   1.115  0.1130  0.0345 -0.4315
   43MOL     C832012   5.619   3.328   1.238 -0.1209  0.1928 -0.7303
   43MOL     O932013   5.647   3.205   1.301  0.1840  0.6571  0.6261
   43MOL    C1032014   5.758   3.189   1.379  0.3389 -0.1563  0.6821
   43MOL    O1132015   5.838   3.280   1.404 -0.1788 -0.1917  0.5231
   43MOL    C1232016   5.764   3.048   1.423 -0.4896 -0.1164  0.4718
   43MOL    C1332017   5.875   3.002   1.499 -0.0911 -0.2024 -0.0600
   43MOL    C1432018   5.894   2.865   1.522  0.3815  0.5696  0.1836
   43MOL    C1532019   5.788   2.775   1.493  0.0941 -0.3972 -0.4623
   43MOL    C1632020   5.787   2.624   1.527  0.2487 -0.6231  0.6896
   43MOL    O1732021   5.859   2.578   1.616  0.6271 -0.5577 -0.0662
   43MOL    O1832022   5.704   2.557   1.437 -0.2168 -0.6105  0.2098
   43MOL    C1932023   5.681   2.821   1.414  0.4369 -0.2360  0.2639
   43MOL    C2032024   5.661   2.958   1.382 -0.3772 -0.5074  0.1239
   43MOL    H2132025   5.491   3.524   1.097  1.3725  2.7450 -1.6101
   43MOL    H2232026   5.624   3.476   0.996 -0.1716 -0.1673  1.1598
   43MOL    H2332027   5.495   3.343   0.842  0.2417 -0.0305 -0.0194
   43MOL    H2432028   5.436   3.516   0.848  0.6969 -0.3634 -1.0715
   43MOL    H2532029   5.255   3.427   1.012 -1.0507 -1.3162  0.3403
   43MOL    H2632030   5.205   3.447   0.773 -2.9270 -0.4399  0.4996
   43MOL    H2732031   5.111   3.320   0.852 -0.1916  0.5209  0.6332
   43MOL    H2832032   5.366   3.152   0.954 -0.2620 -3.3790  4.0613
   43MOL    H2932033   5.220   3.200   1.030 -0.4986  2.0698  0.6520
   43MOL    H3032034   5.331   3.321   1.202 -0.1839  1.3296 -1.3351
   43MOL    H3132035   5.403   3.159   1.194 -0.1982 -1.1164 -1.5078
   43MOL    H3232036   5.591   3.238   1.055  2.3471  0.7233  0.5797
   43MOL    H3332037   5.567   3.390   1.310  1.9095 -0.3470  1.2879
   43MOL    H3432038   5.715   3.376   1.218  0.3136 -0.7349 -0.9506
   43MOL    H3532039   5.945   3.077   1.534 -1.3277  0.2001  1.6215
   43MOL    H3632040   5.964   2.823   1.592 -2.5297 -4.6192  0.2342
   43MOL    H3732041   5.601   2.752   1.392  1.5648 -0.9476 -1.7101
   43MOL    H3832042   5.568   2.978   1.331  0.9723  1.7783 -1.5803
   43MOL    H3932043   5.248   3.276   0.750 -2.8493 -1.9725  0.4387
   43MOL    C4032044   5.986   2.306   1.195  0.2357  0.6090 -0.1351
   43MOL    C4132045   5.869   2.392   1.245 -0.0999 -0.1767  0.1110
   43MOL    C4232046   5.825   2.336   1.382  0.3895 -0.3079  1.2189
   43MOL    C4332047   5.705   2.414   1.444  0.1349  0.1872  0.5339
   43MOL    C4432048   5.779   2.187   1.367  0.5917 -0.3736 -0.1739
   43MOL    C4532049   5.886   2.099   1.296 -0.4261  0.6492 -0.8187
   43MOL    C4632050   5.944   2.154   1.171  0.9230 -0.5644 -0.0709
   43MOL    C4732051   6.056   2.065   1.104  0.0526 -0.2027 -0.1526
   43MOL    O4832052   6.029   1.930   1.089  0.0162 -0.1344  0.5178
   43MOL    C4932053   6.003   1.871   0.974  0.2445 -0.0428 -0.0965
   43MOL    O5032054   5.986   1.932   0.869 -0.1634 -0.2854  0.2932
   43MOL    C5132055   5.983   1.722   0.996 -0.4847  0.1954 -0.4326
   43MOL    C5232056   5.967   1.665   1.122 -0.3727 -0.7711  0.1514
   43MOL    C5332057   5.963   1.525   1.130 -0.1322 -0.2047  0.3312
   43MOL    C5432058   5.952   1.442   1.014 -0.2364  0.4306 -0.1646
   43MOL    C5532059   5.941   1.300   1.040  0.0426 -0.2607  0.0534
   43MOL    O5632060   5.928   1.245   1.149  0.4127  0.2635 -0.0646
   43MOL    O5732061   5.947   1.233   0.924 -0.5366  0.0439 -0.0425
   43MOL    C5832062   5.958   1.503   0.887 -0.2277 -0.2482  0.6488
   43MOL    C5932063   5.976   1.643   0.880 -0.7594  0.1162  0.6785
   43MOL    H6032064   6.069   2.306   1.265 -0.8486  2.9590  1.2256
   43MOL    H6132065   6.023   2.345   1.100 -1.2926  1.4721 -0.3825
   43MOL    H6232066   5.783   2.395   1.178  0.5870 -0.4542 -0.7965
   43MOL    H6332067   5.913   2.491   1.260  3.1381 -1.4427 -0.5668
   43MOL    H6432068   5.910   2.344   1.450  1.0535  0.5183  0.3108
   43MOL    H6532069   5.681   2.387   1.547 -0.3029 -1.3976  0.0195
   43MOL    H6632070   5.611   2.395   1.392  0.6869  0.2419 -0.4972
   43MOL    H6732071   5.693   2.183   1.300 -0.0861  0.0502  0.6571
   43MOL    H6832072   5.749   2.143   1.462 -0.0820  0.9988  0.2605
   43MOL    H6932073   5.967   2.073   1.365  0.4764  0.4671 -1.9280
   43MOL    H7032074   5.837   2.007   1.264  1.9828  0.0508 -2.9646
   43MOL    H7132075   5.861   2.159   1.100  1.4350 -1.1797 -0.7249
   43MOL    H7232076   6.141   2.072   1.173  0.1463 -5.0234  0.4014
   43MOL    H7332077   6.076   2.109   1.006  0.1078 -0.1274 -0.1075
   43MOL    H7432078   5.979   1.728   1.209 -2.0565 -1.7239  1.0918
   43MOL    H7532079   5.963   1.486   1.231  3.6163  2.3193  1.3958
   43MOL    H7632080   5.968   1.442   0.798 -1.7419  0.5926 -0.1157
   43MOL    H7732081   5.980   1.698   0.787  0.2296  0.3374  0.8457
   43MOL    C7832082   5.699   0.875   0.865  0.7278  0.0145 -0.0242
   43MOL    C7932083   5.803   0.961   0.938  0.3308  0.4869  0.4056
   43MOL    C8032084   5.916   1.019   0.838 -0.4992 -0.0412 -0.2588
   43MOL    C8132085   6.007   1.107   0.912 -0.5118 -0.4753 -0.2328
   43MOL    C8232086   5.986   0.901   0.770 -0.0237 -0.2959  0.2276
   43MOL    C8332087   5.886   0.818   0.695  0.3521  0.1559  0.0353
   43MOL    C8432088   5.772   0.762   0.789  0.1060 -0.0921 -2.0125
   43MOL    C8532089   5.675   0.675   0.712  0.1936 -0.7034  0.4611
   43MOL    O8632090   5.742   0.555   0.675 -0.5320  0.2702 -0.3545
   43MOL    C8732091   5.755   0.527   0.544  0.6197 -0.2299 -0.2009
   43MOL    O8832092   5.720   0.605   0.454 -0.0314  0.2258  0.1170
   43MOL    C8932093   5.819   0.397   0.521 -0.1143 -0.4076  0.4504
   43MOL    C9032094   5.833   0.353   0.387  0.0002  0.4024 -0.3418
   43MOL    C9132095   5.923   0.242   0.355  0.0836 -0.4019 -0.8007
   43MOL    C9232096   6.001   0.181   0.450  0.5019 -0.4335  0.0869
   43MOL    C9332097   6.105   0.082   0.412  0.0650 -0.4475 -0.3429
   43MOL    O9432098   6.135   0.065   0.292 -0.4081  0.2180  0.1225
   43MOL    O9532099   6.174   0.025   0.513 -0.0292  0.5703 -0.0280
   43MOL    C9632100   5.983   0.221   0.582  0.4000 -0.5473 -0.2058
   43MOL    C9732101   5.894   0.326   0.617 -0.5340  0.4205 -0.2638
   43MOL    H9832102   5.623   0.920   0.801  0.6690  0.7557  0.5610
   43MOL    H9932103   5.633   0.826   0.936 -0.5333  1.0690 -0.4396
   43MOL   H10032104   5.847   0.901   1.018 -1.8332 -1.4273  0.2354
   43MOL   H10132105   5.753   1.048   0.980  2.3671  1.9266 -0.1167
   43MOL   H10232106   5.869   1.083   0.764  0.9800  0.6854 -0.5675
   43MOL   H10332107   6.105   1.115   0.865 -0.5473 -2.4055 -0.6390
   43MOL   H10432108   6.019   1.059   1.008 -0.8311 -0.2988 -0.1029
   43MOL   H10532109   6.030   0.840   0.849  1.7679 -1.7207 -1.8416
   43MOL   H10632110   6.072   0.936   0.714 -1.3528  2.4542 -0.1705
   43MOL   H10732111   5.844   0.871   0.610 -0.3554  0.3679  0.5129
   43MOL   H10832112   5.945   0.737   0.650 -1.3191 -1.2579  0.3369
   43MOL   H10932113   5.813   0.695   0.864  0.2119  1.8717 -0.2719
   43MOL   H11032114   5.649   0.735   0.624  0.3830  1.4976  1.8832
   43MOL   H11132115   5.589   0.646   0.771  0.7086 -1.2892  0.9288
   43MOL   H11232116   5.775   0.391   0.305 -0.9388  2.4095  1.2003
   43MOL   H11332117   5.936   0.217   0.250  1.0334  1.4027 -1.1336
   43MOL   H11432118   6.036   0.174   0.663 -1.3159  0.0468  1.2910
   43MOL   H11532119   5.884   0.359   0.720  0.1234 -3.7917  1.2450
   43MOL   C11632120   6.503   7.988   0.799  0.1093  0.1421  0.2581
   43MOL   C11732121   6.421   0.007   0.681  0.8048 -0.0261 -0.4568
   43MOL   C11832122   6.341   7.929   0.622  0.1238 -0.1223  0.0364
   43MOL   C11932123   6.283   7.978   0.489 -0.0933 -0.0916 -0.0273
   43MOL   C12032124   6.431   7.806   0.593  0.2179 -0.2358  0.5887
   43MOL   C12132125   6.505   7.755   0.720 -0.2676  0.3529  0.1795
   43MOL   C12232126   6.593   7.868   0.769  0.2372 -0.4439  0.3610
   43MOL   C12332127   6.693   7.826   0.878 -0.0787  0.7266 -0.4001
   43MOL   O12432128   6.627   7.762   0.983 -0.5586  0.7017 -0.0288
   43MOL   C12532129   6.701   7.707   1.075 -0.0291  0.4595 -0.4606
   43MOL   O12632130   6.819   7.738   1.094 -0.2570 -0.1185  0.4338
   43MOL   C12732131   6.639   7.618   1.176  0.0103 -0.2389  0.0259
   43MOL   C12832132   6.708   7.569   1.286  0.0617  0.3564 -0.0847
   43MOL   C12932133   6.654   7.462   1.363 -0.0527  0.9330 -0.1418
   43MOL   C13032134   6.522   7.426   1.349  0.3508 -0.3054  0.6238
   43MOL   C13132135   6.458   7.330   1.437  0.8179  0.2700  0.3795
   43MOL   O13232136   6.338   7.297   1.434  0.6457 -0.3209  0.5750
   43MOL   O13332137   6.544   7.291   1.535 -0.1933  0.8406 -0.3259
   43MOL   C13432138   6.440   7.486   1.246 -0.6834 -0.2641 -0.8161
   43MOL   C13532139   6.504   7.577   1.156  0.3015  0.4086  0.0525
   43MOL   H13632140   6.436   7.955   0.878  0.1088 -1.0785 -0.2421
   43MOL   H13732141   6.560   0.042   0.835  1.0270 -0.4465  0.2325
   43MOL   H13832142   6.488   0.051   0.608 -1.1769  2.4345 -0.8924
   43MOL   H13932143   6.360   0.095   0.705  0.0122 -0.5996 -0.3350
   43MOL   H14032144   6.260   7.891   0.683 -1.3994  0.0091 -1.8340
   43MOL   H14132145   6.245   7.894   0.430 -3.7503 -0.3637  2.5232
   43MOL   H14232146   6.359   8.022   0.424 -0.7185 -0.0675 -0.7580
   43MOL   H14332147   6.501   7.831   0.514 -2.6625 -0.3578 -2.0865
   43MOL   H14432148   6.365   7.739   0.537  0.9244  0.8072 -1.5379
   43MOL   H14532149   6.436   7.735   0.802  0.2947 -1.1844  0.3103
   43MOL   H14632150   6.561   7.666   0.692  1.2237  1.7557 -1.4003
   43MOL   H14732151   6.652   7.905   0.685  2.1934 -0.9235  1.4924
   43MOL   H14832152   6.740   7.915   0.920 -0.2533  0.6674 -0.0801
   43MOL   H14932153   6.765   7.756   0.836 -1.0907  0.2053 -1.3077
   43MOL   H15032154   6.806   7.615   1.295  0.8878 -1.4296  0.3145
   43MOL   H15132155   6.723   7.417   1.433  1.5065 -0.4442 -2.4844
   43MOL   H15232156   6.338   7.452   1.233 -1.4017  2.2846 -2.1393
   43MOL   H15332157   6.440   7.607   1.074 -0.7134  0.8910  1.0126
   43MOL   C15432158   6.548   7.553   1.884  0.8343  0.5122 -0.6103
   43MOL   C15532159   6.591   7.422   1.811  0.4276 -0.3172  0.1280
   43MOL   C15632160   6.467   7.347   1.756  0.1068  0.3052 -1.0918
   43MOL   C15732161   6.504   7.234   1.658  0.3312  0.1224  0.5382
   43MOL   C15832162   6.384   7.308   1.880  0.2831 -0.3546 -0.7051
   43MOL   C15932163   6.335   7.439   1.953  0.0359  0.4936 -0.0652
   43MOL   C16032164   6.451   7.528   2.001  0.2623 -0.0393  0.2456
   43MOL   C16132165   6.409   7.651   2.085  0.4362 -0.2034  0.2943
   43MOL   O16232166   6.300   7.713   2.026  0.4512  0.0055 -0.5458
   43MOL   C16332167   6.170   7.701   2.071 -0.5358  0.2433  0.1085
   43MOL   O16432168   6.137   7.653   2.180  0.0104 -0.1445  0.8976
   43MOL   C16532169   6.068   7.749   1.977  0.5338 -0.6155 -0.2704
   43MOL   C16632170   5.933   7.777   2.017  0.7162 -0.0275 -0.1826
   43MOL   C16732171   5.842   7.821   1.923  0.0906  0.4017  0.6426
   43MOL   C16832172   5.873   7.848   1.786 -0.8054 -0.3450 -0.1543
   43MOL   C16932173   5.769   7.880   1.686  0.5671  0.4218  0.2083
   43MOL   O17032174   5.653   7.857   1.706 -0.2171 -1.3162  0.4640
   43MOL   O17132175   5.815   7.948   1.574 -0.6367  0.5441 -0.2145
   43MOL   C17232176   6.007   7.833   1.752 -0.0091 -0.1537  0.2867
   43MOL   C17332177   6.103   7.778   1.843 -0.0884 -0.9233  0.6486
   43MOL   H17432178   6.513   7.619   1.805  0.8374 -0.2673 -1.2686
   43MOL   H17532179   6.637   7.600   1.924  0.8409 -0.6517  0.8441
   43MOL   H17632180   6.642   7.355   1.881 -0.2319 -0.3760  0.5574
   43MOL   H17732181   6.658   7.451   1.731  1.5968 -1.1897  0.7758
   43MOL   H17832182   6.404   7.416   1.700 -1.2293 -0.5680 -0.7040
   43MOL   H17932183   6.420   7.165   1.651  0.3136  0.1194  0.7726
   43MOL   H18032184   6.596   7.187   1.694 -0.2411 -0.2879  1.4545
   43MOL   H18132185   6.437   7.246   1.952  0.7179  0.5704 -0.2203
   43MOL   H18232186   6.294   7.258   1.843  1.2134 -2.0337 -0.7570
   43MOL   H18332187   6.279   7.499   1.881  1.0220  0.3476 -0.9750
   43MOL   H18432188   6.265   7.413   2.032 -1.4747  3.2651 -0.4334
   43MOL   H18532189   6.511   7.473   2.074 -0.0390 -1.8197 -0.8070
   43MOL   H18632190   6.490   7.722   2.098  0.9841 -0.9347  0.9395
   43MOL   H18732191   6.390   7.622   2.189 -0.2736 -0.9694 -0.0424
   43MOL   H18832192   5.905   7.755   2.118  0.0543  1.7691  0.0480
   43MOL   H18932193   5.743   7.856   1.949 -1.0646 -1.4491 -1.1180
   43MOL   H19032194   6.052   7.850   1.655  1.2306 -0.9104  0.7167
   43MOL   H19132195   6.203   7.763   1.805 -0.1606  1.5173 -0.6114
   43MOL   C19232196   5.806   0.279   1.351  0.0934 -0.6359  0.5248
   43MOL   C19332197   5.790   0.164   1.442 -0.3474 -0.7406  0.6851
   43MOL   C19432198   5.772   0.043   1.357  0.3609  0.7122 -0.4950
   43MOL   C19532199   5.733   7.960   1.454 -0.2299  0.3544  0.4464
   43MOL   C19632200   5.658   0.066   1.253  0.1762  0.2410  0.0485
   43MOL   C19732201   5.680   0.185   1.166  0.7177  0.0734 -0.2405
   43MOL   C19832202   5.676   0.300   1.278  0.2940  0.3299  0.0042
   43MOL   C19932203   5.669   0.437   1.209  0.1013 -0.0744 -0.3580
   43MOL   O20032204   5.673   0.544   1.312  0.2087 -0.4374 -0.0317
   43MOL   C20132205   5.647   0.671   1.276 -0.4223  0.4306  0.3928
   43MOL   O20232206   5.618   0.706   1.159 -0.0987  0.2071 -0.2366
   43MOL   C20332207   5.675   0.766   1.379  0.3552  0.3305 -0.1671
   43MOL   C20432208   5.705   0.723   1.512 -0.1953  0.8569 -0.1261
   43MOL   C20532209   5.747   0.815   1.613  0.9536 -0.0448  0.0765
   43MOL   C20632210   5.760   0.950   1.578 -0.6717  0.2780 -0.6055
   43MOL   C20732211   5.808   1.047   1.684  0.0167  0.1896 -0.5280
   43MOL   O20832212   5.805   1.169   1.670 -0.7691 -0.1760  0.6395
   43MOL   O20932213   5.863   0.990   1.793  0.0098 -0.0974  0.0415
   43MOL   C21032214   5.736   0.998   1.444 -0.2785 -0.0262 -0.6066
   43MOL   C21132215   5.687   0.904   1.350  0.1237  0.6566 -0.2948
   43MOL   H21232216   5.889   0.271   1.280 -1.5039 -1.9896 -1.2408
   43MOL   H21332217   5.833   0.363   1.415  1.4876  0.2412 -1.1456
   43MOL   H21432218   5.701   0.188   1.500 -1.5112 -4.1150  0.4125
   43MOL   H21532219   5.883   0.162   1.500  0.2130  0.9605 -0.1008
   43MOL   H21632220   5.869   0.023   1.311  1.1321 -0.9116  1.7305
   43MOL   H21732221   5.747   7.867   1.399 -1.9791 -0.5847  1.5757
   43MOL   H21832222   5.627   7.979   1.471 -0.2947  0.1933  0.2261
   43MOL   H21932223   5.569   0.076   1.315 -0.2383  0.9706 -0.6464
   43MOL   H22032224   5.660   8.012   1.186 -0.3710 -0.1891  0.5760
   43MOL   H22132225   5.769   0.181   1.102 -0.7888  2.6143 -2.6446
   43MOL   H22232226   5.594   0.175   1.100  0.7726  1.1856 -0.5013
   43MOL   H22332227   5.587   0.288   1.340  1.3672  1.3616  1.7669
   43MOL   H22432228   5.581   0.436   1.145 -1.2365  0.2391  1.4439
   43MOL   H22532229   5.760   0.456   1.151  0.4306 -0.6282 -0.0310
   43MOL   H22632230   5.703   0.616   1.531 -0.0415  1.4300  3.3420
   43MOL   H22732231   5.778   0.776   1.709 -1.6174  1.1377  1.4103
   43MOL   H22832232   5.753   1.099   1.411  0.6475  0.6242  1.7163
   43MOL   H22932233   5.656   0.942   1.253 -0.3042  1.4276  0.1362
   43MOL   C23032234   6.005   0.829   2.190  0.5624 -0.2362 -0.0729
   43MOL   C23132235   5.925   0.897   2.076  0.3781  0.5515 -0.0293
   43MOL   C23232236   6.001   1.008   1.999  1.4074  0.3844  1.2862
   43MOL   C23332237   5.911   1.073   1.897  0.4164  0.5705  0.2241
   43MOL   C23432238   6.052   1.112   2.092 -0.9318  0.5888  0.1100
   43MOL   C23532239   6.121   1.056   2.227  0.1896  0.5935  0.7676
   43MOL   C23632240   6.042   0.940   2.296  0.1429  0.4696 -0.3660
   43MOL   C23732241   6.131   0.890   2.417 -0.6547 -0.1658 -0.3675
   43MOL   O23832242   6.099   0.757   2.446  0.1178  0.2382  0.1554
   43MOL   C23932243   6.201   0.668   2.415  0.0459 -0.0502 -0.8876
   43MOL   O24032244   6.304   0.689   2.348 -0.7631  0.3196  0.1190
   43MOL   C24132245   6.163   0.530   2.459 -0.0777 -0.8643 -0.0939
   43MOL   C24232246   6.039   0.498   2.525 -0.2288  0.0203  0.0030
   43MOL   C24332247   6.011   0.367   2.553  0.4814  0.0132 -0.5688
   43MOL   C24432248   6.104   0.262   2.525  0.6234  0.5504 -0.2445
   43MOL   C24532249   6.069   0.120   2.571 -0.0578 -0.0760  0.6982
   43MOL   O24632250   5.994   0.106   2.666  0.0798 -0.1405  0.4738
   43MOL   O24732251   6.127   0.025   2.498 -0.3076  0.1481  0.3962
   43MOL   C24832252   6.218   0.297   2.452 -0.1681  0.8927 -0.7285
   43MOL   C24932253   6.247   0.428   2.420  0.2906 -0.1801  0.4878
   43MOL   H25032254   6.090   0.791   2.134 -1.4080 -0.8934 -2.7418
   43MOL   H25132255   5.947   0.745   2.227  1.8761 -1.2724 -0.3182
   43MOL   H25232256   5.833   0.941   2.113  0.8536  1.8432 -0.3476
   43MOL   H25332257   5.896   0.824   2.002  0.2419  0.9938 -0.4126
   43MOL   H25432258   6.084   0.961   1.945  0.1412 -0.1137 -0.2705
   43MOL   H25532259   5.958   1.160   1.852 -1.6274  2.1833  1.1655
   43MOL   H25632260   5.824   1.113   1.948 -0.3046  0.5999 -0.9984
   43MOL   H25732261   5.970   1.182   2.108 -0.3500  1.4484 -0.6079
   43MOL   H25832262   6.126   1.178   2.046  0.0053  1.9440  3.4269
   43MOL   H25932263   6.221   1.020   2.204 -0.4663  0.2018 -1.6082
   43MOL   H26032264   6.141   1.138   2.297 -3.4615  1.9106  0.3890
   43MOL   H26132265   5.949   0.986   2.329 -0.2224 -0.8680  0.4675
   43MOL   H26232266   6.103   0.945   2.506  1.7994 -0.3503  0.5527
   43MOL   H26332267   6.239   0.902   2.408 -0.7217  0.5888 -0.1450
   43MOL   H26432268   5.971   0.578   2.552  1.1835  1.2050  0.1363
   43MOL   H26532269   5.924   0.349   2.615  0.0185  0.0077 -1.2171
   43MOL   H26632270   6.288   0.216   2.437  0.0465  0.6321  1.4899
   43MOL   H26732271   6.334   0.451   2.360 -1.0542 -0.4394 -1.6321
   43MOL   C26832272   5.746   7.898   2.327 -0.2295  0.2328  0.0052
   43MOL   C26932273   5.851   7.960   2.418  0.1931 -0.7006  0.5189
   43MOL   C27032274   5.983   7.872   2.417  0.0588 -0.6788  0.5202
   43MOL   C27132275   6.088   7.924   2.522  0.3799  0.8701  0.4309
   43MOL   C27232276   5.951   7.726   2.450  0.0722  0.5112 -0.0213
   43MOL   C27332277   5.834   7.660   2.376 -0.2715  0.0745 -0.0211
   43MOL   C27432278   5.714   7.755   2.361  0.7542  0.1589 -0.3476
   43MOL   C27532279   5.616   7.696   2.257  0.6562  0.1396  0.4164
   43MOL   O27632280   5.493   7.768   2.268 -0.1084 -0.1383 -0.2351
   43MOL   C27732281   5.451   7.838   2.161 -0.3643  0.7410  0.1619
   43MOL   O27832282   5.519   7.848   2.057  0.3301  0.0412 -0.2412
   43MOL   C27932283   5.317   7.905   2.184  0.0828  0.1363  0.1759
   43MOL   C28032284   5.274   7.930   2.322 -1.0064  0.0462  0.2481
   43MOL   C28132285   5.147   7.979   2.343 -0.5229 -0.2183 -0.3651
   43MOL   C28232286   5.065   8.023   2.235 -0.3298 -0.2413 -0.1359
   43MOL   C28332287   4.931   0.047   2.259 -0.3116 -0.0519 -0.3084
   43MOL   O28432288   4.850   0.075   2.176 -0.6040  0.1043 -0.3512
   43MOL   O28532289   4.906   0.068   2.395  0.3316 -0.3380  0.3497
   43MOL   C28632290   5.114   8.017   2.105 -0.2385 -0.7192  0.9718
   43MOL   C28732291   5.241   7.955   2.081  0.3687  0.3093 -0.1326
   43MOL   H28832292   5.782   7.914   2.226  2.5244  0.1580  0.9370
   43MOL   H28932293   5.658   7.959   2.348 -0.3608 -0.0725  0.3553
   43MOL   H29032294   5.826   7.967   2.523 -0.3887 -0.2666  0.3547
   43MOL   H29132295   5.866   0.030   2.383 -0.3518 -0.3008  1.4518
   43MOL   H29232296   6.028   7.890   2.319  0.5264  0.5459  0.9511
   43MOL   H29332297   6.176   7.861   2.515 -0.1131  0.3686 -1.6570
   43MOL   H29432298   6.047   7.902   2.621  1.7701 -1.8619  0.4666
   43MOL   H29532299   5.942   7.711   2.558 -1.8759  0.3888 -0.1877
   43MOL   H29632300   6.039   7.664   2.427 -1.3232 -1.0135 -1.4160
   43MOL   H29732301   5.867   7.624   2.279  1.3376 -0.4590  0.7093
   43MOL   H29832302   5.801   7.572   2.431 -2.0390 -0.0643 -1.2614
   43MOL   H29932303   5.661   7.758   2.456  0.3675  2.5793 -0.6221
   43MOL   H30032304   5.616   7.589   2.281 -0.6509 -0.3899 -1.8606
   43MOL   H30132305   5.651   7.690   2.154 -1.8214  2.1748 -0.6028
   43MOL   H30232306   5.327   7.895   2.409 -1.5095 -1.9774 -0.2436
   43MOL   H30332307   5.117   7.971   2.446  2.1411  0.0098  0.4871
   43MOL   H30432308   5.059   0.018   2.018  0.7245 -1.0146  0.2319
   43MOL   H30532309   5.280   7.953   1.980  0.6140  0.6428 -0.0426
   43MOL   C30632310   4.417   0.045   2.498  0.7940  0.4424 -0.3969
   43MOL   C30732311   4.547   0.129   2.485 -0.3888 -0.3348  0.4843
   43MOL   C30832312   4.666   0.057   2.451 -0.4537 -0.6321 -0.3234
   43MOL   C30932313   4.794   0.138   2.441 -0.4874 -0.5597  0.1956
   43MOL   C31032314   4.679   7.963   2.544  0.2731 -0.2102  0.0731
   43MOL   C31132315   4.550   7.874   2.549 -0.3143  0.5164 -0.3066
   43MOL   C31232316   4.428   7.958   2.592 -0.2059  0.5933  0.4722
   43MOL   C31332317   4.300   7.880   2.596  0.3184  0.1325 -0.3642
   43MOL   O31432318   4.231   7.886   2.727 -0.1794  0.3536 -0.0838
   43MOL   C31532319   4.100   7.928   2.721 -0.3116 -0.4661  0.1927
   43MOL   O31632320   4.039   7.951   2.617  0.3165  0.5561  0.5252
   43MOL   C31732321   4.024   7.927   2.851  0.0441 -0.0876 -1.2681
   43MOL   C31832322   3.880   7.921   2.859  0.1197  0.4780 -0.6435
   43MOL   C31932323   3.814   7.937   2.986 -0.2929  0.0139  0.1313
   43MOL   C32032324   3.894   7.955   3.105 -0.0023 -0.0123  0.6295
   43MOL   C32132325   3.830   7.964   3.241 -0.8806 -0.0227 -0.3394
   43MOL   O32232326   3.885   7.990   3.349  0.3492  0.7071 -0.0735
   43MOL   O32332327   3.701   7.949   3.237  0.3169 -0.6072  0.9538
   43MOL   C32432328   4.028   7.951   3.096  0.5372  0.8588  0.9171
   43MOL   C32532329   4.098   7.940   2.976  0.3714  0.6821  0.0248
   43MOL   H32632330   4.375   0.016   2.402  2.2941  1.0389 -1.2312
   43MOL   H32732331   4.349   0.112   2.551  0.6896 -1.1903  1.6350
   43MOL   H32832332   4.580   0.170   2.580 -0.9365  0.5569  0.2976
   43MOL   H32932333   4.532   0.218   2.424  0.4303  0.2696  1.1574
   43MOL   H33032334   4.645   0.019   2.351 -0.2940 -2.9518  0.4985
   43MOL   H33132335   4.836   0.182   2.531  2.6763 -0.4342 -1.2774
   43MOL   H33232336   4.775   0.217   2.369  4.2504  0.0500 -0.5304
   43MOL   H33332337   4.710   7.992   2.645  0.4228  0.1747 -0.0781
   43MOL   H33432338   4.764   7.900   2.519 -0.5955 -1.6076  0.6306
   43MOL   H33532339   4.531   7.836   2.448 -0.3864  0.6471 -0.3419
   43MOL   H33632340   4.560   7.780   2.604 -0.7163 -0.5755 -2.0470
   43MOL   H33732341   4.446   7.985   2.696  1.2508 -1.5128  0.8082
   43MOL   H33832342   4.326   7.774   2.586  0.5502  0.2832 -1.3888
   43MOL   H33932343   4.243   7.897   2.505 -0.2108  1.0548  0.1298
   43MOL   H34032344   3.823   7.915   2.767 -1.4088  1.5850  0.2023
   43MOL   H34132345   3.706   7.940   2.984 -0.2775  0.4352 -0.4378
   43MOL   H34232346   4.079   7.945   3.192  2.7278  2.2109 -0.1237
   43MOL   H34332347   4.206   7.927   2.979  0.5370  2.1496  0.9865
   43MOL   C34432348   3.264   0.025   3.462 -0.1983 -0.0018  0.0691
   43MOL   C34532349   3.408   8.006   3.463 -0.9669 -0.7302 -0.4607
   43MOL   C34632350   3.488   8.013   3.331  0.5265 -0.1591  0.2570
   43MOL   C34732351   3.627   7.960   3.356  0.0329  0.5441  0.1964
   43MOL   C34832352   3.412   7.927   3.237  0.2922 -0.1264  0.2754
   43MOL   C34932353   3.270   7.995   3.209  0.1517 -0.2377  0.2571
   43MOL   C35032354   3.186   8.005   3.340 -0.0851  0.3545  0.2510
   43MOL   C35132355   3.057   0.062   3.318  0.1011 -0.4126 -0.1196
   43MOL   O35232356   3.109   0.191   3.281  0.0411 -0.8902 -0.3638
   43MOL   C35332357   3.033   0.301   3.301 -0.1286 -0.0103  0.0249
   43MOL   O35432358   2.911   0.299   3.306 -0.2935  0.4394  0.7378
   43MOL   C35532359   3.116   0.425   3.293  0.0052 -0.2041 -0.5501
   43MOL   C35632360   3.054   0.553   3.300 -0.1658  0.1269 -0.1272
   43MOL   C35732361   3.129   0.670   3.314  0.3721  0.0277 -0.5024
   43MOL   C35832362   3.273   0.662   3.324  0.1570 -0.0251  0.8429
   43MOL   C35932363   3.360   0.781   3.343 -0.0458  0.6440  0.1646
   43MOL   O36032364   3.482   0.784   3.328  0.0230  0.5205 -0.3406
   43MOL   O36132365   3.288   0.893   3.366  0.3093  0.4927 -0.1353
   43MOL   C36232366   3.331   0.535   3.311 -0.7257  0.0515  0.9134
   43MOL   C36332367   3.256   0.420   3.294 -0.2112 -0.3990 -0.5910
   43MOL   H36432368   3.262   0.134   3.455  0.3589 -0.0042 -0.1625
   43MOL   H36532369   3.208   8.029   3.551 -0.1196 -1.3793 -0.3053
   43MOL   H36632370   3.392   7.900   3.484 -1.4769 -0.9248 -1.7708
   43MOL   H36732371   3.467   0.012   3.546  0.7101 -0.5062 -1.7245
   43MOL   H36832372   3.480   0.086   3.303  0.5776  0.4828  2.5004
   43MOL   H36932373   3.611   7.861   3.400 -2.8306  1.7022  1.8788
   43MOL   H37032374   3.667   8.025   3.434 -1.9212  0.5445  1.2161
   43MOL   H37132375   3.403   7.826   3.276  0.6282  1.0444  3.5498
   43MOL   H37232376   3.460   7.924   3.140  0.6336  1.9661  0.3507
   43MOL   H37332377   3.287   0.064   3.172  0.5631 -0.5462 -0.3852
   43MOL   H37432378   3.208   7.938   3.140  0.6238 -0.8938  0.3699
   43MOL   H37532379   3.143   7.908   3.366 -1.9195  1.0279 -0.2050
   43MOL   H37632380   3.004   0.071   3.412  0.4308  2.6932 -0.1867
   43MOL   H37732381   3.003   0.019   3.234 -0.8228  0.8960 -0.2093
   43MOL   H37832382   2.947   0.561   3.295 -0.0624  2.9417  0.9222
   43MOL   H37932383   3.084   0.767   3.305  1.4320  0.5919  0.1884
   43MOL   H38032384   3.437   0.524   3.329 -0.5612  2.1690  1.4532
   43MOL   H38132385   3.318   0.332   3.299 -1.0064 -0.8886  0.8952
   43MOL   C38232386   3.109   1.249   3.175 -0.0669  0.2950 -0.1757
   43MOL   C38332387   3.192   1.130   3.216  0.1256  0.2610  0.7925
   43MOL   C38432388   3.249   1.137   3.354 -0.1353  0.7982  0.2733
   43MOL   C38532389   3.348   1.019   3.370 -0.4285 -0.0976 -0.0684
   43MOL   C38632390   3.335   1.272   3.375 -0.3101  0.2018  0.3417
   43MOL   C38732391   3.248   1.386   3.334  0.6311  0.0375  0.2243
   43MOL   C38832392   3.191   1.381   3.184  0.0692 -0.1369  0.8896
   43MOL   C38932393   3.099   1.499   3.149 -0.4258 -0.1492 -0.3144
   43MOL   O39032394   3.015   1.465   3.038  0.2660  0.8048  0.4683
   43MOL   C39132395   2.978   1.555   2.940  0.2158  0.7418 -0.0209
   43MOL   O39232396   3.005   1.675   2.953 -0.0299 -0.7023  0.4930
   43MOL   C39332397   2.909   1.490   2.831 -0.4492  0.3910  0.5359
   43MOL   C39432398   2.875   1.357   2.829  0.9822  0.0624  0.4952
   43MOL   C39532399   2.817   1.298   2.720 -0.3032 -0.1939 -0.3333
   43MOL   C39632400   2.779   1.374   2.608 -0.4182 -0.6855 -0.0652
   43MOL   C39732401   2.707   1.313   2.490  0.2761 -0.1801  0.3399
   43MOL   O39832402   2.662   1.375   2.396 -0.1212  0.0303  0.6925
   43MOL   O39932403   2.701   1.179   2.497 -0.0401 -0.3843  0.2344
   43MOL   C40032404   2.811   1.513   2.610  0.7530  0.4700  0.3206
   43MOL   C40132405   2.873   1.573   2.719  1.0909  0.1149  0.3522
   43MOL   H40232406   3.019   1.248   3.237 -0.6164 -4.5918 -0.8887
   43MOL   H40332407   3.074   1.232   3.073 -0.1594  0.5138 -0.1817
   43MOL   H40432408   3.275   1.123   3.145  0.3343 -0.1186  1.0773
   43MOL   H40532409   3.135   1.037   3.215  0.0949  0.2785  1.0376
   43MOL   H40632410   3.166   1.125   3.424  0.0737  1.1127  0.5789
   43MOL   H40732411   3.410   1.030   3.459  0.8272  0.8519 -1.0451
   43MOL   H40832412   3.408   1.023   3.280 -0.6397 -1.6675 -0.2820
   43MOL   H40932413   3.416   1.265   3.303 -1.4636 -1.3625 -0.8543
   43MOL   H41032414   3.371   1.274   3.478  2.1047 -1.2457 -0.4225
   43MOL   H41132415   3.166   1.394   3.406  0.9401 -1.2195  0.7231
   43MOL   H41232416   3.302   1.480   3.344 -0.8474  0.9670 -0.3115
   43MOL   H41332417   3.277   1.385   3.117 -0.2203  2.5616  0.6429
   43MOL   H41432418   3.153   1.593   3.136 -0.1536 -0.2157  0.3223
   43MOL   H41532419   3.039   1.509   3.240 -0.4059 -1.3196 -0.1666
   43MOL   H41632420   2.883   1.291   2.914  0.5648  0.0622  0.5358
   43MOL   H41732421   2.783   1.196   2.721  1.8380 -0.9463  0.4952
   43MOL   H41832422   2.785   1.573   2.524 -2.1591  1.3490  1.7286
   43MOL   H41932423   2.901   1.676   2.702  0.5727 -0.1080 -1.9687
   43MOL   C42032424   2.565   0.705   2.453 -0.6078  0.0634 -0.1265
   43MOL   C42132425   2.547   0.848   2.396  0.2749  0.3859  0.3280
   43MOL   C42232426   2.644   0.945   2.452  0.5522 -0.0123  0.8089
   43MOL   C42332427   2.614   1.094   2.418  0.0742  0.6377 -0.2910
   43MOL   C42432428   2.670   0.933   2.604  0.1393 -0.3623  0.1626
   43MOL   C42532429   2.681   0.790   2.657 -0.8892  0.6855  0.0390
   43MOL   C42632430   2.564   0.703   2.604 -0.1071  0.2217 -0.4615
   43MOL   C42732431   2.574   0.559   2.660  1.1488  0.0786  0.9583
   43MOL   O42832432   2.671   0.484   2.591  0.3897 -0.5094 -0.4974
   43MOL   C42932433   2.684   0.354   2.618 -0.2377 -0.1533 -0.5051
   43MOL   O43032434   2.612   0.290   2.697  0.0303 -0.6542 -0.1026
   43MOL   C43132435   2.813   0.292   2.567  0.1073  0.6076  0.2778
   43MOL   C43232436   2.861   0.176   2.627 -0.3561  0.7752 -0.3863
   43MOL   C43332437   2.972   0.113   2.569 -0.3737  0.7456  0.2173
   43MOL   C43432438   3.041   0.156   2.452  1.2840 -0.0270 -0.2342
   43MOL   C43532439   3.154   0.080   2.407  0.1830  0.6879 -0.3738
   43MOL   O43632440   3.210   8.019   2.466 -0.0456 -0.2349  0.0581
   43MOL   O43732441   3.198   0.127   2.289  0.1209 -0.0205 -0.2356
   43MOL   C43832442   2.987   0.274   2.396  0.0731  0.2180  0.5396
   43MOL   C43932443   2.881   0.342   2.459 -0.3388 -0.5283  1.2565
   43MOL   H44032444   2.655   0.659   2.411 -0.9267 -2.3541  1.7168
   43MOL   H44132445   2.489   0.642   2.406 -1.9315  0.9122  0.8712
   43MOL   H44232446   2.449   0.888   2.420  0.4446  2.3515 -2.1294
   43MOL   H44332447   2.543   0.839   2.288 -1.3048 -0.1187  0.4170
   43MOL   H44432448   2.742   0.927   2.406  0.0685  0.1840 -0.3068
   43MOL   H44532449   2.510   1.100   2.452  0.0049 -2.7163  0.2428
   43MOL   H44632450   2.603   1.128   2.315 -1.4700  1.7214  0.2069
   43MOL   H44732451   2.576   0.977   2.637 -1.3451 -1.0044 -3.0152
   43MOL   H44832452   2.756   0.994   2.629 -0.4623  1.9422 -3.1175
   43MOL   H44932453   2.775   0.751   2.616 -1.3505 -1.2886  0.8188
   43MOL   H45032454   2.701   0.782   2.764  1.0689  4.1243  0.0335
   43MOL   H45132455   2.468   0.746   2.632  0.9968  1.7539  1.1082
   43MOL   H45232456   2.486   0.503   2.628  2.3144 -0.8026 -0.7536
   43MOL   H45332457   2.596   0.561   2.767 -2.7147 -2.4385  1.8726
   43MOL   H45432458   2.819   0.140   2.719 -0.3842 -0.6841 -0.9559
   43MOL   H45532459   3.012   0.026   2.619 -1.2596 -0.8310 -1.7382
   43MOL   H45632460   3.031   0.320   2.309 -0.8493 -2.2538 -1.2957
   43MOL   H45732461   2.860   0.439   2.416 -0.1550 -0.5959  1.0116
   43MOL   C45832462   3.420   7.765   2.065 -0.8225 -0.2433 -1.2297
   43MOL   C45932463   3.435   7.897   2.146  0.1672  0.0672 -0.4300
   43MOL   C46032464   3.306   7.976   2.154  0.2750 -0.2045  0.2807
   43MOL   C46132465   3.317   0.079   2.225  0.5081 -0.1375 -0.5478
   43MOL   C46232466   3.241   7.988   2.020  0.1993 -0.4332 -0.5334
   43MOL   C46332467   3.219   7.856   1.947  0.7723 -0.0439  0.6978
   43MOL   C46432468   3.358   7.799   1.926  0.2502  0.0528  0.5467
   43MOL   C46532469   3.358   7.684   1.820 -0.1814  0.8599  0.2148
   43MOL   O46632470   3.492   7.638   1.799  0.0421  0.4853 -0.5106
   43MOL   C46732471   3.562   7.681   1.704  0.4995 -0.0595 -0.1830
   43MOL   O46832472   3.519   7.714   1.591  0.2544 -0.1615 -0.6294
   43MOL   C46932473   3.702   7.666   1.733 -0.6918 -0.1772 -1.1204
   43MOL   C47032474   3.798   7.709   1.634  0.2685 -0.1954  0.1142
   43MOL   C47132475   3.935   7.704   1.652 -0.2249 -0.2190 -0.0847
   43MOL   C47232476   3.984   7.640   1.769  1.0363 -0.5346  0.8250
   43MOL   C47332477   4.128   7.615   1.778 -0.2924 -0.2930 -0.1646
   43MOL   O47432478   4.184   7.569   1.880 -0.0634 -0.9201 -0.6920
   43MOL   O47532479   4.198   7.651   1.665  0.4280  0.6023 -0.4481
   43MOL   C47632480   3.899   7.600   1.874  0.2351  0.3326  0.5252
   43MOL   C47732481   3.760   7.619   1.853 -0.0736 -0.3259 -0.4682
   43MOL   H47832482   3.353   7.698   2.120 -2.5982  1.7445 -0.9094
   43MOL   H47932483   3.519   7.719   2.059 -0.9175 -0.7934  0.7846
   43MOL   H48032484   3.488   7.972   2.087 -1.5292  1.2540 -0.5076
   43MOL   H48132485   3.482   7.891   2.244 -0.5701  0.6178 -0.0330
   43MOL   H48232486   3.227   7.926   2.209 -0.4764  1.8997  1.1859
   43MOL   H48332487   3.349   0.156   2.155 -0.9662  1.0608  0.0622
   43MOL   H48432488   3.400   0.080   2.296  0.1787  0.4146 -0.1688
   43MOL   H48532489   3.291   0.033   1.961 -0.6282  0.4163 -0.1369
   43MOL   H48632490   3.145   0.005   2.037  0.4818 -0.7803  2.2739
   43MOL   H48732491   3.145   7.787   1.985  0.4533 -0.0946 -0.0152
   43MOL   H48832492   3.184   7.875   1.845 -0.6742  0.2287  1.2362
   43MOL   H48932493   3.421   7.881   1.888  0.7035 -0.5430  0.0016
   43MOL   H49032494   3.322   7.708   1.720  1.5397 -0.7245 -0.8225
   43MOL   H49132495   3.303   7.592   1.842 -0.2393  0.6898 -0.6334
   43MOL   H49232496   3.759   7.755   1.544 -0.7653 -1.7180 -0.2338
   43MOL   H49332497   3.998   7.745   1.574  0.7449 -2.0806 -0.3211
   43MOL   H49432498   3.941   7.550   1.960 -1.3325 -1.0468  0.5097
   43MOL   H49532499   3.689   7.568   1.917  0.7342  1.0664  1.5830
   43MOL   C49632500   4.610   7.672   1.398  0.2442 -0.6692  0.7036
   43MOL   C49732501   4.556   7.652   1.540 -0.2038 -0.8816  0.3868
   43MOL   C49832502   4.400   7.645   1.528 -0.2108 -0.6651 -0.6557
   43MOL   C49932503   4.338   7.650   1.671 -0.3640 -0.1572  0.8680
   43MOL   C50032504   4.345   7.769   1.448 -0.0977 -0.8716  0.5100
   43MOL   C50132505   4.407   7.775   1.306  1.3688 -0.3381  0.3843
   43MOL   C50232506   4.554   7.796   1.331  0.1862  0.5010  0.3118
   43MOL   C50332507   4.627   7.806   1.191  0.3993 -0.1732  0.1529
   43MOL   O50432508   4.772   7.797   1.200 -0.1907  0.7018  0.3001
   43MOL   C50532509   4.860   7.891   1.153  0.0423 -0.3778  0.0993
   43MOL   O50632510   4.824   7.993   1.093  0.2591  0.0958 -0.4715
   43MOL   C50732511   4.997   7.857   1.186  0.9778  1.0538 -0.4130
   43MOL   C50832512   5.030   7.724   1.219  0.3730  0.2652  0.0364
   43MOL   C50932513   5.162   7.685   1.248  0.2168  0.0982 -0.3319
   43MOL   C51032514   5.266   7.775   1.237 -0.2666 -0.3831 -0.5932
   43MOL   C51132515   5.410   7.732   1.253 -0.2508 -0.2834  0.1562
   43MOL   O51232516   5.509   7.801   1.227 -0.6459 -0.1142  0.1845
   43MOL   O51332517   5.419   7.617   1.320  0.5673 -0.0821  0.3510
   43MOL   C51432518   5.236   7.909   1.198  0.0824 -0.1957  0.9417
   43MOL   C51532519   5.100   7.948   1.179  0.2578 -0.5839  0.5530
   43MOL   H51632520   4.593   7.586   1.334 -0.6345  1.0962 -1.4828
   43MOL   H51732521   4.719   7.682   1.401  0.2565  0.0627 -1.3541
   43MOL   H51832522   4.587   7.725   1.614  1.1266  0.2518 -1.2320
   43MOL   H51932523   4.592   7.556   1.577  1.5676  0.1218  1.3673
   43MOL   H52032524   4.382   7.551   1.476  0.5978 -1.0565 -0.2216
   43MOL   H52132525   4.365   7.737   1.731 -0.2732 -0.5452  1.4014
   43MOL   H52232526   4.376   7.564   1.727 -0.1051 -1.6556 -1.5486
   43MOL   H52332527   4.365   7.862   1.501 -2.2510  0.5214 -1.0101
   43MOL   H52432528   4.236   7.775   1.438 -0.1249  0.4073  1.4257
   43MOL   H52532529   4.400   7.679   1.255 -1.9903 -0.4183  0.9246
   43MOL   H52632530   4.372   7.858   1.245  0.8165 -1.0790 -0.3101
   43MOL   H52732531   4.570   7.888   1.388 -2.0571  0.6937  0.6912
   43MOL   H52832532   4.590   7.877   1.117  1.4279  0.0241 -0.1683
   43MOL   H52932533   4.614   7.713   1.136  1.6236  0.4363 -1.1769
   43MOL   H53032534   4.957   7.645   1.223 -0.9361  1.3171 -2.0767
   43MOL   H53132535   5.183   7.583   1.277 -0.9316  0.0378  0.2945
   43MOL   H53232536   5.316   7.982   1.192  1.4726 -1.8741 -1.4709
   43MOL   H53332537   5.080   0.020   1.155  1.5370 -0.6997 -1.0807
   43MOL   C53432538   5.637   7.359   1.046 -0.9138  0.2069 -0.7890
   43MOL   C53532539   5.601   7.481   1.127 -0.5881 -0.3931  0.2701
   43MOL   C53632540   5.578   7.447   1.274 -0.3519 -0.4028  0.1160
   43MOL   C53732541   5.544   7.570   1.355  0.1457 -0.0624  0.2142
   43MOL   C53832542   5.466   7.337   1.278  0.1400  0.5654 -0.2768
   43MOL   C53932543   5.504   7.212   1.193  0.6092 -0.2522 -0.6277
   43MOL   C54032544   5.538   7.244   1.045 -0.2611  0.3374  0.4470
   43MOL   C54132545   5.592   7.124   0.964 -0.0447  0.5483 -0.1401
   43MOL   O54232546   5.487   7.024   0.944 -0.1830 -0.1441  0.2428
   43MOL   C54332547   5.418   7.027   0.831  0.1859  0.4367 -0.1286
   43MOL   O54432548   5.443   7.105   0.735  0.4969  0.1179  0.0407
   43MOL   C54532549   5.298   6.936   0.832  0.6215  0.1178  0.4610
   43MOL   C54632550   5.248   6.889   0.707 -0.0075  0.5423  1.2719
   43MOL   C54732551   5.143   6.798   0.699  0.3707  0.2288  0.4059
   43MOL   C54832552   5.073   6.771   0.816 -0.1113  0.2608  0.0015
   43MOL   C54932553   4.938   6.703   0.815 -0.1591  0.6050 -0.0192
   43MOL   O55032554   4.862   6.679   0.908  0.1483  0.4158  0.2418
   43MOL   O55132555   4.914   6.662   0.696  0.4690 -0.4562 -0.3183
   43MOL   C55232556   5.115   6.821   0.939 -0.7852 -0.2101  0.4699
   43MOL   C55332557   5.231   6.901   0.951 -0.6795 -0.5590  0.2178
   43MOL   H55432558   5.732   7.330   1.092 -0.6821  0.8896 -0.8155
   43MOL   H55532559   5.660   7.390   0.944  0.5499  0.1266 -0.4929
   43MOL   H55632560   5.502   7.510   1.092  0.0126  0.1766 -0.9995
   43MOL   H55732561   5.670   7.564   1.110 -1.4320  0.4776  0.9762
   43MOL   H55832562   5.668   7.399   1.314 -1.6180 -1.5983  1.6010
   43MOL   H55932563   5.627   7.639   1.338  0.0600 -0.0110  0.0054
   43MOL   H56032564   5.553   7.535   1.458 -1.3151 -0.9979  0.0316
   43MOL   H56132565   5.368   7.365   1.239 -0.7557 -1.1903  0.6335
   43MOL   H56232566   5.465   7.301   1.381  0.3001 -0.6425 -0.6840
   43MOL   H56332567   5.590   7.164   1.239 -0.8280 -1.6627  0.6505
   43MOL   H56432568   5.430   7.131   1.197 -0.2918  0.5896 -0.2467
   43MOL   H56532569   5.450   7.291   1.002 -1.2333 -1.9507 -0.1809
   43MOL   H56632570   5.677   7.080   1.017 -0.6170  1.0279  1.2018
   43MOL   H56732571   5.638   7.153   0.869  2.3057 -1.0502  0.4779
   43MOL   H56832572   5.301   6.926   0.621  1.4787  0.0766  1.9820
   43MOL   H56932573   5.110   6.753   0.607 -2.1023  0.0131  1.3545
   43MOL   H57032574   5.060   6.784   1.024  3.3053 -0.1750  3.2264
   43MOL   H57132575   5.264   6.919   1.052 -0.5457  0.6082 -0.0242
   43MOL   C57232576   4.823   6.372   0.358 -0.2691 -0.5436 -0.5201
   43MOL   C57332577   4.837   6.503   0.441 -0.2730 -0.1161 -0.5681
   43MOL   C57432578   4.790   6.479   0.586 -0.2647 -0.0955 -0.0753
   43MOL   C57532579   4.784   6.614   0.661 -0.4901 -0.2766 -0.5925
   43MOL   C57632580   4.651   6.424   0.585  0.0856  0.1225  0.1165
   43MOL   C57732581   4.630   6.303   0.488 -0.2969  0.2530 -0.5856
   43MOL   C57832582   4.677   6.331   0.346 -0.0817  0.2581 -0.5712
   43MOL   C57932583   4.658   6.201   0.259 -0.5995 -0.2109  0.3706
   43MOL   O58032584   4.560   6.219   0.162  0.0529  0.2083 -0.2021
   43MOL   C58132585   4.595   6.246   0.027  0.9274  0.7366 -0.7897
   43MOL   O58232586   4.709   6.285   8.020 -0.9194  0.2075 -0.4592
   43MOL   C58332587   4.480   6.230   7.971  0.2122 -0.2532  1.2343
   43MOL   C58432588   4.355   6.194   8.019  0.0150  0.0030  0.8124
   43MOL   C58532589   4.249   6.159   7.934  0.1594 -0.2843  0.0725
   43MOL   C58632590   4.260   6.178   7.796 -0.6492 -1.0328 -0.2508
   43MOL   C58732591   4.154   6.143   7.701  0.4156 -0.0173 -0.1988
   43MOL   O58832592   4.148   6.187   7.589  0.5737 -0.4896  0.6737
   43MOL   O58932593   4.073   6.044   7.749 -0.0839 -0.0112 -0.6346
   43MOL   C59032594   4.384   6.230   7.748  0.0490  0.2189  0.4626
   43MOL   C59132595   4.486   6.269   7.833  0.2670  0.4675  0.5240
   43MOL   H59232596   4.885   6.294   0.404 -0.7498 -2.0968 -2.4194
   43MOL   H59332597   4.867   6.390   0.260  0.0556 -1.4239 -0.5424
   43MOL   H59432598   4.791   6.588   0.390  0.6131  1.1657  0.7150
   43MOL   H59532599   4.942   6.530   0.457 -0.4533 -0.2549  0.8977
   43MOL   H59632600   4.850   6.409   0.644  2.4308  2.0942 -0.1237
   43MOL   H59732601   4.723   6.590   0.749  2.0285 -1.1818  0.9762
   43MOL   H59832602   4.734   6.689   0.601  0.8322  2.1751  1.2530
   43MOL   H59932603   4.581   6.505   0.564 -0.7265 -0.3353  1.0089
   43MOL   H60032604   4.613   6.384   0.679  0.1702  1.4652  0.7308
   43MOL   H60132605   4.681   6.214   0.524  1.4561  0.0180 -3.5063
   43MOL   H60232606   4.525   6.274   0.489 -0.1730 -0.1996 -0.4107
   43MOL   H60332607   4.633   6.423   0.306  1.7834  0.9012 -1.2017
   43MOL   H60432608   4.625   6.123   0.328 -0.1515 -0.4596  0.3051
   43MOL   H60532609   4.752   6.159   0.224 -1.1812  0.2501 -1.8589
   43MOL   H60632610   4.344   6.169   0.091  0.1429 -1.4848  0.4703
   43MOL   H60732611   4.162   6.121   7.986  0.2988  0.5653  0.9323
   43MOL   H60832612   4.401   6.250   7.644  0.0684  3.2243  0.9946
   43MOL   H60932613   4.573   6.312   7.787 -0.4157  1.1826 -0.1164
   43MOL   C61032614   3.674   6.195   7.794 -0.0948 -0.3248 -0.5262
   43MOL   C61132615   3.800   6.103   7.801  0.4440 -0.1120  0.0078
   43MOL   C61232616   3.857   6.090   7.665 -0.2839  0.5769  0.3194
   43MOL   C61332617   3.973   5.989   7.673  0.0119 -0.0267  0.8501
   43MOL   C61432618   3.765   6.038   7.557  0.6072  0.0742  0.0353
   43MOL   C61532619   3.643   6.124   7.547  0.5963 -0.3152  0.7474
   43MOL   C61632620   3.572   6.150   7.680  0.7288 -0.7028  0.0128
   43MOL   C61732621   3.449   6.244   7.658  0.7245  0.7269 -0.1864
   43MOL   O61832622   3.350   6.230   7.762 -0.1329 -0.6766 -0.2992
   43MOL   C61932623   3.258   6.135   7.752  0.5703  0.3016  0.7894
   43MOL   O62032624   3.230   6.071   7.651  0.6245 -0.3496 -0.5469
   43MOL   C62132625   3.180   6.117   7.879 -0.4660  0.3251  0.2839
   43MOL   C62232626   3.204   6.186   8.000  0.1090  0.5055  0.6782
   43MOL   C62332627   3.130   6.155   0.083 -0.0764  0.3612  0.0389
   43MOL   C62432628   3.026   6.061   0.083 -0.6312 -0.2778 -0.0279
   43MOL   C62532629   2.934   6.040   0.201 -0.3794 -0.0231 -1.3143
   43MOL   O62632630   2.847   5.953   0.215 -0.0027  0.3860  0.2056
   43MOL   O62732631   2.943   6.145   0.286 -0.2104  0.0035  0.8568
   43MOL   C62832632   2.994   6.000   7.991 -0.5914  0.4708  0.4900
   43MOL   C62932633   3.074   6.021   7.876  0.3074  0.4301 -0.1772
   43MOL   H63032634   3.699   6.298   7.769  0.4851 -0.1167  0.9022
   43MOL   H63132635   3.622   6.189   7.889 -1.2152 -1.2942 -1.1856
   43MOL   H63232636   3.770   6.004   7.835 -0.2825  0.1708  0.2157
   43MOL   H63332637   3.876   6.123   7.875  1.6158 -0.8731 -0.9702
   43MOL   H63432638   3.892   6.190   7.637 -1.3267  0.7962 -0.2401
   43MOL   H63532639   4.022   5.967   7.578  1.2015  0.0379  1.4370
   43MOL   H63632640   3.950   5.894   7.720  1.1902  0.4274  2.3990
   43MOL   H63732641   3.744   5.934   7.581 -4.1376  0.7616 -0.6799
   43MOL   H63832642   3.812   6.030   7.459  0.8719  0.4727  0.1259
   43MOL   H63932643   3.670   6.223   7.512  0.0377  0.0186  1.2500
   43MOL   H64032644   3.571   6.080   7.478 -1.2673  0.0062  2.4523
   43MOL   H64132645   3.520   6.055   7.695 -0.9597  0.1948 -0.0246
   43MOL   H64232646   3.406   6.226   7.560  0.9246 -0.6655 -0.0388
   43MOL   H64332647   3.488   6.345   7.664  1.2790  0.7804 -3.8892
   43MOL   H64432648   3.275   6.267   8.002 -0.6468  1.2529 -1.4436
   43MOL   H64532649   3.144   6.216   0.172 -0.8158 -0.9911  1.1041
   43MOL   H64632650   2.914   5.928   7.982 -1.0740  0.9967  0.5532
   43MOL   H64732651   3.044   5.972   7.785 -1.3367  0.2105  0.4731
   43MOL   C64832652   3.111   6.435   0.549 -0.0091  0.0686  0.6811
   43MOL   C64932653   3.062   6.311   0.473  0.2993 -0.0171  0.0281
   43MOL   C65032654   2.907   6.278   0.481  0.2348  0.4270  0.8288
   43MOL   C65132655   2.888   6.137   0.415 -0.9599 -0.4856  0.0506
   43MOL   C65232656   2.861   6.276   0.630 -0.1050  0.3573 -0.1218
   43MOL   C65332657   2.912   6.398   0.709 -1.1101 -0.4501  0.0970
   43MOL   C65432658   3.066   6.418   0.697 -0.2165  0.3956 -1.1249
   43MOL   C65532659   3.098   6.548   0.769  0.3719  0.4215  0.4761
   43MOL   O65632660   3.026   6.566   0.890  0.5279  0.9197  0.3159
   43MOL   C65732661   3.061   6.661   0.968 -0.4831 -0.2439 -0.5742
   43MOL   O65832662   3.144   6.747   0.938 -0.0265  0.4814  0.1942
   43MOL   C65932663   3.001   6.660   1.100  0.2535  0.3015  0.6756
   43MOL   C66032664   3.041   6.751   1.198 -0.1928  0.4095  0.6196
   43MOL   C66132665   2.979   6.759   1.320  0.8641 -0.1859  0.4262
   43MOL   C66232666   2.869   6.672   1.350 -0.5444 -0.3547  0.7589
   43MOL   C66332667   2.801   6.683   1.482 -0.5293 -0.4016  0.3247
   43MOL   O66432668   2.825   6.772   1.556  0.3445  0.7881 -0.5657
   43MOL   O66532669   2.720   6.575   1.512  0.0655 -0.0284 -0.0578
   43MOL   C66632670   2.837   6.576   1.257  0.6168  0.1212  0.1157
   43MOL   C66732671   2.901   6.568   1.130 -0.0207 -0.3404  0.0155
   43MOL   H66832672   3.063   6.525   0.509 -1.2685 -1.0676 -0.4178
   43MOL   H66932673   3.216   6.457   0.535 -0.4962  2.4869  0.5968
   43MOL   H67032674   3.114   6.220   0.502 -1.2937 -1.4514 -1.4948
   43MOL   H67132675   3.088   6.328   0.369 -0.3658  0.8773  0.0028
   43MOL   H67232676   2.851   6.347   0.419  1.3000 -0.5637 -1.2693
   43MOL   H67332677   2.782   6.113   0.410 -0.7662 -1.0736 -1.9483
   43MOL   H67432678   2.927   6.050   0.468 -1.2334 -1.4675 -1.3079
   43MOL   H67532679   2.912   6.185   0.660 -1.1579  0.5920  2.5146
   43MOL   H67632680   2.754   6.258   0.643 -0.3556  2.2318  0.4283
   43MOL   H67732681   2.859   6.486   0.673 -0.2034 -0.5001 -1.4208
   43MOL   H67832682   2.881   6.390   0.813 -0.5115 -2.8921  0.1146
   43MOL   H67932683   3.116   6.330   0.739 -2.1149 -1.1219 -1.9752
   43MOL   H68032684   3.078   6.630   0.700 -2.3420  1.9466  2.9427
   43MOL   H68132685   3.206   6.554   0.785  0.1289  0.8442  2.0663
   43MOL   H68232686   3.123   6.818   1.177  1.8656 -1.0334  3.6900
   43MOL   H68332687   3.001   6.845   1.382 -1.4164  0.1904  0.7845
   43MOL   H68432688   2.763   6.500   1.277 -1.4447  1.4580 -2.1652
   43MOL   H68532689   2.877   6.489   1.061  0.0388 -0.0441 -0.3462
   43MOL   C68632690   2.322   6.782   1.734  0.5584  0.7405  0.7741
   43MOL   C68732691   2.434   6.679   1.750  0.0298  0.5508 -0.5327
   43MOL   C68832692   2.529   6.686   1.628  0.4025  0.7811 -0.8612
   43MOL   C68932693   2.642   6.585   1.631  0.1811  0.4347 -0.2406
   43MOL   C69032694   2.441   6.660   1.504 -0.7378  0.2919 -0.2673
   43MOL   C69132695   2.330   6.767   1.489  0.9371  0.6500  0.1083
   43MOL   C69232696   2.230   6.760   1.606 -0.0253 -0.0529 -0.2919
   43MOL   C69332697   2.111   6.857   1.580 -0.2040 -0.3627 -0.0359
   43MOL   O69432698   1.992   6.803   1.635 -0.3840  0.8848  0.2379
   43MOL   C69532699   1.891   6.760   1.547 -0.2701  0.1076  0.3211
   43MOL   O69632700   1.894   6.760   1.426 -0.2657 -0.3436 -0.3383
   43MOL   C69732701   1.759   6.734   1.611 -0.0811  0.1155  0.1920
   43MOL   C69832702   1.646   6.721   1.529  0.2157  0.4641 -0.0055
   43MOL   C69932703   1.522   6.687   1.589  0.3730  0.5193 -0.8380
   43MOL   C70032704   1.517   6.667   1.728  0.2372 -0.0772 -0.2060
   43MOL   C70132705   1.390   6.618   1.790 -0.4923  0.3090 -1.0447
   43MOL   O70232706   1.373   6.614   1.912  0.3024  0.5157 -0.2483
   43MOL   O70332707   1.302   6.574   1.697  0.0305 -0.4840 -0.5921
   43MOL   C70432708   1.626   6.692   1.807 -0.0732 -0.5607  0.0217
   43MOL   C70532709   1.749   6.729   1.749 -0.6330  0.3119 -0.2622
   43MOL   H70632710   2.362   6.883   1.728  4.1393 -0.6601 -0.2207
   43MOL   H70732711   2.249   6.767   1.814  0.1019 -1.4028 -0.0108
   43MOL   H70832712   2.406   6.574   1.752  1.0672  0.2455 -1.1538
   43MOL   H70932713   2.480   6.693   1.848 -1.1904  1.5188 -0.0833
   43MOL   H71032714   2.562   6.788   1.611 -1.0059  0.9673 -2.6106
   43MOL   H71132715   2.603   6.484   1.643  1.4152 -0.1896 -1.3493
   43MOL   H71232716   2.703   6.596   1.721  1.1047 -3.2792 -0.3263
   43MOL   H71332717   2.399   6.560   1.499  2.8782 -1.3174 -0.3449
   43MOL   H71432718   2.513   6.658   1.422 -0.9081 -1.6020 -0.3928
   43MOL   H71532719   2.375   6.866   1.484 -0.9545  1.4332 -2.2996
   43MOL   H71632720   2.272   6.747   1.399  0.5944  0.1329  0.4439
   43MOL   H71732721   2.196   6.657   1.607 -2.0937  0.5339 -3.0439
   43MOL   H71832722   2.105   6.866   1.472  0.4534  3.2012  0.1568
   43MOL   H71932723   2.135   6.953   1.625  0.1533 -0.5459  0.1619
   43MOL   H72032724   1.654   6.733   1.422 -0.4626  0.0900 -0.0999
   43MOL   H72132725   1.433   6.692   1.527 -0.3115 -0.2042  0.0705
   43MOL   H72232726   1.616   6.703   1.914 -1.2439  1.5013 -0.2651
   43MOL   H72332727   1.834   6.731   1.816 -1.3101 -2.3603  0.7322
   43MOL   C72432728   1.002   6.181   1.724 -0.6149 -0.0442  0.4736
   43MOL   C72532729   1.010   6.336   1.719  0.0958  0.1248  0.4497
   43MOL   C72632730   1.155   6.383   1.751  0.3404 -0.4250  0.1571
   43MOL   C72732731   1.166   6.537   1.737 -0.6430 -0.2037  0.3732
   43MOL   C72832732   1.205   6.325   1.886  0.4149 -1.0175 -0.0066
   43MOL   C72932733   1.202   6.175   1.882  0.4492 -0.7788 -0.0009
   43MOL   C73032734   1.062   6.123   1.856  0.7813  0.1961 -0.6275
   43MOL   C73132735   1.058   5.971   1.858  0.0302  0.2344  0.4195
   43MOL   O73232736   1.095   5.928   1.989  0.4386  0.3096 -0.9025
   43MOL   C73332737   1.181   5.823   1.991  0.1559 -0.3240 -0.0291
   43MOL   O73432738   1.205   5.745   1.896 -0.0800 -0.1193 -0.0958
   43MOL   C73532739   1.230   5.798   2.132  0.0411  0.2142  0.0384
   43MOL   C73632740   1.203   5.892   2.238  0.5746  0.1787  0.4189
   43MOL   C73732741   1.239   5.870   2.373  0.0197 -0.1080  0.3245
   43MOL   C73832742   1.309   5.749   2.403  0.4488  0.0780  0.6348
   43MOL   C73932743   1.329   5.716   2.550 -0.2325  1.2470  0.2108
   43MOL   O74032744   1.312   5.801   2.637  0.0128 -0.8075 -0.1495
   43MOL   O74132745   1.364   5.584   2.576 -0.1698  0.0276  0.3890
   43MOL   C74232746   1.349   5.662   2.298 -0.2248 -0.8700  0.3115
   43MOL   C74332747   1.310   5.688   2.167 -0.3423 -0.0259  0.6198
   43MOL   H74432748   1.048   6.149   1.630  0.1270 -0.0958  0.8572
   43MOL   H74532749   0.897   6.154   1.710 -0.0570 -1.1935 -1.9157
   43MOL   H74632750   0.941   6.388   1.784  0.2941  2.0988 -0.8669
   43MOL   H74732751   0.980   6.370   1.619  0.0772 -0.0778  0.3871
   43MOL   H74832752   1.211   6.337   1.669  1.9004  0.7505  0.5215
   43MOL   H74932753   1.123   6.593   1.821  0.2481  1.8965 -0.5349
   43MOL   H75032754   1.099   6.570   1.657 -1.3494  0.5858  1.2737
   43MOL   H75132755   1.134   6.363   1.960  0.6479  0.1162 -0.3527
   43MOL   H75232756   1.302   6.368   1.910 -0.4601 -0.3909  2.6147
   43MOL   H75332757   1.272   6.135   1.809  0.4206  0.0730 -0.5007
   43MOL   H75432758   1.229   6.144   1.983 -0.3835  2.2739  1.2120
   43MOL   H75532759   1.000   6.149   1.942  0.1341 -1.8761 -0.4501
   43MOL   H75632760   1.119   5.928   1.779  0.2205 -0.6447  1.0322
   43MOL   H75732761   0.956   5.933   1.853  1.3249 -3.4367  0.3933
   43MOL   H75832762   1.155   5.986   2.211 -0.6326 -0.7681 -0.8214
   43MOL   H75932763   1.198   5.937   2.447  2.4611  1.1882  0.5458
   43MOL   H76032764   1.403   5.571   2.322  1.1087  0.4982  2.7019
   43MOL   H76132765   1.332   5.607   2.099 -1.7979  0.6003 -0.6428
   43MOL   H76232766   1.378   5.575   2.669  2.0560 -3.6722 -0.1535
   44MOL     C132767   4.532   0.299   5.700  0.5151 -0.0784  0.5739
   44MOL     C232768   4.610   0.400   5.618  1.6176  0.6530  0.4812
   44MOL     C332769   4.684   0.499   5.707 -0.1810 -0.4699  0.5848
   44MOL     C432770   4.732   0.612   5.622  0.2673 -0.7126 -0.4979
   44MOL     C532771   4.584   0.561   5.810 -0.3947  0.6171 -0.1544
   44MOL     C632772   4.516   0.454   5.892  0.1902 -0.0041  0.1697
   44MOL     C732773   4.444   0.357   5.804 -0.5423 -0.5443 -0.3685
   44MOL     C832774   4.365   0.264   5.896 -0.2306  0.8790 -0.7886
   44MOL     O932775   4.445   0.171   5.966 -0.3022 -0.0284  0.8429
   44MOL    C1032776   4.405   0.113   6.090  0.0099  0.4358 -0.4324
   44MOL    O1132777   4.310   0.155   6.161 -0.4225 -0.0723  0.0800
   44MOL    C1232778   4.488   8.023   6.125  0.2951  0.4463  0.4181
   44MOL    C1332779   4.565   7.944   6.031 -0.0451  0.0042 -1.3407
   44MOL    C1432780   4.651   7.842   6.074  0.0041  0.0758 -0.0970
   44MOL    C1532781   4.664   7.808   6.211 -0.7148  0.1285  0.5037
   44MOL    C1632782   4.768   7.706   6.262 -0.0330  0.3261  0.2833
   44MOL    O1732783   4.779   7.678   6.376 -0.2008 -0.1763 -0.1882
   44MOL    O1832784   4.843   7.646   6.167  0.1973  0.1193 -0.2750
   44MOL    C1932785   4.579   7.872   6.304  0.1949  0.0411 -0.3223
   44MOL    C2032786   4.496   7.980   6.264 -0.3523 -0.1590  0.4275
   44MOL    H2132787   4.600   0.224   5.741 -0.8529 -0.5416  2.0904
   44MOL    H2232788   4.470   0.235   5.636 -0.1973 -0.5500  1.7194
   44MOL    H2332789   4.547   0.447   5.543  1.3770  1.1900  1.0112
   44MOL    H2432790   4.678   0.342   5.556 -0.2951 -2.8349  1.5036
   44MOL    H2532791   4.766   0.444   5.753  0.8170 -0.7172 -1.4327
   44MOL    H2632792   4.762   0.689   5.693 -0.7422 -2.1106  1.4845
   44MOL    H2732793   4.653   0.650   5.556 -0.6426  0.5347  1.2636
   44MOL    H2832794   4.515   0.628   5.759 -1.2988  0.3320  0.6856
   44MOL    H2932795   4.633   0.628   5.881  2.4238 -0.5897 -0.8968
   44MOL    H3032796   4.582   0.412   5.967 -0.5453 -2.2545 -0.4009
   44MOL    H3132797   4.440   0.505   5.952 -1.7248 -2.9979  0.3898
   44MOL    H3232798   4.362   0.415   5.759 -2.9979 -1.9606  2.1564
   44MOL    H3332799   4.294   0.208   5.834  0.9294 -1.4810 -0.0388
   44MOL    H3432800   4.297   0.318   5.962  0.1292  0.3693  0.0056
   44MOL    H3532801   4.575   7.969   5.926  0.7510 -2.1968 -1.8178
   44MOL    H3632802   4.713   7.791   6.002 -1.3510 -0.8678 -0.6118
   44MOL    H3732803   4.582   7.822   6.399 -1.0790  0.6592  0.0557
   44MOL    H3832804   4.428   8.025   6.335 -1.6693 -0.2813 -0.7095
   44MOL    H3932805   4.818   0.589   5.559 -1.5810  1.1738 -3.8707
   44MOL    C4032806   5.014   7.193   6.043  0.1762  0.3745 -1.1165
   44MOL    C4132807   4.985   7.299   6.149 -0.7241  0.2230  0.0424
   44MOL    C4232808   4.928   7.428   6.093 -0.3805 -0.9641  0.4384
   44MOL    C4332809   4.934   7.540   6.201 -0.0705 -0.0334 -0.1626
   44MOL    C4432810   4.999   7.484   5.960  0.1530 -0.5601 -0.5507
   44MOL    C4532811   5.061   7.382   5.870  0.2799  0.7089  0.4304
   44MOL    C4632812   5.117   7.252   5.946 -0.1445 -0.7776  0.1294
   44MOL    C4732813   5.177   7.132   5.852 -0.7040  0.0558  0.0496
   44MOL    O4832814   5.211   7.017   5.928  0.0047 -0.1122 -0.1195
   44MOL    C4932815   5.272   6.918   5.872  0.0370  0.4394 -0.8401
   44MOL    O5032816   5.306   6.914   5.752  0.1812  0.4301 -0.0654
   44MOL    C5132817   5.287   6.807   5.965 -0.1028  0.2918  0.3081
   44MOL    C5232818   5.298   6.821   6.103 -0.0553 -0.4435  0.2708
   44MOL    C5332819   5.302   6.708   6.184 -0.2881 -0.4536 -0.5541
   44MOL    C5432820   5.293   6.578   6.133 -0.8211 -0.1058  0.2238
   44MOL    C5532821   5.279   6.450   6.207 -0.0697  0.3733  0.2412
   44MOL    O5632822   5.278   6.334   6.158 -0.8392 -0.3592 -0.8940
   44MOL    O5732823   5.248   6.476   6.330 -0.1760  0.4920  0.2882
   44MOL    C5832824   5.292   6.562   5.995  0.3319  0.3873 -0.6097
   44MOL    C5932825   5.295   6.675   5.913 -0.0484 -0.9078 -0.3610
   44MOL    H6032826   4.915   7.159   6.012 -0.8421  1.9568  0.2983
   44MOL    H6132827   5.066   7.107   6.085 -0.9356  1.2352  2.2197
   44MOL    H6232828   5.077   7.311   6.206 -0.0460  0.9970 -1.2087
   44MOL    H6332829   4.922   7.255   6.227  0.4098 -0.6923  0.4702
   44MOL    H6432830   4.829   7.403   6.056  0.4520 -1.4034 -1.5466
   44MOL    H6532831   5.035   7.579   6.209  0.0855 -0.0693 -1.9455
   44MOL    H6632832   4.908   7.495   6.297  0.1989  0.3137  0.0763
   44MOL    H6732833   5.077   7.555   5.989 -0.1621 -0.0451 -0.9386
   44MOL    H6832834   4.919   7.538   5.909 -0.0553 -0.7564 -0.4293
   44MOL    H6932835   5.000   7.369   5.781  0.9421  1.6957 -0.1704
   44MOL    H7032836   5.152   7.419   5.823  0.6570  0.4734  0.9718
   44MOL    H7132837   5.208   7.269   6.002 -0.0573 -1.2732  0.1377
   44MOL    H7232838   5.270   7.162   5.803  0.6172 -3.0043  0.5133
   44MOL    H7332839   5.102   7.107   5.777 -0.7991  1.3886 -0.3121
   44MOL    H7432840   5.293   6.915   6.156 -0.6084  0.5520 -1.5091
   44MOL    H7532841   5.292   6.727   6.289 -1.9038  3.4163 -1.3368
   44MOL    H7632842   5.288   6.462   5.956 -1.9673  0.9521 -1.9043
   44MOL    H7732843   5.291   6.653   5.807  0.9844 -1.1302 -0.3635
   44MOL    C7832844   5.531   6.484   6.664  0.1164 -0.1527 -0.2234
   44MOL    C7932845   5.419   6.508   6.562 -0.0972  0.6171 -0.0352
   44MOL    C8032846   5.365   6.370   6.512  0.2798 -0.1994 -0.9408
   44MOL    C8132847   5.233   6.376   6.435 -0.0657 -0.5213  0.1777
   44MOL    C8232848   5.479   6.285   6.451  0.3844  0.1482 -0.3866
   44MOL    C8332849   5.600   6.260   6.550  0.0250 -0.9953 -0.0906
   44MOL    C8432850   5.643   6.399   6.607 -0.7805  0.3201  0.3208
   44MOL    C8532851   5.737   6.379   6.730 -0.2372  0.2086  0.0074
   44MOL    O8632852   5.798   6.500   6.767  0.2600  0.3370  0.2126
   44MOL    C8732853   5.882   6.512   6.873 -0.1705 -0.2928  0.5169
   44MOL    O8832854   5.907   6.414   6.942  0.1822 -0.1050 -0.0139
   44MOL    C8932855   5.915   6.658   6.895 -0.1433  0.6631 -0.1575
   44MOL    C9032856   5.973   6.701   7.017  0.7340  0.4213 -0.1191
   44MOL    C9132857   5.978   6.839   7.047  0.1292 -0.0758  0.0558
   44MOL    C9232858   5.944   6.936   6.948 -0.2331 -0.3024 -0.1533
   44MOL    C9332859   5.948   7.082   6.978  0.3839 -0.4888  0.3490
   44MOL    O9432860   5.975   7.128   7.090  0.0482  0.2188  0.1501
   44MOL    O9532861   5.905   7.156   6.863  0.2407 -0.1174  0.4180
   44MOL    C9632862   5.896   6.891   6.823 -0.8005  0.0874 -0.1297
   44MOL    C9732863   5.884   6.756   6.795  0.4943 -0.3607 -1.3092
   44MOL    H9832864   5.492   6.447   6.759  0.3049 -2.0252 -0.8394
   44MOL    H9932865   5.577   6.579   6.691 -0.6315  0.1464  0.0075
   44MOL   H10032866   5.466   6.559   6.477 -0.1412  1.7467  0.6185
   44MOL   H10132867   5.342   6.572   6.602 -1.2142 -0.2519 -0.7470
   44MOL   H10232868   5.336   6.317   6.602  1.6508  2.7433  1.3142
   44MOL   H10332869   5.161   6.419   6.504 -1.2458  0.1181 -1.4191
   44MOL   H10432870   5.202   6.274   6.416 -0.9875 -0.7686  2.8805
   44MOL   H10532871   5.513   6.338   6.362  2.0996 -1.3335 -0.6459
   44MOL   H10632872   5.439   6.191   6.413 -3.0151  0.4119  2.2820
   44MOL   H10732873   5.558   6.198   6.629 -1.6450 -0.4097 -0.4911
   44MOL   H10832874   5.673   6.196   6.500 -0.1476  0.8758 -2.8316
   44MOL   H10932875   5.707   6.443   6.531 -2.8900  1.7979 -0.6292
   44MOL   H11032876   5.812   6.308   6.694  0.1629 -0.6312  2.4403
   44MOL   H11132877   5.685   6.326   6.809  0.6973  0.0476  0.5143
   44MOL   H11232878   6.015   6.631   7.087  0.3263  0.1871 -0.1071
   44MOL   H11332879   6.024   6.877   7.137 -0.1369 -0.3301  0.2994
   44MOL   H11432880   5.876   6.966   6.749 -0.5288 -1.2783 -1.6023
   44MOL   H11532881   5.844   6.720   6.701 -2.7397 -0.0774 -0.1071
   44MOL   C11632882   5.569   7.368   6.699  0.4770 -0.0741 -0.4074
   44MOL   C11732883   5.660   7.305   6.802  0.1535 -0.0151 -0.0973
   44MOL   C11832884   5.805   7.363   6.787  0.7759  0.0273  0.3257
   44MOL   C11932885   5.904   7.296   6.881  0.8801 -0.5409  0.1289
   44MOL   C12032886   5.860   7.356   6.641 -0.3981  0.2462 -1.1415
   44MOL   C12132887   5.768   7.418   6.540 -0.1258  0.4806  0.4791
   44MOL   C12232888   5.627   7.358   6.557  0.5116  0.0940 -0.0860
   44MOL   C12332889   5.533   7.413   6.455 -0.2449  0.5609  0.1084
   44MOL   O12432890   5.514   7.555   6.481  0.4748 -0.3103 -0.8063
   44MOL   C12532891   5.423   7.622   6.409  0.7830 -0.0115 -0.0449
   44MOL   O12632892   5.352   7.558   6.324  0.2457  0.0801  0.7339
   44MOL   C12732893   5.413   7.770   6.447  0.0767 -0.0407 -0.0432
   44MOL   C12832894   5.511   7.830   6.536  0.0099  0.7636  0.6012
   44MOL   C12932895   5.499   7.968   6.565 -0.9283  0.0220 -0.2251
   44MOL   C13032896   5.386   0.012   6.521 -0.5720  0.0273 -0.6617
   44MOL   C13132897   5.382   0.161   6.551  0.2127  0.2191  0.1195
   44MOL   O13232898   5.290   0.228   6.521  0.3575  0.1743 -0.3891
   44MOL   O13332899   5.490   0.206   6.627  0.5574  0.2582  0.6843
   44MOL   C13432900   5.284   7.978   6.450 -0.3354 -0.6181  0.4814
   44MOL   C13532901   5.299   7.846   6.411  0.2224  0.2372 -0.2417
   44MOL   H13632902   5.553   7.474   6.722 -0.4429 -0.1142 -0.8409
   44MOL   H13732903   5.470   7.324   6.703  0.1489  0.6092 -0.8117
   44MOL   H13832904   5.655   7.196   6.802  2.7479 -0.1808  0.6599
   44MOL   H13932905   5.630   7.323   6.906 -1.4333  1.2096 -0.7455
   44MOL   H14032906   5.795   7.465   6.824 -0.3541 -0.9445  2.7933
   44MOL   H14132907   5.879   7.321   6.984  3.3804  3.9553 -0.2244
   44MOL   H14232908   6.004   7.338   6.871  0.6673  0.2175  1.1275
   44MOL   H14332909   5.868   7.251   6.613 -3.6324  0.3492 -2.6513
   44MOL   H14432910   5.960   7.393   6.623 -0.8822  0.9603 -2.4531
   44MOL   H14532911   5.760   7.522   6.570  0.4364  0.1405  1.8534
   44MOL   H14632912   5.798   7.415   6.435  0.5593  2.5877  0.6005
   44MOL   H14732913   5.635   7.251   6.538  2.2252  0.3106 -0.6721
   44MOL   H14832914   5.438   7.359   6.461  0.0376 -0.2230 -2.0643
   44MOL   H14932915   5.575   7.404   6.355  0.5816 -0.1326  0.5131
   44MOL   H15032916   5.594   7.776   6.577  0.0035 -0.0910 -0.5113
   44MOL   H15132917   5.574   8.012   6.629 -0.3631  0.0969 -0.9353
   44MOL   H15232918   5.193   8.024   6.415  0.1585 -0.5387 -0.7178
   44MOL   H15332919   5.231   7.807   6.337 -2.6584  1.2128  1.8074
   44MOL   C15432920   5.699   0.363   6.993 -0.1599 -0.3796 -0.5852
   44MOL   C15532921   5.605   0.313   6.891  0.1962 -0.0139  0.4643
   44MOL   C15632922   5.619   0.371   6.752 -0.9057 -0.4311  0.1728
   44MOL   C15732923   5.493   0.339   6.674  1.1737  0.9109 -0.3920
   44MOL   C15832924   5.644   0.520   6.752  0.1999 -0.3811 -0.1359
   44MOL   C15932925   5.747   0.561   6.856 -0.2050 -0.2258  0.6481
   44MOL   C16032926   5.709   0.520   6.997  0.1908  0.3649 -0.8006
   44MOL   C16132927   5.809   0.573   7.099 -0.8812  0.8399  0.4840
   44MOL   O16232928   5.764   0.552   7.233 -0.3019 -0.3852 -0.1630
   44MOL   C16332929   5.853   0.583   7.338 -0.0566  0.1679 -0.4469
   44MOL   O16432930   5.951   0.657   7.324  0.2628 -0.1297 -0.3131
   44MOL   C16532931   5.801   0.545   7.469 -0.1828  0.4409 -0.5560
   44MOL   C16632932   5.698   0.443   7.478  0.0890 -0.3655  0.3160
   44MOL   C16732933   5.642   0.400   7.600  0.4094 -0.3484  0.4320
   44MOL   C16832934   5.698   0.453   7.716 -0.7193 -0.5793  0.3465
   44MOL   C16932935   5.647   0.400   7.847 -0.7028  0.3310  0.4141
   44MOL   O17032936   5.710   0.416   7.950  0.2549 -0.4285 -0.4317
   44MOL   O17132937   5.534   0.333   7.833  0.5692 -0.1039 -0.8901
   44MOL   C17232938   5.806   0.545   7.713  0.1868  0.1217 -0.0250
   44MOL   C17332939   5.855   0.595   7.592  0.3656  0.2348 -0.6260
   44MOL   H17432940   5.798   0.328   6.965 -0.3335 -0.0793 -1.5630
   44MOL   H17532941   5.685   0.322   7.094  1.2252  0.5376 -0.0082
   44MOL   H17632942   5.505   0.327   6.932 -0.1434  0.7460 -0.6021
   44MOL   H17732943   5.611   0.204   6.886  2.2906  0.1164 -0.5638
   44MOL   H17832944   5.695   0.312   6.701 -0.9619  0.4204 -0.9100
   44MOL   H17932945   5.482   0.410   6.592 -1.7136 -1.6719 -2.3705
   44MOL   H18032946   5.405   0.350   6.737 -0.7751 -1.1714 -2.6186
   44MOL   H18132947   5.550   0.573   6.768  0.9286  1.3890 -1.5740
   44MOL   H18232948   5.666   0.556   6.652 -0.0364 -0.4321 -0.2074
   44MOL   H18332949   5.849   0.531   6.832 -1.0625 -1.8511 -1.1211
   44MOL   H18432950   5.745   0.669   6.844  1.7538 -0.1992  0.4556
   44MOL   H18532951   5.611   0.553   7.030 -0.2622 -1.1312 -0.6021
   44MOL   H18632952   5.823   0.676   7.067  3.1116  0.1005 -0.4490
   44MOL   H18732953   5.907   0.530   7.075 -0.0780  1.9039  1.7744
   44MOL   H18832954   5.660   0.396   7.388  0.3902 -1.6084  0.8400
   44MOL   H18932955   5.567   0.323   7.602  0.0376  0.0114  0.2518
   44MOL   H19032956   5.836   0.591   7.806  1.2691  1.7962 -1.1722
   44MOL   H19132957   5.930   0.673   7.596  2.3211 -1.7004  3.0911
   44MOL   C19232958   5.295   7.999   7.787 -0.1577  0.5516  0.6657
   44MOL   C19332959   5.414   0.062   7.820  0.0966  0.0764  0.4370
   44MOL   C19432960   5.360   0.171   7.914  0.6681 -0.2654  0.2706
   44MOL   C19532961   5.479   0.274   7.948 -0.1765  0.9586  0.1945
   44MOL   C19632962   5.234   0.241   7.851  0.4131  0.1927  0.0536
   44MOL   C19732963   5.129   0.140   7.813 -0.2101  0.2007 -0.0441
   44MOL   C19832964   5.176   0.035   7.718 -0.2900 -0.3263  0.3590
   44MOL   C19932965   5.057   7.969   7.697  0.1181  0.4611  0.4371
   44MOL   O20032966   4.934   0.005   7.663  0.0787  0.1141  0.0248
   44MOL   C20132967   4.904   0.043   7.540 -0.2019 -0.7292 -0.0276
   44MOL   O20232968   4.967   0.027   7.436 -0.4421  0.4875  0.0710
   44MOL   C20332969   4.787   0.131   7.537  0.8140  0.3943 -0.4435
   44MOL   C20432970   4.713   0.159   7.416 -0.0769  0.4227 -0.6024
   44MOL   C20532971   4.598   0.238   7.420  0.1817  0.5097  0.7285
   44MOL   C20632972   4.549   0.294   7.535 -0.0032  0.6578  0.3647
   44MOL   C20732973   4.427   0.376   7.536 -0.3863  0.8532  0.3091
   44MOL   O20832974   4.393   0.440   7.635 -0.0326  0.1342  0.0393
   44MOL   O20932975   4.351   0.377   7.418 -0.2792  0.3497 -0.1187
   44MOL   C21032976   4.611   0.257   7.655 -0.4843  0.6028  0.1026
   44MOL   C21132977   4.728   0.180   7.654 -0.4030  0.2443  0.5764
   44MOL   H21232978   5.268   7.950   7.880  0.4151 -1.0436  0.0141
   44MOL   H21332979   5.327   7.925   7.713  0.9812  1.2059  0.4994
   44MOL   H21432980   5.455   0.102   7.727 -0.2429 -0.7687 -0.0827
   44MOL   H21532981   5.483   8.031   7.877  1.2559  1.4721  0.6146
   44MOL   H21632982   5.324   0.128   8.007  0.0036  0.2844  0.2723
   44MOL   H21732983   5.558   0.229   8.007 -1.0058  0.4914  0.9616
   44MOL   H21832984   5.437   0.352   8.012  1.1368  1.5242  0.3914
   44MOL   H21932985   5.261   0.285   7.755  1.4096 -0.6699 -0.0719
   44MOL   H22032986   5.188   0.311   7.920  2.2692 -1.2325  2.8183
   44MOL   H22132987   5.092   0.092   7.904 -1.8358  1.7671  0.1583
   44MOL   H22232988   5.042   0.191   7.773  0.7113  3.4308  1.8814
   44MOL   H22332989   5.206   0.080   7.623  0.5375 -0.0029  0.7730
   44MOL   H22432990   5.041   7.910   7.787  0.1924  0.6008  0.5421
   44MOL   H22532991   5.075   7.901   7.613 -1.6068  2.4466 -1.5928
   44MOL   H22632992   4.747   0.127   7.319 -0.3653 -0.2650 -0.4798
   44MOL   H22732993   4.542   0.261   7.330  1.5837 -0.6099 -0.4565
   44MOL   H22832994   4.562   0.290   7.745 -2.6769  0.4624 -1.0053
   44MOL   H22932995   4.774   0.157   7.749  1.1292 -1.9924 -0.6582
   44MOL   C23032996   4.026   0.656   7.131  0.6845  0.2340 -0.0112
   44MOL   C23132997   4.079   0.614   7.268 -0.2492 -0.1166 -0.0445
   44MOL   C23232998   4.189   0.502   7.267 -0.4527 -0.1839 -0.3789
   44MOL   C23332999   4.237   0.462   7.409 -0.2491  0.3387 -0.0529
   44MOL   C23433000   4.135   0.382   7.192  0.3517 -0.4281 -0.0556
   44MOL   C23533001   4.118   0.419   7.047 -0.2573  0.1747 -0.1360
   44MOL   C23633002   4.009   0.530   7.035  0.0400 -0.4981  0.1238
   44MOL   C23733003   3.980   0.563   6.891 -0.4028  0.1828  0.6642
   44MOL   O23833004   4.096   0.605   6.818 -0.2812  0.0316 -0.2582
   44MOL   C23933005   4.092   0.666   6.699  0.3597 -0.0415 -0.1172
   44MOL   O24033006   3.985   0.676   6.638  0.3359  0.3629  0.1806
   44MOL   C24133007   4.217   0.726   6.652 -0.1491  0.1506  0.0093
   44MOL   C24233008   4.326   0.737   6.740  1.1728  0.1600 -0.2007
   44MOL   C24333009   4.453   0.776   6.695 -0.2034  0.6005  0.3696
   44MOL   C24433010   4.471   0.804   6.560 -0.3140 -0.4466 -0.7843
   44MOL   C24533011   4.605   0.840   6.509  1.0220  0.5147  0.3178
   44MOL   O24633012   4.615   0.899   6.402 -0.4605  0.2426 -0.7177
   44MOL   O24733013   4.707   0.802   6.585 -0.4109 -0.5409  0.1376
   44MOL   C24833014   4.362   0.794   6.471  0.4622  0.0706 -0.3118
   44MOL   C24933015   4.236   0.753   6.517  0.4611 -0.1569 -0.2367
   44MOL   H25033016   4.096   0.725   7.084  0.4752 -0.7861 -1.8663
   44MOL   H25133017   3.940   0.722   7.132 -0.0480 -0.7016  2.6386
   44MOL   H25233018   4.000   0.561   7.320  1.6156 -1.7432  1.1902
   44MOL   H25333019   4.114   0.700   7.325  1.2341  1.6402 -3.4344
   44MOL   H25433020   4.268   0.548   7.207  1.3726 -1.9515  0.6231
   44MOL   H25533021   4.154   0.425   7.469  0.9129 -0.4881  1.0597
   44MOL   H25633022   4.254   0.563   7.446  1.6120 -0.0527  0.2010
   44MOL   H25733023   4.042   0.346   7.235  0.1834  0.1974  0.1082
   44MOL   H25833024   4.200   0.295   7.199  1.2512  0.4131  2.7696
   44MOL   H25933025   4.210   0.455   7.001 -0.3910 -0.9196 -1.2593
   44MOL   H26033026   4.075   0.335   6.993  0.3295 -0.3791  0.2552
   44MOL   H26133027   3.919   0.482   7.074 -0.3252 -0.9829 -1.2672
   44MOL   H26233028   3.904   0.640   6.882 -1.1097 -0.6678 -0.6939
   44MOL   H26333029   3.934   0.476   6.844 -2.1678  1.7067 -0.4944
   44MOL   H26433030   4.309   0.724   6.846 -0.5161  1.6965 -0.2442
   44MOL   H26533031   4.535   0.796   6.762 -0.8664  2.5792  0.6309
   44MOL   H26633032   4.381   0.836   6.373  1.8047  0.9047  0.2888
   44MOL   H26733033   4.150   0.753   6.453  0.3511  1.5799 -0.1303
   44MOL   C26833034   5.047   0.528   6.708 -0.3541 -0.2164  0.4142
   44MOL   C26933035   4.928   0.586   6.627  0.4974  0.2201 -0.2866
   44MOL   C27033036   4.957   0.741   6.611 -0.3177  0.1545  0.3758
   44MOL   C27133037   4.844   0.812   6.532  0.6250  0.4916  0.2995
   44MOL   C27233038   4.968   0.806   6.746 -0.3305 -0.4535 -0.2804
   44MOL   C27333039   5.076   0.734   6.836  0.5272  0.1731 -0.0475
   44MOL   C27433040   5.045   0.587   6.852 -0.3642 -0.3926 -0.6157
   44MOL   C27533041   5.147   0.526   6.954  0.0225 -0.1222  0.7024
   44MOL   O27633042   5.100   0.552   7.088 -0.6506 -0.0886  0.5293
   44MOL   C27733043   5.104   0.453   7.178  0.2349  0.3209  0.1962
   44MOL   O27833044   5.165   0.350   7.166 -0.2736  0.5036  0.3597
   44MOL   C27933045   5.029   0.494   7.299  0.2745  0.4595 -0.3235
   44MOL   C28033046   4.991   0.628   7.326 -0.8544  0.2881  0.0299
   44MOL   C28133047   4.924   0.660   7.444  0.2166  0.2413 -0.4432
   44MOL   C28233048   4.904   0.567   7.551  0.5149 -1.1896  0.2050
   44MOL   C28333049   4.859   0.617   7.682  0.3030  0.0168 -0.2354
   44MOL   O28433050   4.832   0.739   7.695 -0.1954  0.5606  0.5882
   44MOL   O28533051   4.842   0.522   7.780 -0.1089 -0.3168 -0.2713
   44MOL   C28633052   4.939   0.433   7.526  0.5228  0.0055  0.2852
   44MOL   C28733053   4.995   0.398   7.398  0.0012 -0.3083  0.2859
   44MOL   H28833054   5.142   0.537   6.655 -0.2715 -1.0461  0.4079
   44MOL   H28933055   5.027   0.421   6.717 -0.3611 -0.2122  0.4478
   44MOL   H29033056   4.838   0.553   6.678  1.3484  0.1136  1.1578
   44MOL   H29133057   4.928   0.537   6.530 -0.6728 -0.7400  0.1951
   44MOL   H29233058   5.052   0.764   6.563 -1.5643 -0.0908 -2.2557
   44MOL   H29333059   4.859   0.787   6.427  0.8239  1.7590  0.0212
   44MOL   H29433060   4.857   0.920   6.533 -2.2672  0.8905  0.8058
   44MOL   H29533061   4.882   0.816   6.812  1.4063  0.5175  1.9005
   44MOL   H29633062   4.990   0.913   6.742 -0.3035 -0.5001 -1.4734
   44MOL   H29733063   5.177   0.734   6.795  1.0014 -0.8152  1.1205
   44MOL   H29833064   5.085   0.794   6.926  2.6591 -0.1283 -0.0202
   44MOL   H29933065   4.945   0.573   6.892 -0.2063  0.3942  0.0618
   44MOL   H30033066   5.249   0.559   6.931 -0.5304  0.2519 -1.3149
   44MOL   H30133067   5.152   0.418   6.937 -0.9609  0.0610 -0.8646
   44MOL   H30233068   5.017   0.711   7.262 -0.2369 -1.0417 -1.4664
   44MOL   H30333069   4.912   0.764   7.472  1.2888 -0.2014  1.8106
   44MOL   H30433070   4.942   0.358   7.603  2.3207 -0.9988 -0.7174
   44MOL   H30533071   5.013   0.293   7.380 -0.1294 -0.4073  0.7147
   44MOL   C30633072   5.024   0.409   0.136 -0.1886 -0.7142  0.5214
   44MOL   C30733073   4.979   0.489   0.010  0.0441  0.4750  0.6327
   44MOL   C30833074   4.823   0.490   8.023 -0.4188  0.5038 -0.2506
   44MOL   C30933075   4.778   0.570   7.899 -0.2290  0.1205  0.1454
   44MOL   C31033076   4.767   0.343   8.014 -0.4469 -0.2372 -0.3883
   44MOL   C31133077   4.821   0.261   0.110 -0.5730 -0.0778 -0.1344
   44MOL   C31233078   4.973   0.269   0.126 -0.5495 -0.3276  0.4431
   44MOL   C31333079   5.017   0.191   0.253 -0.5604  0.3258  0.4872
   44MOL   O31433080   5.163   0.165   0.247 -0.6114  0.0835 -0.1937
   44MOL   C31533081   5.201   0.040   0.202 -0.2692  0.3477 -0.3649
   44MOL   O31633082   5.122   7.975   0.184  0.5786 -0.8040  0.1519
   44MOL   C31733083   5.345   0.012   0.188  0.0690  0.3316  0.2151
   44MOL   C31833084   5.385   7.916   0.141 -0.4787  0.7692  0.5345
   44MOL   C31933085   5.519   7.892   0.096 -0.5904  0.1176 -0.0528
   44MOL   C32033086   5.616   7.986   0.117 -0.0758 -0.4261 -0.2052
   44MOL   C32133087   5.759   7.954   0.073 -0.3375 -0.0272  0.2802
   44MOL   O32233088   5.795   7.840   0.046 -0.0872  0.0703 -0.2123
   44MOL   O32333089   5.832   0.028   0.052 -0.4806  0.9228  0.8101
   44MOL   C32433090   5.579   0.077   0.180  0.1663  0.2526  0.3140
   44MOL   C32533091   5.445   0.111   0.216 -0.5506 -0.1798 -0.6931
   44MOL   H32633092   4.967   0.458   0.214 -2.7523 -1.0564 -1.0850
   44MOL   H32733093   5.131   0.418   0.154 -0.4491 -1.2441  2.4580
   44MOL   H32833094   5.028   0.452   7.952 -0.5251  1.4012 -0.0545
   44MOL   H32933095   5.019   0.587   0.035  1.5000 -0.2230  1.1015
   44MOL   H33033096   4.765   0.529   0.074 -0.5764  0.6011 -0.4057
   44MOL   H33133097   4.799   0.674   7.921  0.4212 -0.5047  2.6803
   44MOL   H33233098   4.670   0.564   7.891 -0.2307  0.0445  0.2107
   44MOL   H33333099   4.808   0.296   7.924 -2.5452 -0.7882 -1.0731
   44MOL   H33433100   4.659   0.336   8.012 -0.4170 -0.9755  0.1476
   44MOL   H33533101   4.776   0.307   0.197  1.1382 -0.0843  0.7728
   44MOL   H33633102   4.786   0.157   0.106 -1.9953  0.4070 -0.5389
   44MOL   H33733103   5.021   0.222   0.041  0.9791  1.6326  0.1690
   44MOL   H33833104   4.958   0.099   0.252 -0.0046 -0.0625  2.5659
   44MOL   H33933105   5.000   0.251   0.342 -2.0993  0.7964 -0.1032
   44MOL   H34033106   5.317   7.836   0.116  0.9285 -0.6322  1.0553
   44MOL   H34133107   5.545   7.796   0.054 -0.5321 -0.5076  1.3819
   44MOL   H34233108   5.652   0.157   0.189  1.1659 -0.4773 -1.0215
   44MOL   H34333109   5.426   0.204   0.266  0.9869 -0.0137 -0.3901
   44MOL   C34433110   5.911   0.174   7.668 -0.1438 -0.1944  0.0227
   44MOL   C34533111   5.891   0.073   7.789  1.0412 -0.2148 -0.7369
   44MOL   C34633112   5.962   0.133   7.913  0.4495  0.0278  0.0212
   44MOL   C34733113   5.964   0.027   8.024  0.1436  0.3773 -0.5552
   44MOL   C34833114   6.112   0.166   7.879 -0.1514  1.0853 -0.2007
   44MOL   C34933115   6.130   0.261   7.767  0.0365  0.2637  0.2523
   44MOL   C35033116   6.062   0.209   7.642 -0.5800 -0.1523 -0.0224
   44MOL   C35133117   6.071   0.316   7.536  0.0231  0.1649  0.6468
   44MOL   O35233118   6.021   0.257   7.415  0.3812 -0.4357 -0.0693
   44MOL   C35333119   6.099   0.255   7.308  0.3254  0.2773 -0.6322
   44MOL   O35433120   6.214   0.304   7.307  0.4370  0.3231 -0.4940
   44MOL   C35533121   6.029   0.196   7.188  0.3605 -0.0041 -0.8650
   44MOL   C35633122   5.910   0.121   7.196  0.9798  0.0142 -0.7627
   44MOL   C35733123   5.851   0.052   7.080  0.9078  0.5417  0.3070
   44MOL   C35833124   5.916   0.053   6.960 -0.1267 -0.7462 -0.2203
   44MOL   C35933125   5.851   8.016   6.846  0.0844  0.0363  0.1153
   44MOL   O36033126   5.762   7.932   6.856  0.2093  0.3831  0.4256
   44MOL   O36133127   5.900   0.019   6.724 -0.0169  0.3712 -0.4099
   44MOL   C36233128   6.035   0.129   6.944  0.2264  0.5633 -0.0044
   44MOL   C36333129   6.094   0.195   7.055  0.1821  0.7945  0.1591
   44MOL   H36433130   5.848   0.263   7.673 -0.0297 -0.1632  1.0446
   44MOL   H36533131   5.879   0.126   7.576 -2.5684 -1.5516  1.5103
   44MOL   H36633132   5.934   8.009   7.762  0.6403  0.1003 -2.5636
   44MOL   H36733133   5.787   0.060   7.816  0.0560  1.7001 -3.3772
   44MOL   H36833134   5.913   0.223   7.950 -0.9175 -1.9384  3.2328
   44MOL   H36933135   6.032   0.061   0.070 -0.9887  1.2065  0.0966
   44MOL   H37033136   5.993   7.961   7.987 -0.9600 -0.2783  0.2387
   44MOL   H37133137   6.166   0.076   7.850 -0.1190  0.3290  2.0968
   44MOL   H37233138   6.175   0.192   7.964 -0.3460 -0.0099  0.2822
   44MOL   H37333139   6.091   0.359   7.795  0.1086  0.3970 -0.1061
   44MOL   H37433140   6.234   0.269   7.735 -0.8641  1.8856 -2.4563
   44MOL   H37533141   6.110   0.118   7.605 -2.5283 -1.3499  0.2623
   44MOL   H37633142   6.176   0.342   7.528  0.3426 -0.9436  1.1489
   44MOL   H37733143   6.021   0.409   7.563  1.9107  1.8773 -1.5251
   44MOL   H37833144   5.858   0.106   7.289  2.6919  2.4180  0.6327
   44MOL   H37933145   5.759   8.028   7.078  1.2757 -0.0339 -0.9509
   44MOL   H38033146   6.080   0.132   6.846 -0.1769 -0.4885 -0.2363
   44MOL   H38133147   6.188   0.245   7.038 -0.0438  1.2107  0.1262
   44MOL   C38233148   6.038   7.742   6.371 -0.0201  0.3924  0.4138
   44MOL   C38333149   5.918   7.822   6.429 -0.2751 -0.9894 -0.2434
   44MOL   C38433150   5.958   7.898   6.554  0.3429  0.0172 -1.0895
   44MOL   C38533151   5.847   7.990   6.609  0.0988  0.0081 -0.8421
   44MOL   C38633152   6.020   7.800   6.659  0.0078 -0.0834  0.0636
   44MOL   C38733153   6.132   7.720   6.597  0.3233 -0.2607  0.5626
   44MOL   C38833154   6.102   7.643   6.466  0.5523  0.5567  0.2182
   44MOL   C38933155   6.221   7.569   6.413 -0.0881  0.2825 -0.0264
   44MOL   O39033156   6.248   7.457   6.494  0.3788 -0.0875 -0.4123
   44MOL   C39133157   6.181   7.344   6.475 -0.1128  0.5464  0.3728
   44MOL   O39233158   6.104   7.325   6.383 -0.4622 -0.2371  0.1233
   44MOL   C39333159   6.213   7.242   6.580  0.1536  0.1625  0.1795
   44MOL   C39433160   6.264   7.279   6.706 -0.1427 -0.3238  0.0133
   44MOL   C39533161   6.305   7.177   6.795  1.0634 -0.9655 -0.2428
   44MOL   C39633162   6.281   7.043   6.761 -0.4227 -0.2293  0.2029
   44MOL   C39733163   6.322   6.935   6.858  0.6871  0.3767  0.5257
   44MOL   O39833164   6.386   6.963   6.959 -0.1477 -0.2738 -0.0229
   44MOL   O39933165   6.273   6.813   6.828 -0.0697  0.2574  0.3124
   44MOL   C40033166   6.218   7.009   6.638  0.5495  0.4990 -0.0947
   44MOL   C40133167   6.186   7.109   6.547 -0.0075  0.3957  0.6028
   44MOL   H40233168   6.106   7.809   6.318 -1.4861  1.7003  0.1231
   44MOL   H40333169   6.004   7.677   6.291  0.9180 -0.4903  0.7273
   44MOL   H40433170   5.835   7.753   6.443 -3.3881  2.2351 -2.1713
   44MOL   H40533171   5.878   7.896   6.360 -1.9881 -0.9530  0.7611
   44MOL   H40633172   6.033   7.973   6.529  0.1946 -0.1361 -1.9780
   44MOL   H40733173   5.757   7.929   6.618  1.3361 -1.5373  1.5999
   44MOL   H40833174   5.826   0.035   6.535  0.1523  1.7163  0.8563
   44MOL   H40933175   5.939   7.737   6.697 -1.3554  1.3447 -0.3961
   44MOL   H41033176   6.059   7.857   6.744  0.2224  0.3916 -0.3556
   44MOL   H41133177   6.208   7.788   6.561  1.3646 -0.7106  1.8950
   44MOL   H41233178   6.185   7.654   6.666  2.4847  1.5318  0.6615
   44MOL   H41333179   6.020   7.573   6.487 -0.3898  1.5217 -0.1732
   44MOL   H41433180   6.310   7.630   6.431 -0.5185  0.8127  0.3224
   44MOL   H41533181   6.213   7.544   6.307 -1.2583  1.3852 -0.2111
   44MOL   H41633182   6.275   7.382   6.738 -0.1366  0.2888 -1.9390
   44MOL   H41733183   6.347   7.213   6.888  4.3942 -0.2767 -1.9132
   44MOL   H41833184   6.177   6.910   6.621  0.5355  0.5654 -0.4446
   44MOL   H41933185   6.130   7.083   6.458 -1.5866  0.4935  1.5455
   44MOL   C42033186   6.441   6.495   6.577  0.5755  0.3277  0.6523
   44MOL   C42133187   6.431   6.612   6.669 -1.0330  0.3798 -0.6256
   44MOL   C42233188   6.345   6.574   6.788 -0.8328 -0.5925  0.2915
   44MOL   C42333189   6.318   6.691   6.883  0.5519  0.6804 -0.2663
   44MOL   C42433190   6.208   6.527   6.739 -0.6461  0.0789  0.0759
   44MOL   C42533191   6.214   6.413   6.638 -0.8143 -0.4977  0.2483
   44MOL   C42633192   6.304   6.464   6.522 -0.1514  0.0791  0.2482
   44MOL   C42733193   6.318   6.361   6.408  0.1390 -0.3007  0.1406
   44MOL   O42833194   6.366   6.237   6.445  0.0527 -0.1992  0.1357
   44MOL   C42933195   6.443   6.171   6.366  0.7481  0.2730 -0.1602
   44MOL   O43033196   6.448   6.197   6.244  0.5548  0.0646 -0.4497
   44MOL   C43133197   6.498   6.046   6.426 -0.4987 -0.4539  0.2039
   44MOL   C43233198   6.563   5.946   6.343 -0.0863 -0.4433 -0.2598
   44MOL   C43333199   6.614   5.826   6.404 -0.0567  0.0289 -0.4535
   44MOL   C43433200   6.601   5.812   6.545  0.1322 -0.0451  0.6377
   44MOL   C43533201   6.663   5.691   6.602  0.3096 -0.9049  0.8264
   44MOL   O43633202   6.664   5.662   6.724 -0.4479  0.6797 -0.4373
   44MOL   O43733203   6.725   5.610   6.505  0.0577  0.4578 -0.5079
   44MOL   C43833204   6.544   5.912   6.623  1.2230 -0.1629 -0.8969
   44MOL   C43933205   6.487   6.026   6.567  0.4798 -0.1460  0.4376
   44MOL   H44033206   6.486   6.407   6.622 -1.3741  0.0044  2.0617
   44MOL   H44133207   6.507   6.531   6.499 -1.6225  0.9738 -0.9521
   44MOL   H44233208   6.399   6.700   6.614  0.2680  0.8982 -0.5655
   44MOL   H44333209   6.529   6.634   6.710 -1.0267 -0.7111 -0.0283
   44MOL   H44433210   6.394   6.489   6.836  0.8410 -0.9992 -2.0145
   44MOL   H44533211   6.413   6.710   6.933  2.1743 -0.8663 -2.6128
   44MOL   H44633212   6.244   6.649   6.951  1.3617 -2.8652 -1.4895
   44MOL   H44733213   6.149   6.608   6.696  1.2724  0.9875 -0.9036
   44MOL   H44833214   6.161   6.501   6.834  0.3410 -1.3864  0.1764
   44MOL   H44933215   6.243   6.317   6.680 -0.2202  0.3811  1.8895
   44MOL   H45033216   6.111   6.400   6.607 -1.2027  0.6776  1.0431
   44MOL   H45133217   6.263   6.555   6.478 -0.0333 -0.6634 -1.4360
   44MOL   H45233218   6.388   6.412   6.342 -0.0341  0.7779  0.7794
   44MOL   H45333219   6.221   6.352   6.358  0.1311  1.8217 -0.2703
   44MOL   H45433220   6.571   5.967   6.238  0.8801 -0.2840 -0.1678
   44MOL   H45533221   6.651   5.753   6.335 -2.3443 -0.1149 -1.5800
   44MOL   H45633222   6.545   5.895   6.729 -1.4753  0.3489 -0.7530
   44MOL   H45733223   6.442   6.093   6.638  1.1161  0.1268  0.5860
   44MOL   C45833224   7.081   5.274   6.462  0.4589  0.1651 -0.5287
   44MOL   C45933225   6.968   5.341   6.540  0.1986 -0.2638  0.8726
   44MOL   C46033226   6.910   5.455   6.459 -0.1962 -0.5317 -0.2844
   44MOL   C46133227   6.808   5.510   6.556  0.1694  0.1500 -0.2126
   44MOL   C46233228   7.026   5.551   6.418 -0.4962 -0.6539  0.6272
   44MOL   C46333229   7.136   5.481   6.331 -0.3673 -0.4290 -0.8055
   44MOL   C46433230   7.195   5.365   6.405  0.6034  0.1321  0.0663
   44MOL   C46533231   7.299   5.277   6.326 -0.1322  0.2417  0.3672
   44MOL   O46633232   7.401   5.363   6.276 -0.8165 -0.8652 -0.1898
   44MOL   C46733233   7.513   5.310   6.209 -0.3466 -0.2735 -1.1379
   44MOL   O46833234   7.548   5.195   6.199 -0.1040 -0.0455 -0.1384
   44MOL   C46933235   7.602   5.427   6.163 -0.2191 -0.3284  0.2461
   44MOL   C47033236   7.568   5.555   6.206 -0.3856  0.4249  0.2877
   44MOL   C47133237   7.631   5.668   6.150  0.2601  0.1749 -0.8987
   44MOL   C47233238   7.735   5.654   6.061 -0.1622 -0.4613  0.1101
   44MOL   C47333239   7.822   5.769   6.019 -0.1755  1.0240  0.1588
   44MOL   O47433240   7.893   5.769   5.919  0.2421  0.5443 -0.1530
   44MOL   O47533241   7.817   5.879   6.095 -0.2496 -0.0211 -0.6044
   44MOL   C47633242   7.770   5.525   6.014  0.3582  0.7822  0.2133
   44MOL   C47733243   7.704   5.411   6.068  0.1636  0.3300  0.7289
   44MOL   H47833244   7.036   5.206   6.389 -1.0747  1.5977 -0.9674
   44MOL   H47933245   7.122   5.208   6.538  1.2111  0.8110 -0.3749
   44MOL   H48033246   7.019   5.378   6.629 -1.6622  0.6092  1.6150
   44MOL   H48133247   6.893   5.270   6.576  0.9108 -2.1344 -1.2149
   44MOL   H48233248   6.849   5.422   6.374 -1.2019 -0.8128  0.5362
   44MOL   H48333249   6.861   5.549   6.643 -0.1987  0.4245 -0.1123
   44MOL   H48433250   6.736   5.430   6.575  1.2535 -0.6564  0.6235
   44MOL   H48533251   7.068   5.590   6.511 -0.7284 -2.0007  1.3039
   44MOL   H48633252   6.978   5.628   6.357  0.3357 -1.0455 -0.5366
   44MOL   H48733253   7.090   5.446   6.238 -1.1158  0.4280 -0.7635
   44MOL   H48833254   7.214   5.554   6.308 -0.1761 -0.3106  0.2164
   44MOL   H48933255   7.263   5.400   6.482  0.5597 -2.7801  1.4898
   44MOL   H49033256   7.265   5.216   6.242 -0.0939  0.5849  0.1021
   44MOL   H49133257   7.346   5.210   6.399 -3.3547 -1.0389  1.3570
   44MOL   H49233258   7.492   5.571   6.282  0.7542  1.9694  1.1170
   44MOL   H49333259   7.594   5.766   6.177  1.1540 -0.3354  2.4529
   44MOL   H49433260   7.859   5.509   5.955 -0.0345  0.9000 -0.4131
   44MOL   H49533261   7.751   5.315   6.050 -1.3753 -0.4878  0.9926
   44MOL   C49633262   7.655   6.226   5.840 -0.0774 -0.8216  0.1395
   44MOL   C49733263   7.714   6.101   5.906 -0.9681  0.6861 -0.2160
   44MOL   C49833264   7.799   6.112   6.039 -0.4868  0.2524 -0.3565
   44MOL   C49933265   7.887   5.990   6.060 -0.0637 -0.0031 -0.6802
   44MOL   C50033266   7.872   6.249   6.039 -0.5348 -0.4563 -0.1350
   44MOL   C50133267   7.778   6.368   6.013  0.3048 -0.4726  0.0310
   44MOL   C50233268   7.734   6.357   5.867  0.1600  0.5299 -0.3047
   44MOL   C50333269   7.659   6.482   5.813  0.1651 -0.0858 -0.0180
   44MOL   O50433270   7.751   6.593   5.823 -0.4993  0.2085 -0.1991
   44MOL   C50533271   7.713   6.713   5.770 -0.0017 -0.0962 -0.4441
   44MOL   O50633272   7.606   6.740   5.712 -0.4416  0.0779  0.4579
   44MOL   C50733273   7.811   6.822   5.809 -0.2165 -0.5618  0.4842
   44MOL   C50833274   7.786   6.953   5.767  0.0833 -0.0146 -0.1326
   44MOL   C50933275   7.863   7.057   5.816  0.6540  0.2998  0.4737
   44MOL   C51033276   7.968   7.038   5.906  0.1678  0.2783  0.0893
   44MOL   C51133277   0.010   7.147   5.963  0.7808 -0.8884 -0.8563
   44MOL   O51233278   8.014   7.259   5.934 -0.4211 -0.7643 -0.2887
   44MOL   O51333279   0.118   7.123   6.048 -0.2846  0.2955  0.0741
   44MOL   C51433280   8.004   6.905   5.941  0.2345 -0.0571  0.1555
   44MOL   C51533281   7.928   6.798   5.893  0.6357  0.5256  0.2110
   44MOL   H51633282   7.553   6.228   5.878 -0.1217  2.6285 -0.0037
   44MOL   H51733283   7.643   6.204   5.734 -1.2928  0.0593  0.0858
   44MOL   H51833284   7.778   6.053   5.832  0.8807  2.0203  0.4965
   44MOL   H51933285   7.642   6.019   5.914  0.1300 -0.3871 -1.1378
   44MOL   H52033286   7.739   6.129   6.129 -1.0043 -0.1826 -0.6223
   44MOL   H52133287   7.947   6.024   6.145 -0.7271 -0.5458  0.0170
   44MOL   H52233288   7.972   5.984   5.992 -1.1363 -1.1719 -1.9475
   44MOL   H52333289   7.949   6.253   5.962  1.1971  1.2872  1.6249
   44MOL   H52433290   7.923   6.262   6.135 -0.7616 -0.8358  0.0386
   44MOL   H52533291   7.693   6.372   6.080  1.5528 -0.5377  1.6520
   44MOL   H52633292   7.843   6.452   6.037  1.0979 -0.9679 -0.3508
   44MOL   H52733293   7.821   6.346   5.803 -0.7528 -2.3972 -1.1292
   44MOL   H52833294   7.565   6.493   5.865 -1.3411  0.0654 -2.6676
   44MOL   H52933295   7.638   6.462   5.708  2.0126  1.2722 -0.6732
   44MOL   H53033296   7.697   6.965   5.707 -0.9866 -0.7822  1.2820
   44MOL   H53133297   7.848   7.160   5.788 -2.6202  0.3148  2.0697
   44MOL   H53233298   0.060   6.890   6.003 -1.7351  1.4169  3.4545
   44MOL   H53333299   7.952   6.697   5.923 -0.5965  0.5641  1.3831
   44MOL   C53433300   0.522   7.107   5.909  0.0195 -0.1517  0.3978
   44MOL   C53533301   0.397   7.101   5.997  0.5827 -0.0648 -0.0512
   44MOL   C53633302   0.341   7.239   6.021  0.5572  0.5578  0.0627
   44MOL   C53733303   0.209   7.224   6.095  0.4357  0.2556  0.0330
   44MOL   C53833304   0.443   7.322   6.099  0.3415  0.5452  0.1826
   44MOL   C53933305   0.588   7.313   6.047  0.3490 -0.0398  0.8643
   44MOL   C54033306   0.633   7.176   5.987 -0.5665 -0.2628 -0.2466
   44MOL   C54133307   0.762   7.202   5.896 -0.1050 -0.2840  0.4113
   44MOL   O54233308   0.870   7.235   5.977 -1.0457  0.2020 -0.2831
   44MOL   C54333309   0.989   7.267   5.939 -0.1539  0.4383 -0.2734
   44MOL   O54433310   1.025   7.260   5.818  0.2794 -0.1471 -0.2569
   44MOL   C54533311   1.089   7.301   6.049 -0.2649 -0.2535  1.5026
   44MOL   C54633312   1.061   7.286   6.187 -0.1394 -0.4317  0.2104
   44MOL   C54733313   1.151   7.322   6.289 -0.1166 -0.5407 -0.0747
   44MOL   C54833314   1.267   7.390   6.252  0.0560 -0.1077 -0.4011
   44MOL   C54933315   1.356   7.434   6.358 -0.0257  0.2347 -0.3343
   44MOL   O55033316   1.330   7.414   6.476 -0.0279 -0.0289 -0.5917
   44MOL   O55133317   1.472   7.484   6.314 -0.5577 -0.0369  0.0212
   44MOL   C55233318   1.298   7.414   6.116  0.2801  0.1537  0.3457
   44MOL   C55333319   1.215   7.367   6.016  0.6257  0.1345  0.4252
   44MOL   H55433320   0.488   7.158   5.819  0.5528 -0.6930 -0.1222
   44MOL   H55533321   0.553   7.005   5.886  0.3778  0.1333 -0.4110
   44MOL   H55633322   0.419   7.044   6.088  0.0486 -3.0839 -1.7414
   44MOL   H55733323   0.325   7.037   5.946 -0.0453  1.3109 -0.9150
   44MOL   H55833324   0.329   7.284   5.923 -2.3473  3.6873  1.7328
   44MOL   H55933325   0.150   7.314   6.113 -1.3132 -0.6241 -1.2241
   44MOL   H56033326   0.239   7.194   6.196  2.1693  0.2567 -0.4614
   44MOL   H56133327   0.446   7.289   6.203  1.1251  0.7403  0.2270
   44MOL   H56233328   0.411   7.426   6.096 -0.3110  0.4056  1.6576
   44MOL   H56333329   0.574   7.383   5.964  0.6643 -1.8506 -0.7585
   44MOL   H56433330   0.658   7.363   6.114  2.4606 -0.8041 -0.6807
   44MOL   H56533331   0.644   7.116   6.077  1.2362 -0.1641 -0.3890
   44MOL   H56633332   0.743   7.283   5.826 -2.9245 -1.7799 -0.6607
   44MOL   H56733333   0.778   7.110   5.840  0.7739  0.8361 -1.2221
   44MOL   H56833334   0.969   7.239   6.219 -0.1231  0.3736  1.4776
   44MOL   H56933335   1.128   7.292   6.390  0.7611 -1.1921 -0.0580
   44MOL   H57033336   1.388   7.470   6.093 -0.5284  0.7995 -1.3592
   44MOL   H57133337   1.241   7.398   5.916  1.5763 -0.6919  0.3992
   44MOL   C57233338   1.594   7.884   6.499  0.0044  0.0839  0.6412
   44MOL   C57333339   1.534   7.740   6.496 -0.0007  0.4601  0.2937
   44MOL   C57433340   1.620   7.661   6.398  0.0205 -0.4593 -0.6323
   44MOL   C57533341   1.585   7.508   6.399  0.0886 -0.4341  0.4153
   44MOL   C57633342   1.627   7.722   6.253 -0.0054 -0.1197  0.0207
   44MOL   C57733343   1.669   7.876   6.252 -0.7344 -0.4902 -0.7002
   44MOL   C57833344   1.602   7.956   6.365  0.1314 -0.1501 -0.2571
   44MOL   C57933345   1.662   0.063   6.375  0.1325  0.3209  0.3115
   44MOL   O58033346   1.602   0.145   6.471  0.1657  0.6596  0.0586
   44MOL   C58133347   1.648   0.262   6.498  0.2331  0.1001 -0.3961
   44MOL   O58233348   1.740   0.320   6.450  0.1759  0.5111 -0.4993
   44MOL   C58333349   1.565   0.329   6.598 -0.1589 -0.3169  0.2195
   44MOL   C58433350   1.571   0.468   6.597 -0.6574 -0.1299 -0.0211
   44MOL   C58533351   1.485   0.544   6.681  0.2105  0.2328 -0.3356
   44MOL   C58633352   1.399   0.481   6.772 -0.6866 -0.3762 -0.2946
   44MOL   C58733353   1.321   0.562   6.877 -0.2665  0.0273  0.1064
   44MOL   O58833354   1.300   0.681   6.869 -0.3038  0.2973 -0.0904
   44MOL   O58933355   1.287   0.481   6.981 -0.1044 -0.3573  0.2709
   44MOL   C59033356   1.405   0.339   6.782  0.1962  0.3073 -0.1868
   44MOL   C59133357   1.491   0.266   6.697 -0.4775 -0.1486  0.2103
   44MOL   H59233358   1.696   7.888   6.537 -0.3466 -2.5451  1.9748
   44MOL   H59333359   1.542   7.943   6.574  3.5692  2.3556  1.4444
   44MOL   H59433360   1.430   7.745   6.463  0.6182  0.2481 -1.7549
   44MOL   H59533361   1.538   7.700   6.597  0.6092 -0.1841  0.0175
   44MOL   H59633362   1.715   7.662   6.451 -1.2573 -0.7132  1.6937
   44MOL   H59733363   1.562   7.487   6.503 -0.4454  0.3101  0.4568
   44MOL   H59833364   1.670   7.451   6.360  1.5507  1.0761  1.3112
   44MOL   H59933365   1.532   7.720   6.199 -1.1441  3.2196  1.7771
   44MOL   H60033366   1.695   7.657   6.197 -0.0282 -0.1403  0.0170
   44MOL   H60133367   1.777   7.881   6.258 -0.7567 -0.3742 -0.4338
   44MOL   H60233368   1.660   7.937   6.161 -0.5340  0.2316 -0.2364
   44MOL   H60333369   1.502   7.964   6.323 -0.2469 -1.7729  0.3208
   44MOL   H60433370   1.632   0.110   6.281  1.7374 -1.5882 -1.1902
   44MOL   H60533371   1.771   0.074   6.374  0.0695  0.9730 -1.0953
   44MOL   H60633372   1.630   0.523   6.525 -0.3893  2.2125  1.9213
   44MOL   H60733373   1.493   0.651   6.690  1.6059  0.0600  0.6952
   44MOL   H60833374   1.343   0.289   6.855 -0.6186 -0.3375 -1.3159
   44MOL   H60933375   1.495   0.159   6.704  2.0843 -0.0134  1.4337
   44MOL   C61033376   1.324   0.312   7.382  0.0435 -0.4395  0.1941
   44MOL   C61133377   1.341   0.415   7.271  0.2921  0.0647 -0.1691
   44MOL   C61233378   1.204   0.455   7.208 -0.0224 -0.1239 -0.0013
   44MOL   C61333379   1.226   0.549   7.093  0.2307 -0.4200 -0.0113
   44MOL   C61433380   1.120   0.336   7.173 -0.7521 -0.3189  0.3176
   44MOL   C61533381   1.105   0.240   7.296 -0.4702  0.3290  0.1493
   44MOL   C61633382   1.236   0.190   7.345 -0.2136  0.5723  0.4564
   44MOL   C61733383   1.206   0.102   7.463 -0.8423  1.0352 -0.2100
   44MOL   O61833384   1.135   8.018   7.429 -0.1941  0.1902 -0.4943
   44MOL   C61933385   1.072   7.944   7.520 -0.0733 -0.0487  0.2966
   44MOL   O62033386   1.064   7.984   7.639  0.2462 -0.6452 -0.4283
   44MOL   C62133387   0.998   7.816   7.478 -0.0588 -0.0198 -0.5208
   44MOL   C62233388   0.926   7.743   7.580 -0.1642  0.3800  0.2054
   44MOL   C62333389   0.864   7.621   7.540 -0.7018 -0.0380  0.3895
   44MOL   C62433390   0.864   7.578   7.406 -1.4346 -0.2064 -0.5114
   44MOL   C62533391   0.785   7.448   7.364 -0.3236 -0.3784  0.1771
   44MOL   O62633392   0.781   7.422   7.243  0.2949  0.2095 -0.3033
   44MOL   O62733393   0.740   7.375   7.469 -0.1160  0.1192  0.1538
   44MOL   C62833394   0.933   7.655   7.308  0.2865  0.2884 -0.0494
   44MOL   C62933395   1.007   7.769   7.347  0.2559  0.1871  0.0401
   44MOL   H63033396   1.299   0.361   7.476  0.9805 -3.1414  1.9224
   44MOL   H63133397   1.424   0.274   7.405 -0.4595 -0.4110  2.5971
   44MOL   H63233398   1.401   0.371   7.191 -0.9038 -0.3153 -0.8730
   44MOL   H63333399   1.391   0.501   7.317  1.3024 -1.1753  1.0997
   44MOL   H63433400   1.157   0.506   7.292  0.8392  0.7982 -0.0703
   44MOL   H63533401   1.289   0.634   7.118 -0.5543  0.1023  0.2257
   44MOL   H63633402   1.132   0.587   7.052 -1.3568 -2.3528  1.6827
   44MOL   H63733403   1.167   0.273   7.098 -3.1944 -0.9630 -0.7175
   44MOL   H63833404   1.023   0.358   7.130  0.3744 -0.2444 -2.2538
   44MOL   H63933405   1.037   0.288   7.366  0.6510  0.5308  1.1103
   44MOL   H64033406   1.051   0.153   7.259  0.2837  0.4690 -1.3337
   44MOL   H64133407   1.288   0.130   7.270 -2.2469 -2.4599  1.3719
   44MOL   H64233408   1.143   0.146   7.540 -0.1302 -0.6849  1.4306
   44MOL   H64333409   1.298   0.065   7.510 -1.4292  0.7743  0.7399
   44MOL   H64433410   0.917   7.769   7.684 -2.3971  0.8521 -0.0690
   44MOL   H64533411   0.820   7.564   7.621 -1.0360 -1.4358 -0.7590
   44MOL   H64633412   0.934   7.627   7.204 -3.3885 -1.5100  0.3454
   44MOL   H64733413   1.058   7.830   7.274 -2.1516  2.5024  0.2137
   44MOL   C64833414   0.945   6.972   7.417  0.1737  0.6004 -0.0884
   44MOL   C64933415   0.861   7.099   7.380  0.0480 -0.2815 -0.1535
   44MOL   C65033416   0.749   7.131   7.484 -0.2875  0.6103 -0.9876
   44MOL   C65133417   0.667   7.254   7.447  0.3316 -0.4636 -0.5998
   44MOL   C65233418   0.670   7.003   7.504 -0.0803 -0.2012 -0.2637
   44MOL   C65333419   0.747   6.869   7.532  0.3751  0.2311 -0.9576
   44MOL   C65433420   0.854   6.846   7.421  0.5957  1.0782  0.4080
   44MOL   C65533421   0.942   6.723   7.449 -0.3373 -0.1176  0.5648
   44MOL   O65633422   1.039   6.702   7.344 -0.0701  0.7456  0.0855
   44MOL   C65733423   1.157   6.648   7.367 -0.3192  0.3677 -0.3693
   44MOL   O65833424   1.189   6.602   7.480 -0.0030 -0.2445 -0.0633
   44MOL   C65933425   1.260   6.640   7.259 -0.2240  1.0337  0.4361
   44MOL   C66033426   1.230   6.699   7.136 -0.9191  0.2345  0.1338
   44MOL   C66133427   1.304   6.672   7.022 -0.4919 -0.5548  0.4384
   44MOL   C66233428   1.432   6.607   7.033 -0.0805 -0.6071  0.1950
   44MOL   C66333429   1.522   6.579   6.918 -0.1959  0.8649 -0.1325
   44MOL   O66433430   1.634   6.537   6.941  0.2086  0.0071 -0.0023
   44MOL   O66533431   1.463   6.588   6.790 -0.3276  0.5387  0.3727
   44MOL   C66633432   1.480   6.573   7.167 -0.1709  0.0061  0.0932
   44MOL   C66733433   1.387   6.571   7.274  0.6153 -0.0584 -0.1752
   44MOL   H66833434   1.002   6.985   7.509  0.3263  2.1002 -0.3815
   44MOL   H66933435   1.017   6.955   7.337  0.0737  2.1397 -0.5251
   44MOL   H67033436   0.818   7.098   7.280 -1.5837 -0.2737  0.5371
   44MOL   H67133437   0.935   7.179   7.370  1.4062 -1.6323 -1.2710
   44MOL   H67233438   0.799   7.153   7.578 -1.5476  2.0860 -0.6464
   44MOL   H67333439   0.571   7.253   7.498 -0.0711 -2.0789 -1.3690
   44MOL   H67433440   0.645   7.242   7.341  0.5867 -3.1600 -0.3696
   44MOL   H67533441   0.614   6.974   7.415 -0.3569 -2.7001  0.6887
   44MOL   H67633442   0.599   7.021   7.585  1.7422 -0.3476  1.4020
   44MOL   H67733443   0.798   6.892   7.626 -0.6896  1.8923 -0.7837
   44MOL   H67833444   0.690   6.777   7.542 -0.0547  0.5594 -0.3681
   44MOL   H67933445   0.800   6.826   7.328  1.4673  1.2900 -0.1391
   44MOL   H68033446   0.893   6.626   7.462  2.6988 -1.7532  0.1757
   44MOL   H68133447   0.992   6.747   7.542 -3.0453 -0.8454  2.2554
   44MOL   H68233448   1.136   6.749   7.120 -0.9137  0.7238  1.5287
   44MOL   H68333449   1.262   6.702   6.927 -1.3649 -0.3044  0.8958
   44MOL   H68433450   1.575   6.522   7.178 -0.2131 -0.0328  0.2657
   44MOL   H68533451   1.413   6.520   7.366 -0.0514 -1.0934 -0.5531
   44MOL   C68633452   1.282   6.322   6.430  0.8457  0.4320 -0.1436
   44MOL   C68733453   1.399   6.340   6.527 -0.0963 -0.6966  0.0954
   44MOL   C68833454   1.381   6.473   6.606 -0.3722 -0.3957 -0.0085
   44MOL   C68933455   1.504   6.492   6.693 -0.4600  0.3908 -0.1150
   44MOL   C69033456   1.367   6.584   6.507 -0.7853 -0.9900  0.8079
   44MOL   C69133457   1.248   6.560   6.409  0.0825 -0.1471  0.2074
   44MOL   C69233458   1.260   6.430   6.327 -0.1618  1.1169  0.4946
   44MOL   C69333459   1.136   6.395   6.249 -0.6637 -0.1317  0.4944
   44MOL   O69433460   1.012   6.380   6.326  0.0836  0.7970 -0.2902
   44MOL   C69533461   0.945   6.263   6.336 -0.0461 -0.1698 -0.6937
   44MOL   O69633462   0.990   6.153   6.301  0.0267 -0.3346 -0.1580
   44MOL   C69733463   0.820   6.292   6.413  1.1186 -0.1046 -0.1434
   44MOL   C69833464   0.769   6.191   6.500 -0.0542 -0.3047 -0.0220
   44MOL   C69933465   0.655   6.213   6.580 -0.1222 -0.2281 -0.0695
   44MOL   C70033466   0.586   6.337   6.574  0.2369  0.4081 -0.1972
   44MOL   C70133467   0.454   6.370   6.652  0.0051  0.1419 -0.0322
   44MOL   O70233468   0.416   6.488   6.669  0.2419 -0.2603 -0.5079
   44MOL   O70333469   0.400   6.259   6.710  0.0915  0.3252  0.0343
   44MOL   C70433470   0.633   6.431   6.475 -0.6615 -0.5071  0.1712
   44MOL   C70533471   0.752   6.411   6.406  0.0688 -0.6630 -0.4145
   44MOL   H70633472   1.193   6.308   6.492  1.9279 -2.4882  0.8122
   44MOL   H70733473   1.301   6.227   6.380  3.8026  0.5806  0.6390
   44MOL   H70833474   1.493   6.351   6.474  0.5264  0.8386  1.4750
   44MOL   H70933475   1.409   6.256   6.597  1.2698 -1.1522 -0.6363
   44MOL   H71033476   1.290   6.465   6.665 -1.1914 -0.8460 -1.3000
   44MOL   H71133477   1.595   6.533   6.649  0.1401  1.2523  1.8696
   44MOL   H71233478   1.536   6.400   6.742 -1.5649 -1.2055 -2.3356
   44MOL   H71333479   1.452   6.610   6.444 -0.9990 -1.5208  0.2954
   44MOL   H71433480   1.348   6.679   6.558  0.5685 -1.0827  1.5101
   44MOL   H71533481   1.157   6.563   6.468 -0.4265  1.2779 -0.6167
   44MOL   H71633482   1.240   6.638   6.333  1.2742 -1.1041 -0.9390
   44MOL   H71733483   1.344   6.433   6.258  0.3852 -0.1059  1.1065
   44MOL   H71833484   1.154   6.305   6.190  2.0689  0.3534  0.5613
   44MOL   H71933485   1.117   6.469   6.171 -1.3979 -0.1821  0.6154
   44MOL   H72033486   0.806   6.090   6.494  0.9899  0.0687  0.1423
   44MOL   H72133487   0.608   6.134   6.638  0.5975 -0.0203  0.7994
   44MOL   H72233488   0.574   6.522   6.477 -0.4488 -0.3748  0.8098
   44MOL   H72333489   0.787   6.494   6.347  3.1961 -0.7846  1.1522
   44MOL   C72433490   0.340   6.297   7.205  0.0276 -0.1641  0.3404
   44MOL   C72533491   0.278   6.290   7.072 -0.0703 -0.1912  0.1883
   44MOL   C72633492   0.383   6.274   6.959 -0.2002 -0.2004  0.3298
   44MOL   C72733493   0.312   6.282   6.821  0.1332 -0.6337  0.2033
   44MOL   C72833494   0.501   6.377   6.968  0.5530  0.5637  0.2421
   44MOL   C72933495   0.563   6.357   7.106 -0.6329 -0.7786 -0.1677
   44MOL   C73033496   0.457   6.391   7.212 -0.2700 -0.2588  0.0403
   44MOL   C73133497   0.529   6.395   7.351  0.1066 -0.3621  0.4569
   44MOL   O73233498   0.433   6.457   7.438 -0.0574  0.0638 -0.2263
   44MOL   C73333499   0.386   6.395   7.552  0.5633 -0.4160 -0.2627
   44MOL   O73433500   0.428   6.282   7.588 -0.6066 -0.0937  0.4426
   44MOL   C73533501   0.291   6.478   7.625  0.0928 -0.7268  0.4752
   44MOL   C73633502   0.251   6.606   7.570 -0.6535  0.2035  0.0667
   44MOL   C73733503   0.154   6.684   7.635 -0.0064  0.2843  0.2820
   44MOL   C73833504   0.117   6.650   7.771 -0.7557  0.0769  1.3656
   44MOL   C73933505   0.013   6.725   7.838  0.1575 -0.5489 -0.6216
   44MOL   O74033506   8.003   6.697   7.950 -0.3362  0.4139  0.2374
   44MOL   O74133507   8.011   6.839   7.781 -0.2960 -0.1919 -0.7535
   44MOL   C74233508   0.174   6.531   7.821  0.1780 -0.0709 -0.3996
   44MOL   C74333509   0.253   6.444   7.752  0.1207  0.6736  0.3949
   44MOL   H74433510   0.363   6.193   7.229  0.1500  0.2625  2.1857
   44MOL   H74533511   0.263   6.327   7.277 -2.0292 -2.3881 -0.8418
   44MOL   H74633512   0.210   6.374   7.055 -1.3787 -1.7621 -2.7139
   44MOL   H74733513   0.212   6.204   7.059 -0.3052 -0.0792  0.6207
   44MOL   H74833514   0.430   6.176   6.966 -1.1230 -0.8060 -1.7259
   44MOL   H74933515   0.253   6.372   6.805 -0.9142 -1.5996 -1.4982
   44MOL   H75033516   0.230   6.210   6.818  0.9285 -1.5175 -0.8359
   44MOL   H75133517   0.465   6.475   6.936 -0.7387 -0.1473 -0.4716
   44MOL   H75233518   0.581   6.342   6.903 -1.3193 -0.5567 -1.5133
   44MOL   H75333519   0.590   6.254   7.130 -0.5413 -1.2837 -2.4031
   44MOL   H75433520   0.652   6.420   7.103 -0.7124 -0.7153 -1.2945
   44MOL   H75533521   0.425   6.492   7.189  2.0115  0.6788  0.8779
   44MOL   H75633522   0.625   6.444   7.365  0.1764 -0.3550 -0.0557
   44MOL   H75733523   0.554   6.294   7.384 -2.5667 -0.7937  1.3337
   44MOL   H75833524   0.277   6.631   7.468 -2.5584 -0.9133 -0.7163
   44MOL   H75933525   0.110   6.767   7.582 -0.6823 -0.2998 -0.0813
   44MOL   H76033526   0.142   6.506   7.921  3.4054 -0.8622  0.4901
   44MOL   H76133527   0.277   6.347   7.793 -1.2916 -0.1582 -0.7321
   44MOL   H76233528   7.955   6.875   7.848  0.8051 -2.1648  1.2922
   45MOL     C133529   5.275   0.644   3.019  0.5968  0.3115 -0.7812
   45MOL     C233530   5.369   0.759   3.067  0.8088  0.5268 -0.3794
   45MOL     C333531   5.472   0.802   2.965 -0.0392 -0.5792  0.1884
   45MOL     C433532   5.576   0.910   3.016 -0.1428 -0.2314  0.4046
   45MOL     C533533   5.549   0.677   2.918 -0.3825  0.7247 -0.4242
   45MOL     C633534   5.463   0.562   2.866 -0.0936  0.2484  0.6244
   45MOL     C733535   5.356   0.526   2.979  0.2828  0.0513  0.7458
   45MOL     C833536   5.262   0.409   2.930 -0.0298 -0.0097 -0.1778
   45MOL     O933537   5.195   0.451   2.813 -0.3153  0.1857 -0.2629
   45MOL    C1033538   5.087   0.383   2.773  0.0254 -0.0800 -0.4674
   45MOL    O1133539   5.056   0.279   2.832 -0.2208  0.0828  0.0836
   45MOL    C1233540   5.006   0.452   2.667 -0.3727 -0.5019  1.0430
   45MOL    C1333541   4.871   0.410   2.659 -0.4317 -0.2462  0.4136
   45MOL    C1433542   4.790   0.474   2.564  0.4528 -0.3302 -0.3138
   45MOL    C1533543   4.844   0.572   2.479  0.2968  0.1223 -0.0862
   45MOL    C1633544   4.753   0.630   2.371 -0.3517  0.1741  0.0995
   45MOL    O1733545   4.646   0.577   2.335  0.3662  0.3621 -0.0037
   45MOL    O1833546   4.801   0.743   2.317  0.5177 -0.0641 -0.0205
   45MOL    C1933547   4.981   0.607   2.478 -0.1180 -0.2547 -0.1325
   45MOL    C2033548   5.058   0.557   2.584 -0.6295  0.4883  0.7429
   45MOL    H2133549   5.217   0.674   2.931  1.6991  1.4157 -1.1495
   45MOL    H2233550   5.213   0.613   3.103  1.9713 -2.0412 -0.6040
   45MOL    H2333551   5.420   0.706   3.147 -2.8801 -2.9527 -0.1646
   45MOL    H2433552   5.313   0.836   3.121 -1.7681  0.9741 -3.5114
   45MOL    H2533553   5.419   0.839   2.877  0.3091  0.3612  0.3663
   45MOL    H2633554   5.526   1.000   3.053 -0.1781 -0.0727 -0.0228
   45MOL    H2733555   5.639   0.949   2.936 -0.6411  2.0794  1.0882
   45MOL    H2833556   5.598   0.632   3.004 -0.7739  0.9820 -0.0664
   45MOL    H2933557   5.620   0.704   2.841 -0.6526 -0.0529 -0.9510
   45MOL    H3033558   5.413   0.592   2.774 -0.8765 -2.9328 -0.0446
   45MOL    H3133559   5.524   0.473   2.852  1.0464  0.9829  0.8302
   45MOL    H3233560   5.411   0.484   3.063  0.1548  0.8153  1.2134
   45MOL    H3333561   5.181   0.400   3.003  2.2434  2.5646  2.7868
   45MOL    H3433562   5.316   0.316   2.913 -2.6572 -1.2664 -2.0609
   45MOL    H3533563   4.832   0.336   2.728 -2.8382 -0.2929 -0.9348
   45MOL    H3633564   4.689   0.438   2.567  0.5233 -0.3849  1.3601
   45MOL    H3733565   5.011   0.685   2.410 -0.5505  1.0419  1.1309
   45MOL    H3833566   5.156   0.602   2.595 -1.4849  2.1898  1.6248
   45MOL    H3933567   5.647   0.861   3.082 -0.0606 -0.0002  0.4892
   45MOL    C4033568   4.936   1.061   2.007  0.1748  0.6728 -0.1476
   45MOL    C4133569   4.894   0.927   2.067 -0.2088  0.3421  0.1114
   45MOL    C4233570   4.773   0.944   2.161 -0.4898  0.0911  0.6415
   45MOL    C4333571   4.718   0.809   2.217  0.2017 -0.5763 -0.3658
   45MOL    C4433572   4.804   1.034   2.276  0.2226 -0.9908 -0.4727
   45MOL    C4533573   4.831   1.177   2.213  0.5072  0.2865 -0.3422
   45MOL    C4633574   4.945   1.176   2.113  0.2610  0.8993  0.9710
   45MOL    C4733575   4.973   1.307   2.052 -0.1146  0.0136  0.5358
   45MOL    O4833576   4.865   1.380   1.995  0.3688 -0.4701 -1.0873
   45MOL    C4933577   4.873   1.456   1.884 -0.4467  0.0895 -0.3701
   45MOL    O5033578   4.978   1.474   1.826  0.5748 -0.0868  0.2509
   45MOL    C5133579   4.738   1.519   1.854 -0.2251 -0.6012 -0.2648
   45MOL    C5233580   4.621   1.480   1.924 -0.3268  0.2566 -0.5693
   45MOL    C5333581   4.495   1.535   1.893 -0.2953  0.3196  0.2380
   45MOL    C5433582   4.481   1.636   1.800  0.4197 -0.3429  0.5350
   45MOL    C5533583   4.347   1.691   1.755 -0.1411 -0.7262  0.1802
   45MOL    O5633584   4.331   1.790   1.686  0.5132  0.4401  0.5684
   45MOL    O5733585   4.243   1.635   1.820 -0.4073 -0.0487  0.0298
   45MOL    C5833586   4.600   1.687   1.738  0.4162  0.0645  0.3227
   45MOL    C5933587   4.722   1.619   1.753 -0.5974 -0.3063 -0.3853
   45MOL    H6033588   4.864   1.089   1.930  0.0219 -0.9679 -0.6266
   45MOL    H6133589   5.027   1.045   1.950 -0.3085 -0.0248 -0.7252
   45MOL    H6233590   4.976   0.899   2.133 -0.7954 -2.2882 -0.2097
   45MOL    H6333591   4.891   0.851   1.989 -2.3292  0.0627  0.4271
   45MOL    H6433592   4.689   0.982   2.102  1.0589  3.3781  0.4218
   45MOL    H6533593   4.696   0.738   2.137  0.5937 -0.9097 -0.1806
   45MOL    H6633594   4.621   0.833   2.261  0.3625 -0.6891  0.0568
   45MOL    H6733595   4.886   0.998   2.338 -1.2671 -2.3468  0.7450
   45MOL    H6833596   4.719   1.036   2.344 -0.4679 -1.9753 -1.2911
   45MOL    H6933597   4.737   1.219   2.177 -0.4240 -0.1657  1.4719
   45MOL    H7033598   4.863   1.241   2.295 -0.4383 -1.9391  1.8483
   45MOL    H7133599   5.033   1.157   2.175  0.7948  1.2677  0.3378
   45MOL    H7233600   5.045   1.297   1.970 -1.4578 -2.1627 -0.4302
   45MOL    H7333601   5.016   1.380   2.121  0.5389 -0.0796  0.2322
   45MOL    H7433602   4.621   1.395   1.991 -1.9957 -0.2908 -1.2606
   45MOL    H7533603   4.403   1.509   1.944 -0.9109 -1.2569 -1.6423
   45MOL    H7633604   4.597   1.776   1.677 -0.6227 -0.7128 -0.7800
   45MOL    H7733605   4.806   1.649   1.692 -0.3330 -2.6412 -1.2419
   45MOL    C7833606   3.798   1.583   1.967  0.1578  0.5376  0.5741
   45MOL    C7933607   3.892   1.678   1.890  0.4165 -0.2572 -0.0659
   45MOL    C8033608   4.034   1.624   1.914 -0.1056 -0.4340 -0.0468
   45MOL    C8133609   4.124   1.708   1.827 -1.3791  0.8338 -0.4540
   45MOL    C8233610   4.081   1.636   2.062  0.8286 -0.1028 -0.4196
   45MOL    C8333611   3.985   1.544   2.141  0.4722 -0.3644 -0.3079
   45MOL    C8433612   3.839   1.585   2.118 -0.2199  0.4721 -0.2047
   45MOL    C8533613   3.742   1.502   2.208  0.2994 -0.7875 -0.1117
   45MOL    O8633614   3.614   1.550   2.178  0.5048  0.7489  0.4326
   45MOL    C8733615   3.505   1.534   2.266 -0.3620  0.2240 -0.1237
   45MOL    O8833616   3.515   1.475   2.372 -0.2740 -0.2346  0.9447
   45MOL    C8933617   3.371   1.595   2.216  0.5778  0.5005 -0.2779
   45MOL    C9033618   3.367   1.672   2.099 -0.1725 -0.2613  0.3120
   45MOL    C9133619   3.241   1.718   2.051  0.2911 -0.2207  0.3808
   45MOL    C9233620   3.119   1.676   2.119  0.1741  0.0777  0.4355
   45MOL    C9333621   2.988   1.709   2.061  0.1493 -0.0407 -0.0802
   45MOL    O9433622   2.882   1.681   2.120  0.4083 -0.3329 -0.5199
   45MOL    O9533623   2.993   1.760   1.939  0.5718 -0.6376 -0.4526
   45MOL    C9633624   3.128   1.599   2.237 -0.0083 -0.6715 -0.2642
   45MOL    C9733625   3.254   1.566   2.287 -0.1190  0.0073 -0.3954
   45MOL    H9833626   3.796   1.479   1.934 -0.7489  0.8284 -0.3036
   45MOL    H9933627   3.699   1.630   1.966 -0.5561 -0.9309  0.7774
   45MOL   H10033628   3.872   1.780   1.921  2.5618 -0.1799  1.1891
   45MOL   H10133629   3.865   1.668   1.785 -2.3186 -0.3072  0.6242
   45MOL   H10233630   4.029   1.520   1.881 -3.4178  0.1818 -1.7523
   45MOL   H10333631   4.132   1.807   1.872  2.0421  1.3992 -2.1439
   45MOL   H10433632   4.072   1.723   1.733 -2.8801 -0.8945  0.0630
   45MOL   H10533633   4.073   1.740   2.093  0.0237  0.1683 -1.4917
   45MOL   H10633634   4.183   1.599   2.076  0.2389 -1.6860 -0.1725
   45MOL   H10733635   4.003   1.441   2.110  0.0567 -1.3169  2.4927
   45MOL   H10833636   4.007   1.544   2.248  0.0468 -2.8867 -0.1851
   45MOL   H10933637   3.840   1.683   2.166 -0.9057 -0.3948  1.6106
   45MOL   H11033638   3.754   1.550   2.305 -1.5562  1.5434 -0.9788
   45MOL   H11133639   3.733   1.394   2.213 -2.8122 -0.5801  0.0811
   45MOL   H11233640   3.454   1.680   2.035 -0.4119 -0.0382  0.0160
   45MOL   H11333641   3.234   1.772   1.959 -0.7248 -1.0051 -0.0175
   45MOL   H11433642   3.038   1.576   2.292 -0.3493 -0.6664 -0.8111
   45MOL   H11533643   3.251   1.500   2.373  1.8959  0.4147 -0.0001
   45MOL   C11633644   2.792   1.965   1.520  0.4705  0.1947  0.6623
   45MOL   C11733645   2.772   1.906   1.667 -0.2137  0.1735  0.6531
   45MOL   C11833646   2.902   1.879   1.743 -0.1727  0.3040  0.6091
   45MOL   C11933647   2.866   1.797   1.869 -0.1962  0.1194 -0.4574
   45MOL   C12033648   3.002   1.798   1.652  0.2655  0.0245  0.5373
   45MOL   C12133649   3.024   1.883   1.525  0.9331  0.8267  0.2194
   45MOL   C12233650   2.897   1.890   1.435  0.0255  0.8675  0.9036
   45MOL   C12333651   2.930   1.957   1.300 -0.4805  0.2054 -0.9072
   45MOL   O12433652   2.833   1.945   1.196 -0.1452  0.2672 -0.2990
   45MOL   C12533653   2.866   1.968   1.072 -0.0743  0.4550  0.6119
   45MOL   O12633654   2.973   2.015   1.051 -0.0211 -0.1061 -0.8430
   45MOL   C12733655   2.772   1.924   0.962 -0.0443 -0.2255 -0.7145
   45MOL   C12833656   2.824   1.896   0.841 -0.0812  0.0042 -0.1605
   45MOL   C12933657   2.742   1.859   0.731  0.4702 -0.0569  0.2786
   45MOL   C13033658   2.606   1.847   0.752 -0.3048  0.2228  0.0254
   45MOL   C13133659   2.516   1.794   0.638 -0.2822  0.2020 -0.5132
   45MOL   O13233660   2.393   1.799   0.639  0.2380 -0.0535 -0.4263
   45MOL   O13333661   2.580   1.745   0.535  0.4208 -0.1528 -0.5827
   45MOL   C13433662   2.547   1.868   0.874  0.0022 -0.5652 -0.5025
   45MOL   C13533663   2.631   1.914   0.981 -0.0187 -0.3824 -0.0490
   45MOL   H13633664   2.817   2.070   1.537  1.0650 -0.0634  1.3968
   45MOL   H13733665   2.700   1.967   1.461  1.9024  2.9899 -1.6399
   45MOL   H13833666   2.718   1.812   1.665  1.5769 -0.9317  2.5782
   45MOL   H13933667   2.706   1.980   1.712  0.9283  1.0155  0.9830
   45MOL   H14033668   2.953   1.972   1.770  0.9028 -0.3817  0.9557
   45MOL   H14133669   2.807   1.706   1.855 -1.0055 -0.0880  3.8232
   45MOL   H14233670   2.803   1.859   1.932  1.1090  0.8616  0.1297
   45MOL   H14333671   2.960   1.701   1.626  1.5473 -0.3352 -0.2175
   45MOL   H14433672   3.097   1.772   1.697  1.7574  0.4855 -2.2235
   45MOL   H14533673   3.061   1.980   1.558 -1.8475  2.1629 -0.4128
   45MOL   H14633674   3.103   1.836   1.466  0.6269 -0.2428  0.6470
   45MOL   H14733675   2.865   1.786   1.429 -1.5973  1.2933  1.9480
   45MOL   H14833676   3.025   1.918   1.264  0.0580  0.0482  0.6692
   45MOL   H14933677   2.958   2.062   1.311  1.0441 -0.3001  0.0422
   45MOL   H15033678   2.927   1.921   0.822 -0.2400  1.1572  0.4889
   45MOL   H15133679   2.785   1.856   0.633  3.4546 -0.1375  1.5510
   45MOL   H15233680   2.442   1.844   0.885  0.4330 -2.0757  0.4981
   45MOL   H15333681   2.585   1.920   1.079 -1.5171  3.1300 -0.8950
   45MOL   C15433682   2.810   1.822   0.167  0.3450 -0.1591  0.5116
   45MOL   C15533683   2.723   1.843   0.287  0.1441  0.6886  0.2016
   45MOL   C15633684   2.617   1.736   0.292  0.4595  0.0270 -0.0795
   45MOL   C15733685   2.511   1.752   0.406 -0.5857  0.0828 -0.3909
   45MOL   C15833686   2.529   1.727   0.167 -0.0185  0.2432 -0.2873
   45MOL   C15933687   2.617   1.703   0.044 -0.4074  0.2743  0.3580
   45MOL   C16033688   2.729   1.812   0.031 -0.5420  0.0845  0.1500
   45MOL   C16133689   2.816   1.798   7.938 -0.2361  0.5753  0.6833
   45MOL   O16233690   2.877   1.669   7.930  0.2626 -0.8492  0.1338
   45MOL   C16333691   2.843   1.591   7.828  0.2260 -0.0733  0.6828
   45MOL   O16433692   2.750   1.613   7.749  0.0379 -0.1818  0.0491
   45MOL   C16533693   2.940   1.486   7.801 -0.6453  0.3258  0.2329
   45MOL   C16633694   3.043   1.452   7.887  0.4560 -0.4673 -0.1944
   45MOL   C16733695   3.133   1.353   7.857 -0.5562 -0.2827  0.4421
   45MOL   C16833696   3.140   1.298   7.723  0.5764  0.4760 -0.1721
   45MOL   C16933697   3.247   1.201   7.677 -0.2133  0.1339 -0.1448
   45MOL   O17033698   3.255   1.150   7.560 -0.1691  0.1520 -0.2582
   45MOL   O17133699   3.326   1.162   7.775  0.1091 -0.0972 -0.3521
   45MOL   C17233700   3.036   1.335   7.632  0.3117 -0.3795 -0.9017
   45MOL   C17333701   2.935   1.428   7.667  0.3387 -0.1954 -0.6756
   45MOL   H17433702   2.872   1.733   0.183 -2.1886 -2.1602 -0.5194
   45MOL   H17533703   2.884   1.901   0.152 -0.1187  0.6445  2.2957
   45MOL   H17633704   2.677   1.942   0.280  0.1280  0.7127  0.6338
   45MOL   H17733705   2.772   1.858   0.383 -0.4595 -0.4433  0.6998
   45MOL   H17833706   2.657   1.636   0.311  0.4455  0.3494  1.6703
   45MOL   H17933707   2.443   1.666   0.405 -1.0402  0.4098  0.8616
   45MOL   H18033708   2.451   1.842   0.397  0.5801  0.9064  0.0271
   45MOL   H18133709   2.484   1.825   0.154  0.7023  0.4169 -1.6373
   45MOL   H18233710   2.447   1.655   0.171  0.4103 -0.2425 -0.2502
   45MOL   H18333711   2.670   1.608   0.057  1.3085  0.6362 -3.3014
   45MOL   H18433712   2.564   1.694   7.981  0.1288  1.5809 -0.0734
   45MOL   H18533713   2.681   1.908   0.012 -0.5387  0.0325 -0.1340
   45MOL   H18633714   2.897   1.870   7.949  0.4040  0.0967 -0.8120
   45MOL   H18733715   2.775   1.828   7.842  1.4307  3.0331  0.6713
   45MOL   H18833716   3.054   1.511   7.976 -1.7504 -0.3708  0.0373
   45MOL   H18933717   3.207   1.329   7.931 -0.1513 -1.1531 -0.2408
   45MOL   H19033718   3.036   1.300   7.530 -0.1985 -1.1498 -0.6467
   45MOL   H19133719   2.859   1.451   7.594  1.0724  1.1879 -1.0257
   45MOL   C19233720   3.350   0.847   0.036  0.6568  0.1514  0.0924
   45MOL   C19333721   3.322   0.925   7.935 -0.1540  0.4236 -0.1185
   45MOL   C19433722   3.447   0.989   7.875  0.3319 -0.2047  0.4077
   45MOL   C19533723   3.417   1.061   7.748 -0.0299  0.4898 -0.2430
   45MOL   C19633724   3.518   1.076   7.971  0.1678  0.1485  0.0947
   45MOL   C19733725   3.544   0.999   0.064 -0.1268  0.0512 -0.1592
   45MOL   C19833726   3.418   0.939   0.134  0.1846 -0.0574  0.1075
   45MOL   C19933727   3.460   0.870   0.263  0.3123  0.7880 -0.0953
   45MOL   O20033728   3.524   0.747   0.232 -0.1406  0.0100  0.0426
   45MOL   C20133729   3.608   0.696   0.317 -0.7106 -0.5833 -0.0284
   45MOL   O20233730   3.618   0.740   0.435  0.5459 -0.2600  0.1778
   45MOL   C20333731   3.679   0.577   0.269 -0.1105 -0.4463 -0.1355
   45MOL   C20433732   3.765   0.503   0.355  0.2854 -0.0577 -0.0196
   45MOL   C20533733   3.823   0.382   0.316  0.0340  0.3968 -0.6547
   45MOL   C20633734   3.807   0.333   0.187  0.3215  0.6384 -0.2454
   45MOL   C20733735   3.871   0.214   0.130 -0.3286  1.2149  0.1557
   45MOL   O20833736   3.897   0.189   0.011  0.5452 -0.6678  0.6143
   45MOL   O20933737   3.891   0.122   0.234 -0.1916 -0.5555  0.4739
   45MOL   C21033738   3.726   0.414   0.100 -0.9398 -0.0353  0.0223
   45MOL   C21133739   3.653   0.530   0.139  0.5887  0.0796 -0.3732
   45MOL   H21233740   3.410   0.760   0.010 -0.6610 -1.2800  1.7305
   45MOL   H21333741   3.261   0.810   0.087 -0.2859  0.3739 -1.3665
   45MOL   H21433742   3.252   1.005   7.962 -0.2183 -0.0273  1.0800
   45MOL   H21533743   3.290   0.855   7.858  0.1375 -0.1626  0.2924
   45MOL   H21633744   3.509   0.903   7.847  0.1209 -0.3640  0.4327
   45MOL   H21733745   3.372   0.995   7.674 -0.5159  0.2755  0.2368
   45MOL   H21833746   3.515   1.089   7.710  0.0066 -1.0909 -1.3504
   45MOL   H21933747   3.468   1.169   7.994 -0.6157 -0.3316  0.3513
   45MOL   H22033748   3.619   1.104   7.941  0.0687  2.5821  1.9264
   45MOL   H22133749   3.611   0.918   0.036 -0.7981 -0.7526  0.5586
   45MOL   H22233750   3.606   1.061   0.129  0.0580 -1.0943  0.7684
   45MOL   H22333751   3.358   1.023   0.171  0.0946 -0.0118 -0.1412
   45MOL   H22433752   3.370   0.837   0.316 -0.7381  0.3644 -2.0656
   45MOL   H22533753   3.522   0.928   0.330 -0.2454 -1.5727  2.5330
   45MOL   H22633754   3.781   0.532   0.458  1.4006  0.7647 -0.4130
   45MOL   H22733755   3.894   0.331   0.379 -0.5953  0.8833  0.4489
   45MOL   H22833756   3.707   0.383   8.030  1.5046  0.3597 -0.5827
   45MOL   H22933757   3.581   0.577   0.074  0.6638 -0.4929 -0.8719
   45MOL   C23033758   4.303   0.086   0.382  0.5266  0.8794 -0.3783
   45MOL   C23133759   4.151   0.083   0.365 -0.3283 -1.1064  0.5236
   45MOL   C23233760   4.109   0.016   0.234 -0.1023  0.0208 -0.2114
   45MOL   C23333761   3.964   0.001   0.212  0.2651 -0.0296 -0.6397
   45MOL   C23433762   4.172   0.086   0.110 -0.2534  0.1675 -0.2726
   45MOL   C23533763   4.325   0.097   0.122 -0.4632  0.8623  0.6771
   45MOL   C23633764   4.363   0.161   0.261 -0.7441 -0.1078 -0.0943
   45MOL   C23733765   4.515   0.177   0.286  0.0752 -0.1095  0.1866
   45MOL   O23833766   4.543   0.249   0.405 -0.0213 -0.6113  0.0660
   45MOL   C23933767   4.659   0.234   0.471  0.1708 -0.1390  0.4952
   45MOL   O24033768   4.756   0.170   0.429 -0.0175 -0.2489 -0.6527
   45MOL   C24133769   4.659   0.297   0.611 -0.0026  0.2853  0.2795
   45MOL   C24233770   4.758   0.266   0.707  0.1168  0.2202  0.1499
   45MOL   C24333771   4.760   0.321   0.834  0.3158 -0.1897 -0.5149
   45MOL   C24433772   4.656   0.416   0.869  0.2142 -0.7311 -1.1396
   45MOL   C24533773   4.651   0.470   1.008  0.3045  0.5604 -0.3831
   45MOL   O24633774   4.552   0.535   1.044 -0.2196  0.4473  0.1562
   45MOL   O24733775   4.761   0.446   1.073 -0.4674  0.0747 -0.9782
   45MOL   C24833776   4.562   0.455   0.772 -0.2794 -0.2918 -0.3601
   45MOL   C24933777   4.562   0.395   0.646  0.2821  0.6213  0.2165
   45MOL   H25033778   4.344   8.017   0.395 -1.0872  0.3706  1.0968
   45MOL   H25133779   4.313   0.137   0.478 -0.5493  0.0586  0.1898
   45MOL   H25233780   4.110   0.183   0.352  0.4349 -0.9523 -0.8110
   45MOL   H25333781   4.096   0.056   0.455 -0.3793  2.5878  1.6488
   45MOL   H25433782   4.149   7.947   0.241  1.2957  0.5396 -0.5497
   45MOL   H25533783   3.910   7.960   0.272  0.4589 -0.7723 -1.3567
   45MOL   H25633784   3.946   7.999   0.110 -0.7014  2.7434 -1.4550
   45MOL   H25733785   4.140   0.191   0.107 -1.1931 -0.0927  0.2846
   45MOL   H25833786   4.145   0.036   0.017  1.2043 -0.2169 -0.5037
   45MOL   H25933787   4.366   8.028   0.118 -0.7525  0.7042  1.5765
   45MOL   H26033788   4.363   0.150   0.035 -0.1117  0.3042  0.4897
   45MOL   H26133789   4.312   0.257   0.258 -1.2471 -0.2200  2.9140
   45MOL   H26233790   4.551   0.226   0.196 -1.3043  0.7028  0.0695
   45MOL   H26333791   4.562   0.080   0.303  0.0318 -0.0295  0.8004
   45MOL   H26433792   4.835   0.192   0.690  0.8192  0.5480  1.8380
   45MOL   H26533793   4.835   0.311   0.911 -0.0384  1.7834  0.1284
   45MOL   H26633794   4.482   0.520   0.802  2.2537  2.1606  1.3184
   45MOL   H26733795   4.480   0.424   0.582 -1.1070 -1.3963  1.0114
   45MOL   C26833796   4.656   0.125   1.389 -0.4610  0.7341  0.5959
   45MOL   C26933797   4.643   0.259   1.311  0.8649  0.3017 -0.6758
   45MOL   C27033798   4.779   0.332   1.285 -0.1847  0.1181  0.4268
   45MOL   C27133799   4.773   0.465   1.213 -0.2144  0.1313 -0.1698
   45MOL   C27233800   4.859   0.345   1.417  0.2766  0.2829  0.0753
   45MOL   C27333801   4.866   0.218   1.504 -0.1705 -0.1096 -0.2713
   45MOL   C27433802   4.734   0.143   1.518 -0.0403 -0.0172  0.4913
   45MOL   C27533803   4.772   0.007   1.580 -0.1189 -0.1697 -0.0115
   45MOL   O27633804   4.666   7.994   1.667  0.2910 -0.2343 -0.2721
   45MOL   C27733805   4.672   8.031   1.792  0.3299 -0.2536  0.0443
   45MOL   O27833806   4.773   0.051   1.844 -0.2820 -0.0596  0.6522
   45MOL   C27933807   4.552   8.006   1.873 -0.0345 -0.3031 -0.5341
   45MOL   C28033808   4.425   7.971   1.814 -0.1841 -0.1441  0.7052
   45MOL   C28133809   4.304   7.962   1.883 -0.9973  0.3879 -0.5507
   45MOL   C28233810   4.303   7.986   2.026 -0.1134 -0.8568 -0.5956
   45MOL   C28333811   4.174   7.989   2.107 -0.5026  0.3973 -0.5230
   45MOL   O28433812   4.176   7.999   2.228 -0.3106  0.3852  0.4361
   45MOL   O28533813   4.058   7.990   2.026 -0.3609 -0.0991 -0.1966
   45MOL   C28633814   4.426   8.010   2.090  0.2146 -0.2231  0.5205
   45MOL   C28733815   4.550   8.022   2.012 -0.3742  0.0040 -0.2549
   45MOL   H28833816   4.682   0.045   1.319  0.9097  0.5597  1.2748
   45MOL   H28933817   4.555   0.101   1.422  0.2659 -1.1129  1.5896
   45MOL   H29033818   4.584   0.330   1.369  3.3502  1.6529  0.2598
   45MOL   H29133819   4.603   0.235   1.212  3.4141 -3.9230 -0.8010
   45MOL   H29233820   4.835   0.262   1.224 -0.9108 -0.3800  0.3224
   45MOL   H29333821   4.874   0.506   1.218  0.3402 -1.2138 -0.0598
   45MOL   H29433822   4.704   0.538   1.256  1.7831 -0.4009  4.1932
   45MOL   H29533823   4.809   0.421   1.477 -0.2164  0.9010 -1.0896
   45MOL   H29633824   4.959   0.383   1.398  0.1350  1.8834  2.3177
   45MOL   H29733825   4.939   0.151   1.458  0.3003 -0.5684  1.1214
   45MOL   H29833826   4.904   0.247   1.602 -0.9661 -0.2537  0.0890
   45MOL   H29933827   4.669   0.206   1.578  0.8169  1.2292  0.1360
   45MOL   H30033828   4.864   0.017   1.638 -0.9519 -0.1528  1.3198
   45MOL   H30133829   4.811   7.962   1.514  1.5417 -0.1638  0.9403
   45MOL   H30233830   4.421   7.946   1.709 -1.7009  1.8615  0.2441
   45MOL   H30333831   4.223   7.927   1.821 -1.2301 -2.8083  1.4296
   45MOL   H30433832   4.428   0.013   2.192 -1.5387  2.8817 -0.4521
   45MOL   H30533833   4.642   0.009   2.066 -1.3082  0.8341  1.0658
   45MOL   C30633834   3.659   0.222   1.946 -0.1879 -0.2762  0.4088
   45MOL   C30733835   3.735   0.142   2.050  0.8186  0.2305  0.2308
   45MOL   C30833836   3.840   0.049   1.988  0.0287  0.4721  0.5603
   45MOL   C30933837   3.933   8.006   2.088  0.2729  0.1852  0.0926
   45MOL   C31033838   3.773   7.982   1.884 -0.1515 -0.6514  0.2025
   45MOL   C31133839   3.702   0.029   1.773 -0.1273  0.5178 -0.4930
   45MOL   C31233840   3.598   0.124   1.836 -0.5905 -0.0494 -0.7457
   45MOL   C31333841   3.515   0.208   1.737 -0.3685  0.2464  0.3355
   45MOL   O31433842   3.417   0.278   1.799  0.2201  0.1017 -0.6263
   45MOL   C31533843   3.390   0.403   1.783 -0.4170 -0.0276  0.5196
   45MOL   O31633844   3.454   0.481   1.714  0.1679  0.0188 -0.4761
   45MOL   C31733845   3.275   0.455   1.856 -0.6329 -0.2446 -0.2262
   45MOL   C31833846   3.242   0.596   1.861  0.4654  0.2825 -0.2810
   45MOL   C31933847   3.133   0.645   1.939  0.3580 -0.8931  0.3211
   45MOL   C32033848   3.047   0.560   2.009 -0.5038  0.6313 -0.1417
   45MOL   C32133849   2.912   0.607   2.073 -0.5935 -0.1826 -0.3089
   45MOL   O32233850   2.862   0.550   2.168  0.0535  0.3692 -0.5728
   45MOL   O32333851   2.867   0.721   2.020 -0.1915 -0.0394  0.2679
   45MOL   C32433852   3.078   0.422   2.005  0.5232 -0.5666  0.6276
   45MOL   C32533853   3.189   0.373   1.933 -0.1620  0.0339  0.1081
   45MOL   H32633854   3.724   0.295   1.897 -1.0182  1.7035  2.1769
   45MOL   H32733855   3.581   0.273   2.002 -0.0924 -0.7319  0.9630
   45MOL   H32833856   3.677   0.079   2.118 -1.1947 -0.0910 -1.7255
   45MOL   H32933857   3.776   0.217   2.118 -1.5243  2.3761 -0.6497
   45MOL   H33033858   3.905   0.113   1.928 -0.5255 -0.2136 -0.8188
   45MOL   H33133859   3.894   7.909   2.122  0.5247 -0.4986 -1.5208
   45MOL   H33233860   3.948   0.034   2.178  0.0263  2.7277 -1.5130
   45MOL   H33333861   3.700   7.929   1.945  0.4947  1.7384  3.1950
   45MOL   H33433862   3.850   7.914   1.848  0.0836 -1.5986  2.4487
   45MOL   H33533863   3.770   0.078   1.704  1.7313 -1.4444 -0.0751
   45MOL   H33633864   3.637   7.999   1.711  2.3116 -1.6682 -0.9340
   45MOL   H33733865   3.538   0.069   1.909  0.1564  1.1199  0.7762
   45MOL   H33833866   3.467   0.145   1.662  0.7474  0.5556 -0.6695
   45MOL   H33933867   3.589   0.264   1.679  0.2107 -0.8089  0.0343
   45MOL   H34033868   3.297   0.666   1.800  0.0360 -0.8951 -2.0577
   45MOL   H34133869   3.109   0.749   1.924  3.5079 -0.3536 -1.4018
   45MOL   H34233870   3.010   0.352   2.050  0.4107 -1.3238 -0.6786
   45MOL   H34333871   3.201   0.265   1.933 -1.9334 -0.2189 -2.6141
   45MOL   C34433872   2.855   1.177   2.073 -0.0014 -0.1003 -0.0148
   45MOL   C34533873   2.860   1.032   2.121  0.0320  0.3888 -0.4922
   45MOL   C34633874   2.774   0.939   2.038  0.1151  0.0168  0.8545
   45MOL   C34733875   2.767   0.793   2.081  0.6516 -0.4225 -0.4406
   45MOL   C34833876   2.639   1.002   2.016  0.1027 -0.2189 -0.2170
   45MOL   C34933877   2.632   1.143   1.962  0.5239 -0.0033  0.0328
   45MOL   C35033878   2.714   1.237   2.044  0.4346  0.0531  0.0775
   45MOL   C35133879   2.712   1.377   1.977 -0.1416 -0.6820  0.0383
   45MOL   O35233880   2.780   1.372   1.853  0.2989 -0.2424  0.3380
   45MOL   C35333881   2.716   1.396   1.740 -0.3007  0.1406 -0.2629
   45MOL   O35433882   2.604   1.444   1.726  0.4201 -0.2424  0.4030
   45MOL   C35533883   2.796   1.356   1.615 -0.2946  0.4265 -0.1823
   45MOL   C35633884   2.899   1.259   1.634  0.1600 -0.3787 -0.0568
   45MOL   C35733885   2.975   1.231   1.523 -0.1114 -0.0283 -0.6309
   45MOL   C35833886   2.943   1.281   1.393  0.2823  1.1463  0.3237
   45MOL   C35933887   3.019   1.250   1.270  0.0057  0.2399 -0.1621
   45MOL   O36033888   2.987   1.287   1.161 -0.1465  0.3608  0.1921
   45MOL   O36133889   3.123   1.170   1.300  0.3089  0.1008  0.5817
   45MOL   C36233890   2.835   1.371   1.381  0.7496  0.1013 -0.4607
   45MOL   C36333891   2.761   1.410   1.491  0.2611 -0.6544 -0.6936
   45MOL   H36433892   2.919   1.169   1.985  0.6691 -0.1815  0.4788
   45MOL   H36533893   2.903   1.249   2.140  1.1987 -0.3714 -0.5614
   45MOL   H36633894   2.825   1.027   2.224  2.8037  1.3120  0.5257
   45MOL   H36733895   2.962   0.994   2.126  0.0525  0.6376  1.3042
   45MOL   H36833896   2.828   0.934   1.944 -0.1125 -1.7684  0.7955
   45MOL   H36933897   2.676   0.735   2.064  1.4545 -1.8333 -0.0199
   45MOL   H37033898   2.792   0.795   2.187  1.1805  0.4436 -0.5739
   45MOL   H37133899   2.567   0.999   2.097 -0.2483 -0.0332 -0.5181
   45MOL   H37233900   2.602   0.931   1.942  3.7514 -1.4074 -1.0083
   45MOL   H37333901   2.665   1.137   1.858 -0.1173  0.7878 -0.2172
   45MOL   H37433902   2.526   1.162   1.946 -0.0615 -3.8785 -1.2810
   45MOL   H37533903   2.662   1.242   2.139  1.6391 -1.0972  0.8230
   45MOL   H37633904   2.768   1.443   2.044 -1.0673 -2.0407  2.2229
   45MOL   H37733905   2.609   1.412   1.977 -0.2940 -1.1217  0.1640
   45MOL   H37833906   2.914   1.212   1.730 -2.1902 -2.1901 -0.5035
   45MOL   H37933907   3.062   1.168   1.535  0.3345  0.5303 -0.8941
   45MOL   H38033908   2.804   1.415   1.287 -1.4413 -0.4615 -0.0169
   45MOL   H38133909   2.679   1.479   1.484  0.9749  0.0406 -2.4455
   45MOL   C38233910   3.495   0.936   1.397  0.9071  0.4671  0.0097
   45MOL   C38333911   3.359   0.966   1.335 -0.5635 -0.4940 -0.7605
   45MOL   C38433912   3.354   1.090   1.250  0.0825  0.8308 -0.0425
   45MOL   C38533913   3.215   1.124   1.193  0.2656 -0.0169  1.1193
   45MOL   C38633914   3.420   1.214   1.319  0.6730  0.5985 -0.2093
   45MOL   C38733915   3.565   1.179   1.356 -0.0529 -0.0495  0.5350
   45MOL   C38833916   3.574   1.057   1.447 -0.1638  0.1298 -0.1613
   45MOL   C38933917   3.714   1.018   1.488  0.4677 -0.1666 -0.2411
   45MOL   O39033918   3.722   0.926   1.599 -0.0440  0.4016 -0.0347
   45MOL   C39133919   3.736   0.979   1.725  0.1224 -0.0029 -0.2256
   45MOL   O39233920   3.742   1.104   1.747  0.8561 -0.2187 -0.4001
   45MOL   C39333921   3.733   0.869   1.830  0.0372 -0.5880 -0.2048
   45MOL   C39433922   3.811   0.886   1.944  0.0504  0.5225 -0.0408
   45MOL   C39533923   3.814   0.782   2.040  0.2682  0.2297 -0.8580
   45MOL   C39633924   3.734   0.670   2.031 -0.4358 -0.4871 -0.6535
   45MOL   C39733925   3.727   0.579   2.152  0.2206 -0.1989  0.9259
   45MOL   O39833926   3.806   0.586   2.248 -0.5435  0.0053 -0.5066
   45MOL   O39933927   3.629   0.493   2.140  0.3230  0.2263 -0.8889
   45MOL   C40033928   3.656   0.651   1.920  0.0394  0.4257 -0.1844
   45MOL   C40133929   3.664   0.746   1.813 -0.1305 -0.8672 -0.3764
   45MOL   H40233930   3.543   0.899   1.306  1.2645  0.8157  0.0535
   45MOL   H40333931   3.496   0.852   1.466  1.6595  1.3864  1.1494
   45MOL   H40433932   3.296   0.991   1.420  0.2966 -1.4065  0.1614
   45MOL   H40533933   3.315   0.880   1.283  0.2131 -0.8626 -0.8152
   45MOL   H40633934   3.403   1.072   1.155 -0.3703  3.2721 -0.7924
   45MOL   H40733935   3.181   1.040   1.132 -0.4984 -0.4503  2.1233
   45MOL   H40833936   3.228   1.202   1.118 -0.1882 -1.8127 -0.8802
   45MOL   H40933937   3.367   1.240   1.410 -0.4135  0.4340 -0.7918
   45MOL   H41033938   3.415   1.286   1.238  2.1227 -0.0263 -0.8678
   45MOL   H41133939   3.614   1.168   1.260 -0.7712  0.0580  0.1480
   45MOL   H41233940   3.606   1.263   1.412 -1.6365 -0.2732  2.0913
   45MOL   H41333941   3.529   1.086   1.542  0.9194 -0.3645  0.5163
   45MOL   H41433942   3.776   1.106   1.506  1.2338 -0.5905 -0.7445
   45MOL   H41533943   3.754   0.970   1.399 -0.9518  1.0052 -1.5384
   45MOL   H41633944   3.872   0.974   1.958  1.1184 -0.1839 -0.1802
   45MOL   H41733945   3.865   0.795   2.135  1.0350  2.9819 -1.6064
   45MOL   H41833946   3.591   0.565   1.909  2.4489 -1.7397  1.9555
   45MOL   H41933947   3.601   0.735   1.726 -0.8024  1.4520 -0.2125
   45MOL   C42033948   3.296   0.532   2.510  0.2637 -0.0169 -0.3972
   45MOL   C42133949   3.407   0.452   2.446  0.4959 -0.0373 -0.0707
   45MOL   C42233950   3.469   0.519   2.318 -0.1658 -0.1137  0.1985
   45MOL   C42333951   3.576   0.426   2.258  0.2930 -0.7575  0.1715
   45MOL   C42433952   3.349   0.560   2.222 -0.2722  0.0612 -0.2613
   45MOL   C42533953   3.244   0.645   2.294 -0.1402  0.2545  0.4564
   45MOL   C42633954   3.186   0.571   2.417  0.1734  0.6315 -0.2565
   45MOL   C42733955   3.087   0.652   2.499 -0.6666  0.0051  0.3203
   45MOL   O42833956   3.121   0.782   2.544  0.2793  0.2254 -0.1568
   45MOL   C42933957   3.071   0.891   2.486  0.4884 -0.3288  0.4856
   45MOL   O43033958   3.007   0.892   2.377  0.2946  0.2832  0.1645
   45MOL   C43133959   3.119   1.016   2.563  0.1125  0.2138 -0.1531
   45MOL   C43233960   3.162   1.011   2.698 -0.2237 -0.3841 -0.7270
   45MOL   C43333961   3.195   1.133   2.764 -0.2748  0.4888 -0.0096
   45MOL   C43433962   3.190   1.254   2.699 -0.3132 -0.0150  0.2761
   45MOL   C43533963   3.244   1.376   2.770  0.4108 -0.0385 -0.6021
   45MOL   O43633964   3.290   1.371   2.882  0.0179  0.2475  0.1696
   45MOL   O43733965   3.235   1.487   2.694  0.5799 -0.0413 -0.2280
   45MOL   C43833966   3.128   1.260   2.573 -0.9282  0.8997 -0.6391
   45MOL   C43933967   3.088   1.146   2.510  0.1154  0.0618  0.6037
   45MOL   H44033968   3.349   0.625   2.533 -2.0282  1.6010 -1.4170
   45MOL   H44133969   3.263   0.490   2.605 -2.3717 -0.7549 -1.5833
   45MOL   H44233970   3.377   0.348   2.434  0.0130 -0.3022  3.0963
   45MOL   H44333971   3.481   0.449   2.525  0.3459  0.1862  0.0762
   45MOL   H44433972   3.517   0.605   2.364  0.2425 -0.8470  1.1746
   45MOL   H44533973   3.536   0.327   2.237 -1.3935 -0.1524  0.4061
   45MOL   H44633974   3.658   0.406   2.326 -0.2263 -0.3380  0.9309
   45MOL   H44733975   3.321   0.468   2.172  1.6388 -1.2318  0.9480
   45MOL   H44833976   3.393   0.614   2.138  0.7234  1.4624  1.1271
   45MOL   H44933977   3.287   0.739   2.328  0.1047 -0.0463  0.9882
   45MOL   H45033978   3.161   0.673   2.228 -1.3538 -1.6970  1.1125
   45MOL   H45133979   3.140   0.479   2.379  2.0779 -1.3905  2.1097
   45MOL   H45233980   3.060   0.591   2.586 -0.2301 -0.1803  0.3256
   45MOL   H45333981   2.997   0.662   2.438 -0.1004 -0.9746 -0.7106
   45MOL   H45433982   3.180   0.917   2.748  0.2996  0.4126  0.6130
   45MOL   H45533983   3.233   1.139   2.865  0.5912  1.4918 -0.3864
   45MOL   H45633984   3.107   1.359   2.535  1.1528  2.0437  1.0579
   45MOL   H45733985   3.035   1.151   2.416  0.6887  1.7337  0.3486
   45MOL   C45833986   3.417   1.945   2.591 -0.7920 -0.2620  0.0449
   45MOL   C45933987   3.414   1.818   2.682 -0.3335  0.2601 -0.4661
   45MOL   C46033988   3.336   1.701   2.631 -0.0613  0.2997 -0.1249
   45MOL   C46133989   3.317   1.594   2.741 -0.0137  0.1791  0.0561
   45MOL   C46233990   3.202   1.755   2.581 -0.6600 -0.2562  0.0605
   45MOL   C46333991   3.217   1.866   2.470 -0.4099  0.0447 -0.4834
   45MOL   C46433992   3.283   1.992   2.527  0.3433  0.2557  0.2671
   45MOL   C46533993   3.293   2.112   2.438  0.3237  0.0385 -0.3136
   45MOL   O46633994   3.314   2.233   2.517 -0.2207 -0.1553 -0.0189
   45MOL   C46733995   3.436   2.291   2.534 -0.6836  1.1440 -0.3432
   45MOL   O46833996   3.539   2.262   2.466 -0.3076 -0.2499  0.0626
   45MOL   C46933997   3.431   2.404   2.625  0.4531  0.6120 -0.5012
   45MOL   C47033998   3.553   2.471   2.654 -0.0203 -0.2111 -0.1705
   45MOL   C47133999   3.554   2.573   2.754  0.3752  0.1703 -0.1509
   45MOL   C47234000   3.429   2.613   2.813  0.4595 -0.1416 -0.2337
   45MOL   C47334001   3.419   2.721   2.918  0.1545  0.9999  0.3935
   45MOL   O47434002   3.318   2.759   2.966  0.1772  0.3542 -0.1224
   45MOL   O47534003   3.528   2.782   2.944  0.4788 -0.0203 -0.1988
   45MOL   C47634004   3.310   2.543   2.780  0.8280 -0.1639  0.1839
   45MOL   C47734005   3.308   2.448   2.682 -0.3932 -0.7177 -0.9354
   45MOL   H47834006   3.480   1.930   2.504  0.2939  1.2426  0.5493
   45MOL   H47934007   3.464   2.024   2.650 -0.3878  0.6310 -1.4391
   45MOL   H48034008   3.376   1.849   2.779 -1.2345  1.3434 -1.1455
   45MOL   H48134009   3.518   1.791   2.699 -0.9496 -2.7729 -1.2082
   45MOL   H48234010   3.399   1.659   2.553 -0.0478  0.7942 -0.3778
   45MOL   H48334011   3.279   1.637   2.834  1.3857 -1.0667  1.2343
   45MOL   H48434012   3.411   1.549   2.773 -0.9443 -1.8631 -0.0320
   45MOL   H48534013   3.134   1.786   2.660  0.6832  2.7048  0.1223
   45MOL   H48634014   3.153   1.674   2.525 -0.3920 -0.2462 -0.1902
   45MOL   H48734015   3.287   1.838   2.392  0.1437  1.6075 -0.5670
   45MOL   H48834016   3.124   1.886   2.415 -1.5292 -1.7902  0.6966
   45MOL   H48934017   3.228   2.022   2.617 -0.3061  1.8951 -0.6499
   45MOL   H49034018   3.192   2.133   2.403  0.0926  0.4354  0.5994
   45MOL   H49134019   3.368   2.098   2.359  0.2775 -2.2250  0.0102
   45MOL   H49234020   3.649   2.439   2.616 -0.2806 -1.4625  0.1908
   45MOL   H49334021   3.643   2.630   2.774 -1.2429  2.7796 -0.1744
   45MOL   H49434022   3.217   2.582   2.820  0.2939 -2.4679  1.2545
   45MOL   H49534023   3.211   2.409   2.654 -0.0558 -0.2524 -2.8165
   45MOL   C49634024   3.844   3.117   2.898  0.0787  0.9902 -0.5346
   45MOL   C49734025   3.709   3.033   2.888  0.0423 -0.3318 -0.4385
   45MOL   C49834026   3.663   2.975   3.029  0.1713  0.4514 -0.7737
   45MOL   C49934027   3.528   2.907   3.015 -0.0894 -0.3523 -0.0736
   45MOL   C50034028   3.770   2.881   3.084  0.7911 -0.2087  0.1425
   45MOL   C50134029   3.904   2.956   3.092  0.0250 -0.6901 -0.6821
   45MOL   C50234030   3.951   3.016   2.960 -0.3127  0.4112  0.1250
   45MOL   C50334031   4.090   3.081   2.976  0.3138  0.7896 -0.8155
   45MOL   O50434032   4.147   3.095   2.850  0.0946 -0.5945 -0.2378
   45MOL   C50534033   4.194   3.206   2.812  0.3395 -0.1330  0.1091
   45MOL   O50634034   4.209   3.303   2.883  0.3619 -0.1698  0.2094
   45MOL   C50734035   4.228   3.209   2.664  0.0540  0.5494 -0.2901
   45MOL   C50834036   4.247   3.091   2.589 -0.0553  0.4276  0.3437
   45MOL   C50934037   4.275   3.097   2.450  0.5179  0.8487  0.1151
   45MOL   C51034038   4.292   3.217   2.382  0.0343 -0.6854 -0.5939
   45MOL   C51134039   4.330   3.222   2.247  0.0290  0.2894  0.2116
   45MOL   O51234040   4.306   3.314   2.172 -0.0147 -1.0161 -0.3430
   45MOL   O51334041   4.400   3.112   2.204  0.3293  0.6830 -0.4183
   45MOL   C51434042   4.265   3.334   2.451 -0.0074  0.3320 -0.1803
   45MOL   C51534043   4.234   3.330   2.589  0.9099  0.4540  0.0595
   45MOL   H51634044   3.842   3.212   2.950  0.0220  1.1630 -0.8474
   45MOL   H51734045   3.856   3.145   2.793 -1.4960  1.5655 -0.5821
   45MOL   H51834046   3.739   2.953   2.819  1.0441 -0.6525  0.3438
   45MOL   H51934047   3.636   3.090   2.832 -0.8611 -0.9083  0.1413
   45MOL   H52034048   3.631   3.057   3.093  0.3477  0.0232 -0.1273
   45MOL   H52134049   3.458   2.971   2.961  0.0707  1.3442  1.6572
   45MOL   H52234050   3.489   2.909   3.117 -1.8806  0.4036 -0.7520
   45MOL   H52334051   3.774   2.785   3.032 -1.4012 -1.1103  1.5548
   45MOL   H52434052   3.734   2.844   3.180  2.5580 -0.9543  0.5300
   45MOL   H52534053   3.907   3.041   3.161  3.8025 -0.9410 -0.4294
   45MOL   H52634054   3.980   2.887   3.129  0.2231  0.2847  0.7788
   45MOL   H52734055   3.963   2.933   2.891 -0.5541 -0.2644  0.8844
   45MOL   H52834056   4.151   3.013   3.036  1.6568  1.4787 -1.3808
   45MOL   H52934057   4.069   3.171   3.033 -1.5392  0.1692 -0.4866
   45MOL   H53034058   4.231   2.995   2.635 -3.4888  0.3405 -0.8684
   45MOL   H53134059   4.294   3.002   2.402  1.1924 -0.1033  2.2257
   45MOL   H53234060   4.261   3.433   2.407  1.3047  1.9752  3.2356
   45MOL   H53334061   4.202   3.423   2.632 -1.5381 -1.0355  1.6036
   45MOL   C53434062   4.659   2.849   1.883 -0.1843  0.4201 -0.6125
   45MOL   C53534063   4.565   2.963   1.905 -0.0310  0.2787 -0.4350
   45MOL   C53634064   4.535   2.986   2.055  0.0602  0.1059 -0.0374
   45MOL   C53734065   4.435   3.103   2.066  0.1329 -0.3446 -0.4732
   45MOL   C53834066   4.480   2.857   2.123  0.2688  0.2290 -0.3758
   45MOL   C53934067   4.565   2.736   2.092  0.1893 -0.0227 -0.3846
   45MOL   C54034068   4.606   2.714   1.942  0.4960 -0.7771  0.0244
   45MOL   C54134069   4.670   2.578   1.905 -1.2447 -0.7423 -0.1022
   45MOL   O54234070   4.798   2.560   1.960 -0.1291 -0.0796 -0.3831
   45MOL   C54334071   4.913   2.590   1.896 -0.2842  0.1241 -0.1029
   45MOL   O54434072   4.919   2.640   1.785 -0.3149  0.2900  0.3100
   45MOL   C54534073   5.032   2.565   1.980 -0.1553  0.2361 -0.9380
   45MOL   C54634074   5.156   2.606   1.928 -1.2926  0.5328  0.3887
   45MOL   C54734075   5.276   2.574   2.001 -0.2919  0.0448  0.0471
   45MOL   C54834076   5.273   2.510   2.126  0.9271  0.1579  0.4289
   45MOL   C54934077   5.406   2.497   2.194 -0.5152 -0.0004 -0.0578
   45MOL   O55034078   5.510   2.548   2.152 -0.4556  0.0564  0.3084
   45MOL   O55134079   5.399   2.429   2.304  0.3995  0.2228 -0.0635
   45MOL   C55234080   5.145   2.474   2.185  0.7484 -0.0056  1.1066
   45MOL   C55334081   5.027   2.497   2.106 -0.4493  0.3464 -0.4541
   45MOL   H55434082   4.751   2.871   1.937 -0.5621  2.5720 -0.8386
   45MOL   H55534083   4.690   2.846   1.779 -1.9384  1.2596 -1.1791
   45MOL   H55634084   4.473   2.943   1.850 -0.7007 -1.7638  1.3332
   45MOL   H55734085   4.606   3.049   1.853  1.2039 -0.3713 -0.5491
   45MOL   H55834086   4.628   3.017   2.102  1.0521 -1.3358 -0.9801
   45MOL   H55934087   4.349   3.090   2.000  2.0582 -1.5969 -2.8541
   45MOL   H56034088   4.477   3.197   2.029  0.4939 -0.2092  0.2618
   45MOL   H56134089   4.378   2.832   2.094  0.1723 -1.6687  1.5512
   45MOL   H56234090   4.476   2.867   2.231  3.7239 -1.5216 -0.0172
   45MOL   H56334091   4.657   2.754   2.148  0.2583 -1.6138  0.0653
   45MOL   H56434092   4.522   2.640   2.121 -2.8552  0.9611 -1.4515
   45MOL   H56534093   4.510   2.697   1.892 -0.7307 -0.3001  2.1599
   45MOL   H56634094   4.669   2.562   1.797  2.3509  2.9930 -0.8170
   45MOL   H56734095   4.606   2.500   1.945 -0.7918 -1.8249 -1.4534
   45MOL   H56834096   5.176   2.656   1.834  0.1662  1.8971  1.4080
   45MOL   H56934097   5.374   2.612   1.975 -0.2533  1.3761  2.0470
   45MOL   H57034098   5.127   2.433   2.283  1.5937 -0.0712  1.2300
   45MOL   H57134099   4.933   2.474   2.153 -0.8778 -0.5709 -1.7209
   45MOL   C57234100   5.371   2.061   2.529  0.3983 -0.3040 -0.3356
   45MOL   C57334101   5.406   2.163   2.422  0.1995  0.5021 -0.2420
   45MOL   C57434102   5.471   2.289   2.483  0.1521 -0.2245 -0.8543
   45MOL   C57534103   5.515   2.390   2.375  0.0869 -0.0648 -0.0486
   45MOL   C57634104   5.389   2.357   2.598 -0.1876  0.0641 -0.3281
   45MOL   C57734105   5.321   2.250   2.692 -0.7802 -0.0916 -0.8685
   45MOL   C57834106   5.266   2.130   2.623  0.0711 -0.3843 -0.3346
   45MOL   C57934107   5.197   2.030   2.722  0.0132 -0.0362  0.3983
   45MOL   O58034108   5.271   2.024   2.844 -0.2246  0.7305  0.2233
   45MOL   C58134109   5.221   1.968   2.951  1.1470  0.6605  0.0497
   45MOL   O58234110   5.116   1.893   2.944  0.8089 -0.3184 -0.3692
   45MOL   C58334111   5.291   2.019   3.080  0.0714  0.4865  0.5613
   45MOL   C58434112   5.389   2.116   3.083 -0.0149  0.7775 -0.6783
   45MOL   C58534113   5.460   2.147   3.205  0.7012  0.4559 -0.5775
   45MOL   C58634114   5.427   2.085   3.329 -0.3134  0.3049 -0.2985
   45MOL   C58734115   5.496   2.121   3.448  0.2084 -0.2991 -0.4480
   45MOL   O58834116   5.436   2.148   3.552 -0.4056 -0.0994 -0.0606
   45MOL   O58934117   5.627   2.143   3.424 -0.4052  0.0757  0.6576
   45MOL   C59034118   5.317   1.996   3.329  0.1752  0.0208  0.4470
   45MOL   C59134119   5.254   1.964   3.203 -0.1140  0.1383 -0.4119
   45MOL   H59234120   5.468   2.046   2.576 -0.1634  0.8951  1.2221
   45MOL   H59334121   5.342   1.968   2.480 -0.6636 -0.2716  0.2331
   45MOL   H59434122   5.323   2.186   2.355 -1.9844  1.0481  2.5736
   45MOL   H59534123   5.477   2.119   2.351  0.1018 -0.2974  0.1595
   45MOL   H59634124   5.570   2.266   2.524  0.1767 -0.1572 -0.8772
   45MOL   H59734125   5.592   2.349   2.310  1.1299  1.6240  0.0894
   45MOL   H59834126   5.563   2.477   2.421 -0.8224  0.8923 -0.8838
   45MOL   H59934127   5.321   2.425   2.548 -1.1497  0.0726  0.9729
   45MOL   H60034128   5.448   2.433   2.650  0.7121 -0.1337 -1.0490
   45MOL   H60134129   5.409   2.228   2.752 -1.3165 -1.1825 -0.4726
   45MOL   H60234130   5.251   2.297   2.761 -0.8424  1.4650 -1.9753
   45MOL   H60334131   5.185   2.168   2.560  0.6221  0.2386 -0.6643
   45MOL   H60434132   5.195   1.929   2.681 -1.2864 -0.3604  1.2342
   45MOL   H60534133   5.092   2.050   2.742 -0.2345 -1.3356  0.4372
   45MOL   H60634134   5.428   2.164   2.995 -1.0923  4.3084  0.6989
   45MOL   H60734135   5.546   2.211   3.196  0.0253  1.2854 -1.2264
   45MOL   H60834136   5.300   1.937   3.418 -1.3860  0.6163  0.5662
   45MOL   H60934137   5.176   1.890   3.209 -0.5129  0.3710 -2.3453
   45MOL   C61034138   5.837   2.527   3.394  0.3195  0.2873 -0.2301
   45MOL   C61134139   5.737   2.417   3.438 -0.0544  0.1014  0.4283
   45MOL   C61234140   5.806   2.286   3.490 -0.1950 -0.5293 -0.5796
   45MOL   C61334141   5.716   2.173   3.528  0.0361 -0.2327  0.1812
   45MOL   C61434142   5.912   2.229   3.396 -1.0649 -0.2734 -0.0115
   45MOL   C61534143   6.015   2.343   3.365 -0.1506  0.0192  0.1195
   45MOL   C61634144   5.954   2.474   3.307 -0.1972 -0.2939 -0.0001
   45MOL   C61734145   6.063   2.580   3.263  0.2405 -0.2056 -0.0699
   45MOL   O61834146   6.130   2.648   3.369  0.0796  0.1591 -0.7450
   45MOL   C61934147   6.263   2.633   3.391 -0.2928 -0.1324  0.3174
   45MOL   O62034148   6.333   2.567   3.313  0.9550  0.1149  0.0140
   45MOL   C62134149   6.310   2.714   3.511  0.3903  0.6819 -0.3789
   45MOL   C62234150   6.449   2.726   3.530 -0.2034  0.2235  0.1120
   45MOL   C62334151   6.503   2.810   3.632 -0.8706  0.1524 -0.5559
   45MOL   C62434152   6.421   2.873   3.726  0.5304 -0.2859  0.2118
   45MOL   C62534153   6.476   2.971   3.822 -0.3955 -0.6445  0.5882
   45MOL   O62634154   6.405   3.038   3.899  0.1517 -0.1002  0.3631
   45MOL   O62734155   6.612   2.980   3.813 -0.2931  0.1690  0.2598
   45MOL   C62834156   6.279   2.846   3.720 -0.6280 -0.7429 -0.4489
   45MOL   C62934157   6.224   2.760   3.616 -1.0183 -0.2136 -0.6924
   45MOL   H63034158   5.872   2.584   3.481 -0.6538  2.2845 -1.1086
   45MOL   H63134159   5.794   2.607   3.333 -0.7229  1.0265  1.4370
   45MOL   H63234160   5.675   2.386   3.354 -0.5725 -0.1229  0.8981
   45MOL   H63334161   5.673   2.458   3.516  1.8834  0.7862  1.6994
   45MOL   H63434162   5.863   2.310   3.580  1.3008 -1.8810 -1.1463
   45MOL   H63534163   5.664   2.217   3.612 -0.3759  0.3999 -0.4018
   45MOL   H63634164   5.764   2.081   3.562 -4.6386 -1.8794  2.6813
   45MOL   H63734165   5.878   2.184   3.303 -1.4267  0.0333 -0.0283
   45MOL   H63834166   5.968   2.152   3.450 -0.8343  0.3071  0.5805
   45MOL   H63934167   6.067   2.374   3.456 -1.0442 -0.9680  0.9833
   45MOL   H64034168   6.095   2.311   3.299 -0.6219 -1.2176  0.1336
   45MOL   H64134169   5.906   2.441   3.215 -1.0623  2.9366 -0.7563
   45MOL   H64234170   6.018   2.664   3.209  0.3527  0.6974  1.2158
   45MOL   H64334171   6.136   2.537   3.194 -0.3099  0.0024 -0.7927
   45MOL   H64434172   6.509   2.682   3.451 -0.9555  2.2101 -1.6322
   45MOL   H64534173   6.603   2.850   3.633 -1.1663  0.8605  1.3331
   45MOL   H64634174   6.214   2.897   3.790  1.9397  2.7547 -0.4611
   45MOL   H64734175   6.117   2.746   3.603 -1.1070  0.4421 -0.6913
   45MOL   C64834176   7.069   3.129   3.920 -0.1963 -1.0895 -0.2700
   45MOL   C64934177   6.924   3.131   3.961  1.1238  0.6176 -0.9699
   45MOL   C65034178   6.839   3.059   3.859 -0.7199  0.5176  0.1742
   45MOL   C65134179   6.693   3.056   3.905  0.3825 -0.0667  0.2160
   45MOL   C65234180   6.854   3.125   3.718 -0.2774 -0.1241  0.6800
   45MOL   C65334181   7.002   3.146   3.686  0.1682  0.1850  0.3159
   45MOL   C65434182   7.084   3.217   3.796  0.2783  0.1022 -0.3718
   45MOL   C65534183   7.237   3.247   3.764 -0.0159 -0.4186  0.7944
   45MOL   O65634184   7.299   3.335   3.859  0.8174 -0.7529  0.1248
   45MOL   C65734185   7.252   3.460   3.882 -0.3132  0.3474  0.1550
   45MOL   O65834186   7.169   3.517   3.816 -0.2083 -0.6960  0.1615
   45MOL   C65934187   7.312   3.528   4.003  0.2360  0.1080  0.3857
   45MOL   C66034188   7.295   3.669   4.028 -0.0440  0.5928 -0.7750
   45MOL   C66134189   7.358   3.728   4.140  0.3404 -0.3031  0.2355
   45MOL   C66234190   7.435   3.651   4.228 -0.1144  0.3538 -0.1634
   45MOL   C66334191   7.504   3.725   4.344 -0.3215  0.0651 -0.0155
   45MOL   O66434192   7.531   3.842   4.342 -0.0320  0.1594  0.3378
   45MOL   O66534193   7.521   3.645   4.454 -0.2286 -0.1835 -0.6830
   45MOL   C66634194   7.432   3.508   4.210  0.5969  0.2008  0.3824
   45MOL   C66734195   7.382   3.448   4.095 -0.0413  0.6345  0.3352
   45MOL   H66834196   7.104   3.027   3.907  2.0805 -0.7543  2.6820
   45MOL   H66934197   7.122   3.169   4.006  0.7198 -0.1758 -1.2533
   45MOL   H67034198   6.891   3.234   3.973  1.6273  0.8000 -1.1205
   45MOL   H67134199   6.916   3.095   4.064  1.5791  0.5146 -0.9701
   45MOL   H67234200   6.883   2.959   3.862 -0.4641  0.6516  0.9381
   45MOL   H67334201   6.656   3.159   3.902  1.0784  0.1552 -1.2844
   45MOL   H67434202   6.687   3.011   4.004 -2.4441 -1.8930 -0.7431
   45MOL   H67534203   6.788   3.211   3.706  1.3619  0.8354 -1.8978
   45MOL   H67634204   6.808   3.055   3.648  0.0951  0.0040  0.3063
   45MOL   H67734205   7.044   3.047   3.668  2.5380  1.4835 -1.6228
   45MOL   H67834206   7.007   3.201   3.592 -0.2508  0.7556  0.6255
   45MOL   H67934207   7.045   3.317   3.817 -3.2329 -1.1935 -0.3318
   45MOL   H68034208   7.250   3.302   3.671  2.3712  0.1020  1.4004
   45MOL   H68134209   7.294   3.155   3.774 -0.3700 -0.4416  2.7821
   45MOL   H68234210   7.237   3.729   3.959  0.7261  1.4212 -0.7033
   45MOL   H68334211   7.359   3.835   4.153 -0.7175 -0.5653  2.8942
   45MOL   H68434212   7.482   3.453   4.289 -1.2927 -0.3930  1.1865
   45MOL   H68534213   7.385   3.343   4.070 -0.6509  0.8265 -0.5482
   45MOL   C68634214   7.241   3.788   4.769  0.2478 -0.1260  0.3624
   45MOL   C68734215   7.376   3.811   4.685  1.1340  0.4238 -0.8478
   45MOL   C68834216   7.449   3.679   4.669 -0.3569  0.0256  0.3304
   45MOL   C68934217   7.570   3.693   4.577  0.0751 -0.0075 -1.0655
   45MOL   C69034218   7.487   3.631   4.808  0.4515  0.1997  0.6541
   45MOL   C69134219   7.375   3.607   4.901 -0.5086  0.0616 -0.7649
   45MOL   C69234220   7.277   3.722   4.901  0.4819 -0.0760 -0.2443
   45MOL   C69334221   7.146   3.680   4.964 -0.7272  0.3508  0.0210
   45MOL   O69434222   7.157   3.629   5.097  0.7668 -0.3770 -0.6738
   45MOL   C69534223   7.110   3.689   5.207  0.1657  0.2011  0.3832
   45MOL   O69634224   7.081   3.809   5.220  0.1168 -0.0602 -0.2271
   45MOL   C69734225   7.091   3.589   5.322 -0.0343  0.2828  0.1032
   45MOL   C69834226   7.111   3.446   5.306  0.2653 -0.1924 -0.2646
   45MOL   C69934227   7.100   3.357   5.413 -0.1237  0.1171  0.2697
   45MOL   C70034228   7.069   3.410   5.542 -0.1711  0.3205 -0.0838
   45MOL   C70134229   7.050   3.315   5.655 -0.3727 -0.0632  0.5403
   45MOL   O70234230   7.034   3.361   5.765  0.7292 -0.6956  0.4395
   45MOL   O70334231   7.051   3.192   5.618 -0.0726 -0.2077 -0.2886
   45MOL   C70434232   7.049   3.548   5.561 -0.4233 -0.6477 -0.2987
   45MOL   C70534233   7.052   3.638   5.448  0.3658 -0.2223  0.0551
   45MOL   H70634234   7.179   3.727   4.703 -0.6411  1.4312 -0.2747
   45MOL   H70734235   7.185   3.879   4.788  0.7011 -0.0769  1.4675
   45MOL   H70834236   7.433   3.890   4.735  0.0985  0.2164  0.6872
   45MOL   H70934237   7.346   3.840   4.584  0.7806 -1.0816 -1.1950
   45MOL   H71034238   7.372   3.616   4.623 -0.9432 -1.1253  2.8160
   45MOL   H71134239   7.656   3.631   4.603 -0.1807  0.2947  0.5621
   45MOL   H71234240   7.611   3.793   4.581  3.2622 -1.2735 -0.7610
   45MOL   H71334241   7.556   3.698   4.859  1.5232 -0.5254  0.1805
   45MOL   H71434242   7.537   3.535   4.813 -0.8300 -0.6798 -2.0498
   45MOL   H71534243   7.328   3.515   4.869  0.0960  0.0723 -1.6948
   45MOL   H71634244   7.413   3.582   5.000  0.2549  0.0285 -1.0654
   45MOL   H71734245   7.316   3.805   4.960  0.6467 -1.2726  1.3619
   45MOL   H71834246   7.098   3.607   4.899 -1.9080  1.6193 -0.5358
   45MOL   H71934247   7.073   3.760   4.969 -0.7026  0.3641  0.1601
   45MOL   H72034248   7.124   3.405   5.207 -0.4095  0.1098 -0.4810
   45MOL   H72134249   7.096   3.253   5.385  0.5685  0.2728 -0.4047
   45MOL   H72234250   7.019   3.586   5.658  1.6714  1.7124 -0.5204
   45MOL   H72334251   7.018   3.739   5.458  0.3711 -0.3463  1.3607
   45MOL   C72434252   6.985   2.709   5.722  0.1776 -0.5647 -0.7483
   45MOL   C72534253   7.015   2.849   5.767  0.1061 -0.1414  0.0900
   45MOL   C72634254   7.018   2.957   5.651  0.3178  0.9157  0.1564
   45MOL   C72734255   7.035   3.091   5.718  0.3577  0.2697  0.2644
   45MOL   C72834256   7.146   2.912   5.567 -0.1385  0.0046  0.0576
   45MOL   C72934257   7.105   2.776   5.505 -0.4683 -1.0077 -0.5074
   45MOL   C73034258   7.083   2.664   5.612 -0.6089  0.2384 -0.6502
   45MOL   C73134259   7.041   2.534   5.548 -0.0635  0.0070 -0.0926
   45MOL   O73234260   6.922   2.542   5.467  0.6934 -0.6929 -0.8044
   45MOL   C73334261   6.799   2.524   5.516 -0.4239  0.8080 -0.1176
   45MOL   O73434262   6.780   2.478   5.630 -0.1332  0.0459 -0.2376
   45MOL   C73534263   6.692   2.544   5.424  0.0249  0.3168 -0.2697
   45MOL   C73634264   6.703   2.632   5.312  0.2818 -0.2614  0.0845
   45MOL   C73734265   6.598   2.662   5.227 -0.0016  0.7655 -0.4773
   45MOL   C73834266   6.475   2.590   5.243 -0.0403  0.1034 -0.0500
   45MOL   C73934267   6.373   2.596   5.134  0.1134  0.2262  0.8193
   45MOL   O74034268   6.261   2.542   5.142  0.4673  0.4208 -0.0547
   45MOL   O74134269   6.399   2.683   5.032 -0.0071 -0.5542  0.2608
   45MOL   C74234270   6.461   2.501   5.351 -0.4405 -0.2189 -0.1889
   45MOL   C74334271   6.567   2.485   5.443 -0.7028  0.2615  0.1339
   45MOL   H74434272   6.881   2.713   5.691  0.2108 -0.1062 -0.8073
   45MOL   H74534273   6.983   2.642   5.809 -2.8510 -2.7904 -2.4071
   45MOL   H74634274   7.106   2.847   5.828  0.1216 -2.7262  0.0065
   45MOL   H74734275   6.935   2.868   5.838 -1.8881 -1.2130 -1.8363
   45MOL   H74834276   6.933   2.945   5.583 -1.0383  1.1648  1.7707
   45MOL   H74934277   7.117   3.099   5.789 -0.0500 -3.5313  1.2673
   45MOL   H75034278   6.941   3.096   5.773 -0.5668 -1.5408 -1.0783
   45MOL   H75134279   7.229   2.896   5.636  0.8212  0.7658 -0.9202
   45MOL   H75234280   7.162   2.983   5.486  1.7651  0.5049  0.8490
   45MOL   H75334281   7.020   2.780   5.438  0.9844 -0.4059 -2.3362
   45MOL   H75434282   7.184   2.746   5.437 -0.5496 -2.5160  0.0486
   45MOL   H75534283   7.181   2.655   5.658 -0.6026  1.4276 -0.4191
   45MOL   H75634284   7.045   2.446   5.612 -0.8872 -1.2317 -1.7102
   45MOL   H75734285   7.120   2.514   5.475  1.6537  0.7668  1.5364
   45MOL   H75834286   6.791   2.688   5.286  0.7404 -0.8393  0.3847
   45MOL   H75934287   6.613   2.722   5.139  0.7316 -1.0953 -1.6472
   45MOL   H76034288   6.364   2.456   5.362 -0.6536 -0.1556 -1.6102
   45MOL   H76134289   6.539   2.413   5.518 -0.8902  0.0816 -0.1089
   45MOL   H76234290   6.326   2.684   4.971  1.2072 -0.9252 -1.2438
   46MOL     C134291   0.368   7.518   5.745  0.0355 -0.3137  0.1480
   46MOL     C234292   0.454   7.602   5.650 -0.3295 -0.4174 -0.1971
   46MOL     C334293   0.538   7.712   5.722  0.4613  0.3525 -0.4264
   46MOL     C434294   0.610   7.805   5.633  0.1412  0.3276  0.0917
   46MOL     C534295   0.436   7.798   5.804 -0.3037 -0.5725  0.6503
   46MOL     C634296   0.336   7.725   5.890 -0.0263  0.3551 -0.0126
   46MOL     C734297   0.261   7.603   5.816  0.1123 -0.2043 -0.1072
   46MOL     C834298   0.175   7.519   5.915 -0.8860  0.6448  0.2165
   46MOL     O934299   0.072   7.607   5.967  0.2768  0.7131  0.5661
   46MOL    C1034300   7.997   7.631   5.897  0.3819  0.0763  0.2585
   46MOL    O1134301   7.976   7.581   5.789  0.3345  0.2188 -0.7570
   46MOL    C1234302   7.901   7.730   5.963  0.3612  0.2406  0.4111
   46MOL    C1334303   7.937   7.805   6.080  0.2731  0.9644 -0.2775
   46MOL    C1434304   7.843   7.890   6.143  0.6865 -0.1744  0.3169
   46MOL    C1534305   7.714   7.900   6.092  0.9730 -0.3983 -0.4800
   46MOL    C1634306   7.618   7.999   6.156 -0.2234 -0.1434  0.0666
   46MOL    O1734307   7.635   0.030   6.257 -0.6726 -0.7550  0.5073
   46MOL    O1834308   7.505   8.014   6.091  0.2814  0.8623  0.8270
   46MOL    C1934309   7.681   7.827   5.971 -0.5676 -0.1925 -0.6822
   46MOL    C2034310   7.773   7.740   5.907 -0.4179 -0.0249  0.7615
   46MOL    H2134311   0.436   7.476   5.820  0.0999 -0.8194 -0.1881
   46MOL    H2234312   0.315   7.445   5.684  0.0940 -0.1676 -0.0766
   46MOL    H2334313   0.385   7.641   5.575  1.6421  1.6395 -0.9844
   46MOL    H2434314   0.519   7.531   5.599  0.5546  0.0538  0.2754
   46MOL    H2534315   0.598   7.666   5.801 -2.0308 -1.2746  0.5879
   46MOL    H2634316   0.680   7.754   5.567  0.0496 -0.5616  0.6701
   46MOL    H2734317   0.665   7.880   5.691  1.3415 -0.2596 -0.2766
   46MOL    H2834318   0.381   7.865   5.739 -0.9929 -0.4566  1.3578
   46MOL    H2934319   0.490   7.869   5.866 -0.2515 -1.4910  1.6671
   46MOL    H3034320   0.389   7.680   5.974  0.2353  2.0828  0.7703
   46MOL    H3134321   0.263   7.794   5.934  1.0036  0.4082  1.6574
   46MOL    H3234322   0.204   7.656   5.740 -0.9946  0.0914  0.8999
   46MOL    H3334323   0.231   7.495   6.006  0.9220  1.3708 -0.6654
   46MOL    H3434324   0.136   7.424   5.880 -0.4150 -0.7586  3.2591
   46MOL    H3534325   0.002   7.790   6.123  0.1842  1.3473  0.0575
   46MOL    H3634326   7.882   7.951   6.224  0.4914  1.1382 -0.5599
   46MOL    H3734327   7.581   7.848   5.934 -0.4753  0.7148 -0.4209
   46MOL    H3834328   7.752   7.688   5.814  4.7937 -1.6151  0.3041
   46MOL    H3934329   0.541   7.856   5.566  1.9344  0.7958 -1.4477
   46MOL    C4034330   7.053   8.022   6.000  0.3739  0.1346 -0.1656
   46MOL    C4134331   7.180   8.006   6.073 -0.1130  0.2705 -0.2858
   46MOL    C4234332   7.283   0.076   6.031 -0.2308  0.8631  0.1444
   46MOL    C4334333   7.401   0.079   6.130 -0.1281  0.7559 -0.4512
   46MOL    C4434334   7.316   0.084   5.880  0.0584  0.6030  0.4893
   46MOL    C4534335   7.184   0.101   5.804 -0.3946  0.0397  0.0941
   46MOL    C4634336   7.080   8.023   5.846 -0.1862  0.7008 -0.6562
   46MOL    C4734337   6.960   8.019   5.749  0.0377 -0.0709 -0.4148
   46MOL    O4834338   6.889   0.109   5.758  0.1914 -0.0465  0.3167
   46MOL    C4934339   6.887   0.194   5.653 -0.1807  0.1173 -0.2350
   46MOL    O5034340   6.953   0.174   5.553 -0.1417  0.2395 -0.5318
   46MOL    C5134341   6.799   0.312   5.674  0.0351  0.3816 -0.3610
   46MOL    C5234342   6.711   0.324   5.784 -0.3619  1.0072 -0.2116
   46MOL    C5334343   6.610   0.427   5.779  0.2109 -0.4033  0.5436
   46MOL    C5434344   6.621   0.528   5.681 -1.1357 -0.7827  0.3680
   46MOL    C5534345   6.541   0.649   5.707 -0.0767  0.2700  0.3328
   46MOL    O5634346   6.552   0.748   5.628 -0.4081 -0.1900  0.2719
   46MOL    O5734347   6.441   0.641   5.800  0.1390  0.0658 -0.1843
   46MOL    C5834348   6.718   0.527   5.581 -0.0291  0.8614 -0.0906
   46MOL    C5934349   6.801   0.412   5.575 -0.1209  0.1746  0.5620
   46MOL    H6034350   7.014   0.085   6.036  2.2875  1.1126 -0.5732
   46MOL    H6134351   6.987   7.939   6.021 -0.1590  0.1550 -1.6949
   46MOL    H6234352   7.225   7.910   6.049 -1.3109 -0.9689  2.2207
   46MOL    H6334353   7.163   8.012   6.181 -1.7173  1.4229 -0.5690
   46MOL    H6434354   7.230   0.167   6.059 -0.0354  1.6509 -1.8937
   46MOL    H6534355   7.371   0.058   6.232  2.7959 -3.4486 -0.2920
   46MOL    H6634356   7.453   0.175   6.128  1.4063 -0.0230  0.6437
   46MOL    H6734357   7.381   0.000   5.854  1.2862  1.7691 -0.2531
   46MOL    H6834358   7.373   0.173   5.852 -2.2162  2.4287  1.5838
   46MOL    H6934359   7.131   0.193   5.828 -1.5429 -0.4312 -0.5821
   46MOL    H7034360   7.199   0.107   5.696 -0.8912 -0.0990  0.0147
   46MOL    H7134361   7.131   7.927   5.835  0.4492  1.1457 -1.6268
   46MOL    H7234362   6.891   7.937   5.773 -0.9775  1.2988  1.4439
   46MOL    H7334363   6.997   7.990   5.650 -0.4487  0.4134 -0.7377
   46MOL    H7434364   6.706   0.255   5.867 -4.9878  1.3357 -0.0670
   46MOL    H7534365   6.541   0.450   5.859  0.0250  1.4901 -0.1323
   46MOL    H7634366   6.724   0.610   5.512 -1.9570  0.5754 -0.6331
   46MOL    H7734367   6.878   0.408   5.499  0.2422  1.7298  0.8334
   46MOL    C7834368   6.038   0.757   6.052 -0.2103 -0.4907  0.3044
   46MOL    C7934369   6.118   0.786   5.927 -0.1457  0.2222  0.6397
   46MOL    C8034370   6.250   0.712   5.936  0.1870 -0.5924  0.1579
   46MOL    C8134371   6.339   0.744   5.820 -0.3885  0.5996  0.0610
   46MOL    C8234372   6.333   0.756   6.060  0.3663 -0.5408  0.4594
   46MOL    C8334373   6.243   0.756   6.191  0.2520  0.4988  0.2266
   46MOL    C8434374   6.106   0.826   6.172  0.4729 -0.2264  0.8387
   46MOL    C8534375   6.026   0.817   6.308 -0.6581  0.4074 -0.3602
   46MOL    O8634376   5.888   0.846   6.277  0.0451  0.3311 -0.1364
   46MOL    C8734377   5.792   0.798   6.360 -0.3502  0.0566  0.5347
   46MOL    O8834378   5.822   0.734   6.461  0.2295  0.3437  0.0116
   46MOL    C8934379   5.652   0.812   6.304 -0.1745  0.3346 -0.0952
   46MOL    C9034380   5.639   0.861   6.172  0.9490  0.9483 -0.2942
   46MOL    C9134381   5.505   0.869   6.118 -0.8803 -0.3676 -0.4447
   46MOL    C9234382   5.395   0.818   6.185  0.1125 -0.1838  0.2819
   46MOL    C9334383   5.258   0.824   6.126 -0.0775  0.1207  0.1832
   46MOL    O9434384   5.241   0.876   6.017  0.0688  0.7560  0.1994
   46MOL    O9534385   5.160   0.769   6.197  0.0876  0.0287  0.6145
   46MOL    C9634386   5.410   0.769   6.319  0.0484 -0.5543 -0.3271
   46MOL    C9734387   5.543   0.766   6.383  0.1718 -0.2805 -0.2192
   46MOL    H9834388   6.023   0.650   6.065  2.0882 -0.5891  2.3660
   46MOL    H9934389   5.935   0.792   6.039 -0.2744 -1.2003 -1.2411
   46MOL   H10034390   6.130   0.894   5.917  0.1479  0.1544  0.2344
   46MOL   H10134391   6.067   0.743   5.840 -1.2657 -0.6200  1.7103
   46MOL   H10234392   6.232   0.605   5.945 -2.0509 -0.2163  0.3848
   46MOL   H10334393   6.378   0.846   5.820  4.7833 -1.1866  1.7642
   46MOL   H10434394   6.275   0.732   5.732  0.8335  1.3204 -0.9415
   46MOL   H10534395   6.374   0.856   6.051  0.9322 -0.7733  0.4309
   46MOL   H10634396   6.420   0.691   6.068  1.8577  1.2926 -0.5244
   46MOL   H10734397   6.224   0.650   6.211  1.3422  0.3497  0.4895
   46MOL   H10834398   6.301   0.797   6.273  0.5346 -1.6700  1.1387
   46MOL   H10934399   6.118   0.932   6.152 -2.5530 -0.0770 -0.4617
   46MOL   H11034400   6.064   0.890   6.379 -3.4488  0.4782  1.1447
   46MOL   H11134401   6.021   0.719   6.356  0.4299  0.3965 -0.2732
   46MOL   H11234402   5.722   0.881   6.107  0.8439  2.6624  0.0585
   46MOL   H11334403   5.494   0.886   6.012 -2.7316  0.4367 -0.1350
   46MOL   H11434404   5.321   0.736   6.371  0.8286  0.0645  1.4329
   46MOL   H11534405   5.557   0.721   6.480 -2.2278 -1.3636 -0.3533
   46MOL   C11634406   4.978   0.368   6.190 -0.1922 -0.7998 -0.1746
   46MOL   C11734407   5.041   0.501   6.139 -0.9330  0.1463  0.3652
   46MOL   C11834408   4.963   0.624   6.181 -0.2435 -0.0712 -0.2901
   46MOL   C11934409   5.038   0.748   6.129  0.0906  0.0888 -0.5899
   46MOL   C12034410   4.813   0.610   6.151 -0.5058 -0.4503  0.5349
   46MOL   C12134411   4.757   0.477   6.211 -0.1950 -0.1108 -0.1562
   46MOL   C12234412   4.836   0.361   6.143 -0.3545  0.5811  0.0462
   46MOL   C12334413   4.776   0.226   6.173 -0.5302 -0.2450  0.2717
   46MOL   O12434414   4.787   0.199   6.313 -0.4476 -0.1301 -0.0378
   46MOL   C12534415   4.839   0.082   6.358 -0.7098 -0.1434  0.1636
   46MOL   O12634416   4.869   8.027   6.278  0.6959  0.7743  0.1822
   46MOL   C12734417   4.843   0.077   6.504 -0.4577  0.2663  0.2763
   46MOL   C12834418   4.829   7.985   6.571 -0.0799  0.4755 -0.2391
   46MOL   C12934419   4.821   7.986   6.712 -0.2663 -0.0726 -0.7161
   46MOL   C13034420   4.843   0.068   6.787  0.4117  0.1659 -0.1280
   46MOL   C13134421   4.864   0.061   6.938  0.0904  0.3662 -0.6536
   46MOL   O13234422   4.889   0.161   7.014  0.8056 -0.5587 -0.0143
   46MOL   O13334423   4.848   7.961   6.983  0.1590  0.0071  0.0275
   46MOL   C13434424   4.856   0.192   6.725  1.1767 -0.2379  0.4530
   46MOL   C13534425   4.856   0.198   6.581 -0.6792  0.3962  0.4318
   46MOL   H13634426   4.975   0.366   6.299  0.1176 -0.0346 -0.1481
   46MOL   H13734427   5.039   0.285   6.154 -0.7454 -0.5169 -1.7756
   46MOL   H13834428   5.051   0.494   6.031 -0.7741 -1.6759  0.4966
   46MOL   H13934429   5.142   0.513   6.180 -0.1849  0.2028 -1.4566
   46MOL   H14034430   4.964   0.632   6.289 -0.3372 -0.4922 -0.2557
   46MOL   H14134431   4.982   0.841   6.127  2.0165  1.3737  2.0600
   46MOL   H14234432   5.055   0.733   6.022 -0.2501  0.7826 -0.7442
   46MOL   H14334433   4.807   0.602   6.043 -1.2335  0.5666  0.4912
   46MOL   H14434434   4.766   0.702   6.186 -1.6535 -0.4805 -0.8900
   46MOL   H14534435   4.760   0.471   6.320 -1.0601  0.5378 -0.0888
   46MOL   H14634436   4.652   0.464   6.184  0.2920 -2.9473 -0.9192
   46MOL   H14734437   4.838   0.375   6.035  3.7682 -1.5215 -0.2478
   46MOL   H14834438   4.823   0.158   6.101  1.0749  2.5006 -1.3636
   46MOL   H14934439   4.669   0.222   6.150 -0.4132 -2.7520 -0.0367
   46MOL   H15034440   4.813   7.893   6.517  0.3835 -0.3214  0.9708
   46MOL   H15134441   4.790   7.893   6.758  2.1053 -0.9378 -0.7854
   46MOL   H15234442   4.856   0.283   6.783 -0.8013 -0.9953  1.7190
   46MOL   H15334443   4.877   0.298   6.545  2.5659 -0.3883  0.0052
   46MOL   C15434444   4.516   7.717   7.136  0.3442  0.4125  0.5566
   46MOL   C15534445   4.663   7.756   7.102  0.3840 -0.1099 -0.0906
   46MOL   C15634446   4.703   7.897   7.156 -0.2008  0.2672 -0.0883
   46MOL   C15734447   4.850   7.935   7.125  0.2703 -0.5215 -0.6869
   46MOL   C15834448   4.601   8.006   7.123 -0.6871 -0.5214 -0.5041
   46MOL   C15934449   4.462   7.966   7.141  0.0145 -0.1109  0.0494
   46MOL   C16034450   4.422   7.829   7.089  0.4006  0.9755  0.3561
   46MOL   C16134451   4.273   7.788   7.110  0.4393 -0.1198 -0.8057
   46MOL   O16234452   4.182   7.868   7.036  0.0296 -0.3788 -0.1121
   46MOL   C16334453   4.149   7.836   6.911 -1.0370  0.5249 -0.7190
   46MOL   O16434454   4.184   7.728   6.863  0.3123  0.2031  0.1058
   46MOL   C16534455   4.078   7.937   6.832  0.0322  0.0971 -0.4813
   46MOL   C16634456   4.018   7.909   6.706 -0.1611  0.5622  0.6370
   46MOL   C16734457   3.960   8.011   6.635  0.4572  0.3639  0.4236
   46MOL   C16834458   3.953   0.111   6.684  0.3009  0.0985  0.0331
   46MOL   C16934459   3.890   0.221   6.607 -0.9037  0.1333 -0.4032
   46MOL   O17034460   3.884   0.336   6.638 -0.4623 -0.4003 -0.1462
   46MOL   O17134461   3.840   0.176   6.480  0.2828 -0.1091 -0.2531
   46MOL   C17234462   3.991   0.136   6.814  0.0123 -0.2185 -0.0234
   46MOL   C17334463   4.046   0.031   6.893  0.1959 -0.0308  0.1984
   46MOL   H17434464   4.507   7.703   7.243 -0.3941  0.9055  0.5637
   46MOL   H17534465   4.484   7.623   7.092  0.1283  1.4768 -1.6402
   46MOL   H17634466   4.678   7.746   6.994 -2.2576 -1.5794 -0.3723
   46MOL   H17734467   4.721   7.673   7.143  0.6652  0.9438  1.6822
   46MOL   H17834468   4.700   7.898   7.265  3.9101 -0.7169  0.1208
   46MOL   H17934469   4.918   7.851   7.141 -0.7171 -1.4258 -1.1727
   46MOL   H18034470   4.881   8.019   7.187  0.4655 -1.7322  0.8930
   46MOL   H18134471   4.610   0.001   7.018 -1.5071 -2.1241 -1.0012
   46MOL   H18234472   4.626   0.065   7.177  1.2964 -1.1303 -0.3767
   46MOL   H18334473   4.448   7.977   7.248  2.8017 -1.8839  0.6397
   46MOL   H18434474   4.389   0.003   7.099 -0.2973 -1.5249 -1.8203
   46MOL   H18534475   4.444   7.829   6.982 -2.0792  2.0363 -0.1825
   46MOL   H18634476   4.250   7.782   7.216  1.3286 -1.1296 -0.6596
   46MOL   H18734477   4.271   7.684   7.076  0.7934 -0.9666  1.6255
   46MOL   H18834478   4.017   7.807   6.670  1.3777  1.3796 -1.8692
   46MOL   H18934479   3.921   7.997   6.535  1.3435  1.4423 -0.0973
   46MOL   H19034480   3.962   0.231   6.858 -3.2832 -1.1899 -0.0062
   46MOL   H19134481   4.069   0.056   6.995 -0.2577 -0.7294  0.4798
   46MOL   C19234482   3.667   0.039   6.099  0.5503 -0.6771  0.4866
   46MOL   C19334483   3.760   0.117   6.197 -0.1410  0.2019  1.1029
   46MOL   C19434484   3.677   0.202   6.303  0.8010 -0.2089 -0.4612
   46MOL   C19534485   3.778   0.273   6.390 -0.0065 -0.3321  0.1445
   46MOL   C19634486   3.587   0.294   6.221 -0.1426 -0.0217  0.1454
   46MOL   C19734487   3.502   0.225   6.116 -0.6684 -0.1439 -0.1370
   46MOL   C19834488   3.583   0.139   6.013  0.1925 -0.1880  0.4940
   46MOL   C19934489   3.506   0.064   5.914  0.0431 -0.6758  0.4688
   46MOL   O20034490   3.396   8.022   5.971  0.3208 -0.0986  0.2167
   46MOL   C20134491   3.289   7.991   5.901 -0.4351  0.3766  0.1380
   46MOL   O20234492   3.284   8.000   5.775  0.5203 -0.1159 -0.5707
   46MOL   C20334493   3.180   7.929   5.989  0.0567 -0.3407  0.2799
   46MOL   C20434494   3.169   7.960   6.129 -0.5172  0.2914 -0.4700
   46MOL   C20534495   3.061   7.902   6.205 -0.5118 -0.4508  0.4462
   46MOL   C20634496   2.968   7.818   6.152  0.4952 -1.0822  0.2335
   46MOL   C20734497   2.865   7.750   6.236 -0.4759 -0.0012 -0.9191
   46MOL   O20834498   2.775   7.690   6.187 -0.3000 -0.4018  0.9694
   46MOL   O20934499   2.890   7.761   6.372 -0.1863  0.3961  0.3966
   46MOL   C21034500   2.977   7.789   6.013 -0.4230 -0.0469  0.2732
   46MOL   C21134501   3.079   7.844   5.930 -0.0039 -0.9567 -0.4173
   46MOL   H21234502   3.606   8.012   6.167  1.1915  0.1809  1.8104
   46MOL   H21334503   3.739   8.011   6.044  0.0290 -0.1673 -0.7726
   46MOL   H21434504   3.823   0.173   6.128 -0.3548 -1.3472 -0.3708
   46MOL   H21534505   3.837   0.050   6.238  1.1654 -0.0190 -1.5727
   46MOL   H21634506   3.606   0.147   6.365 -0.0132 -0.9220 -2.0185
   46MOL   H21734507   3.732   0.354   6.446 -0.3206  1.6802 -2.8862
   46MOL   H21834508   3.846   0.318   6.318  0.6970 -0.2745  0.8377
   46MOL   H21934509   3.650   0.365   6.168  1.0477 -0.8201  0.4858
   46MOL   H22034510   3.520   0.350   6.286  0.4985  0.4597  0.3984
   46MOL   H22134511   3.437   0.153   6.164  1.5364 -1.5083  0.8993
   46MOL   H22234512   3.443   0.296   6.058 -1.0022 -0.8088 -0.6104
   46MOL   H22334513   3.658   0.195   5.958  0.0191 -0.0454  0.4022
   46MOL   H22434514   3.574   8.027   5.864 -1.8233 -4.7661  3.2855
   46MOL   H22534515   3.467   0.143   5.849 -2.3989 -1.6274  0.7369
   46MOL   H22634516   3.237   8.026   6.182 -0.1273 -0.1565 -0.4075
   46MOL   H22734517   3.060   7.911   6.313 -3.8002 -1.3620  0.5466
   46MOL   H22834518   2.906   7.724   5.964  1.8979 -3.0970  0.8394
   46MOL   H22934519   3.074   7.823   5.824  1.2621 -0.0777 -0.6530
   46MOL   C23034520   2.584   7.770   6.763  0.4316 -0.0337  0.0080
   46MOL   C23134521   2.653   7.679   6.662 -0.0592  0.0970  0.4150
   46MOL   C23234522   2.710   7.763   6.547  0.3826 -0.1962 -0.7169
   46MOL   C23334523   2.804   7.682   6.460 -0.3050 -0.4071  0.1300
   46MOL   C23434524   2.590   7.835   6.474 -1.4826 -0.4131 -0.0758
   46MOL   C23534525   2.519   7.929   6.576  0.3375  0.5351 -0.4368
   46MOL   C23634526   2.474   7.856   6.700  0.3360  0.2611  0.0410
   46MOL   C23734527   2.409   7.945   6.806 -0.1626  0.5072  0.6558
   46MOL   O23834528   2.331   7.857   6.886  0.5161  0.6957  0.0868
   46MOL   C23934529   2.263   7.904   6.994  0.5229  0.2553 -0.1480
   46MOL   O24034530   2.278   8.019   7.034 -0.8758 -0.1643  0.0822
   46MOL   C24134531   2.176   7.804   7.055  0.0029 -0.5455  0.0671
   46MOL   C24234532   2.113   7.826   7.177 -0.6730 -0.4978 -0.2870
   46MOL   C24334533   2.041   7.720   7.240  1.1675  0.1499 -0.4079
   46MOL   C24434534   2.020   7.594   7.174 -0.7567  0.0068  0.0498
   46MOL   C24534535   1.966   7.480   7.251 -0.3332  0.1774  0.1599
   46MOL   O24634536   1.903   7.492   7.357 -0.3655 -0.5756 -0.1306
   46MOL   O24734537   1.975   7.356   7.182  0.0057 -0.9547  0.3786
   46MOL   C24834538   2.067   7.587   7.038 -0.1878  0.3086  0.0303
   46MOL   C24934539   2.140   7.690   6.981 -0.5312 -0.5739  0.3610
   46MOL   H25034540   2.652   7.841   6.809  1.0528  0.5978 -1.8542
   46MOL   H25134541   2.542   7.715   6.847  1.3358  1.9889  1.7969
   46MOL   H25234542   2.578   7.613   6.619 -1.2456  1.2476  0.6941
   46MOL   H25334543   2.721   7.626   6.730 -1.0525  1.5644  2.6139
   46MOL   H25434544   2.766   7.852   6.579 -1.2984  0.5462  0.2041
   46MOL   H25534545   2.747   7.605   6.408  0.4720 -0.1410 -1.1444
   46MOL   H25634546   2.874   7.621   6.518 -0.1381 -3.0989 -2.7850
   46MOL   H25734547   2.517   7.759   6.445  0.2140 -2.3608  0.6102
   46MOL   H25834548   2.641   7.878   6.387  1.4001 -0.7197  1.4158
   46MOL   H25934549   2.601   7.994   6.608  1.8442 -1.0069 -1.0671
   46MOL   H26034550   2.437   7.986   6.531 -0.0623  0.0975 -0.2625
   46MOL   H26134551   2.406   7.780   6.662  0.3829 -0.4517  1.3535
   46MOL   H26234552   2.346   8.014   6.751  1.3382  0.4079 -1.2307
   46MOL   H26334553   2.485   8.003   6.858  1.3964 -0.2467 -0.7289
   46MOL   H26434554   2.128   7.914   7.237  0.3061 -0.6137 -0.3499
   46MOL   H26534555   1.998   7.733   7.338  0.9153  1.3544 -0.6674
   46MOL   H26634556   2.049   7.500   6.975 -2.1812 -1.4072  2.8416
   46MOL   H26734557   2.169   7.676   6.878 -1.8478  1.1454 -0.2574
   46MOL   C26834558   1.562   7.181   7.202 -0.4965  1.0987  1.0774
   46MOL   C26934559   1.678   7.240   7.268 -0.1234  0.4722 -0.5108
   46MOL   C27034560   1.801   7.172   7.209  0.2691  0.2717  0.6386
   46MOL   C27134561   1.937   7.238   7.249  0.7886 -0.1587 -0.3211
   46MOL   C27234562   1.800   7.017   7.222 -0.4277 -0.6331  0.2320
   46MOL   C27334563   1.666   6.947   7.174 -0.2674  0.3915  0.3248
   46MOL   C27434564   1.547   7.032   7.234  0.4855 -0.0798 -0.4012
   46MOL   C27534565   1.409   6.988   7.200 -0.1274 -0.3511 -0.5966
   46MOL   O27634566   1.395   6.971   7.059 -0.5107 -0.9090  0.4900
   46MOL   C27734567   1.285   7.027   6.997 -0.0667 -0.1416  0.4029
   46MOL   O27834568   1.188   7.069   7.058 -0.3345 -1.0365 -0.2399
   46MOL   C27934569   1.294   7.016   6.851 -1.2184  0.2942 -0.2518
   46MOL   C28034570   1.407   6.966   6.785  0.5165 -0.0300 -0.2903
   46MOL   C28134571   1.399   6.939   6.647 -0.5632  0.1079  0.2074
   46MOL   C28234572   1.290   6.972   6.565 -0.1514 -0.2430 -0.0162
   46MOL   C28334573   1.291   6.939   6.418  1.2609  0.4023  0.1836
   46MOL   O28434574   1.384   6.873   6.368  0.3369  0.1460  0.0263
   46MOL   O28534575   1.184   6.980   6.348 -0.1723  0.3031 -0.9635
   46MOL   C28634576   1.186   7.036   6.630 -0.3731 -0.4575 -0.2979
   46MOL   C28734577   1.188   7.057   6.772 -0.2084 -0.4219 -0.0467
   46MOL   H28834578   1.564   7.188   7.093 -0.3949 -0.4106  0.9610
   46MOL   H28934579   1.469   7.231   7.227 -0.7740  1.4006 -0.5512
   46MOL   H29034580   1.673   7.236   7.377 -1.7028  0.2333 -0.5781
   46MOL   H29134581   1.681   7.345   7.241  0.3076  0.4721 -0.4801
   46MOL   H29234582   1.791   7.189   7.102  2.3718  1.5276  0.6053
   46MOL   H29334583   2.019   7.170   7.223 -1.2726 -1.5068 -3.5844
   46MOL   H29434584   1.944   7.247   7.358  3.8289  1.6407 -0.6197
   46MOL   H29534585   1.808   6.996   7.329 -0.7929  1.5339  0.7015
   46MOL   H29634586   1.884   6.970   7.170  0.9915  1.7489  0.3311
   46MOL   H29734587   1.664   6.943   7.065 -2.1032  0.5383  0.3340
   46MOL   H29834588   1.657   6.845   7.212  0.5933 -0.5070 -1.8354
   46MOL   H29934589   1.554   7.011   7.340 -0.5684 -0.2429 -0.3654
   46MOL   H30034590   1.335   7.055   7.244 -0.7636 -0.0628 -2.0746
   46MOL   H30134591   1.404   6.886   7.237  3.2190 -1.3090 -2.5675
   46MOL   H30234592   1.499   6.935   6.833 -0.1188 -1.8150 -0.1758
   46MOL   H30334593   1.482   6.877   6.617  0.8048  0.2143  3.5746
   46MOL   H30434594   1.097   7.054   6.572  1.5176 -0.9539 -3.5246
   46MOL   H30534595   1.106   7.100   6.828 -0.1516 -3.0674  2.2069
   46MOL   C30634596   0.807   6.782   6.303 -0.4127  0.0615 -0.0700
   46MOL   C30734597   0.956   6.815   6.317  0.0377 -0.1841  0.4185
   46MOL   C30834598   1.010   6.907   6.210 -0.5178  0.3216  0.0562
   46MOL   C30934599   1.162   6.931   6.218 -0.1956  0.5050 -0.2552
   46MOL   C31034600   0.974   6.850   6.072 -0.7199  0.1574 -0.2735
   46MOL   C31134601   0.831   6.810   6.066 -0.4370 -0.3684  0.1112
   46MOL   C31234602   0.783   6.712   6.170  0.7012 -0.1261  0.6335
   46MOL   C31334603   0.640   6.656   6.142  0.0586 -0.3428 -0.0127
   46MOL   O31434604   0.657   6.555   6.040  0.3293  0.1700  0.0220
   46MOL   C31534605   0.591   6.435   6.032  0.5925 -0.3023 -0.1668
   46MOL   O31634606   0.516   6.395   6.123  0.0424 -0.0741  0.1240
   46MOL   C31734607   0.618   6.363   5.908  0.3875  0.1511  0.2761
   46MOL   C31834608   0.699   6.420   5.803  0.2520 -0.6910 -0.3006
   46MOL   C31934609   0.723   6.366   5.673  0.4505 -0.0588 -0.9823
   46MOL   C32034610   0.651   6.244   5.647  0.4231 -0.1999 -0.0960
   46MOL   C32134611   0.663   6.187   5.512 -0.4683 -0.3600 -0.2000
   46MOL   O32234612   0.754   6.214   5.437  0.4419  0.0042  0.7462
   46MOL   O32334613   0.562   6.098   5.477 -0.1141  0.5233  0.1490
   46MOL   C32434614   0.573   6.184   5.749  0.3710  0.0645 -0.9822
   46MOL   C32534615   0.563   6.238   5.879  0.5091  0.2951  0.7177
   46MOL   H32634616   0.747   6.873   6.311  0.6742  0.6833  1.3378
   46MOL   H32734617   0.791   6.718   6.389  0.8833  0.3530  0.3988
   46MOL   H32834618   1.005   6.718   6.304  1.6276  0.7995 -1.0368
   46MOL   H32934619   0.961   6.849   6.420 -1.3108 -1.7604  1.0414
   46MOL   H33034620   0.969   7.006   6.228  1.0177  1.0273 -0.2291
   46MOL   H33134621   1.192   7.011   6.149  0.1769  0.2270 -0.4182
   46MOL   H33234622   1.223   6.844   6.196  0.8560  1.1223  0.1943
   46MOL   H33334623   1.034   6.762   6.048  0.2825  1.0307 -0.9896
   46MOL   H33434624   0.996   6.908   5.982 -0.7240  0.9757  0.2447
   46MOL   H33534625   0.771   6.900   6.063  0.3451  0.1178 -1.3226
   46MOL   H33634626   0.816   6.765   5.968 -0.3910 -0.5755  0.1974
   46MOL   H33734627   0.850   6.628   6.155  0.1182 -0.2890 -1.1994
   46MOL   H33834628   0.573   6.730   6.099 -1.0444 -1.9550 -1.1253
   46MOL   H33934629   0.592   6.623   6.234  1.3215  0.7709  1.0792
   46MOL   H34034630   0.725   6.522   5.825  0.3609 -0.9451  0.7517
   46MOL   H34134631   0.786   6.415   5.600  1.5063 -0.2976 -0.2416
   46MOL   H34234632   0.509   6.099   5.727 -2.7706  1.2295  3.0120
   46MOL   H34334633   0.503   6.188   5.954  0.0047  0.7389  0.6091
   46MOL   C34434634   0.341   6.295   5.155  0.2427 -0.3864 -0.1819
   46MOL   C34534635   0.385   6.211   5.274  0.2265  0.0395  0.3467
   46MOL   C34634636   0.516   6.123   5.239 -0.0066 -0.1700 -0.0312
   46MOL   C34734637   0.566   6.025   5.352  0.4387 -0.6243  0.5074
   46MOL   C34834638   0.475   6.027   5.124 -0.3510  0.7647  0.4000
   46MOL   C34934639   0.427   6.110   5.005  0.1508 -0.0603  0.8975
   46MOL   C35034640   0.310   6.205   5.031  0.4579  0.2930 -0.0133
   46MOL   C35134641   0.270   6.285   4.904  0.1059  0.1807 -0.0740
   46MOL   O35234642   0.371   6.367   4.862 -0.2222 -0.2448 -0.1166
   46MOL   C35334643   0.434   6.339   4.746  0.2003  0.1039 -1.0220
   46MOL   O35434644   0.415   6.239   4.681  0.1890  0.1720 -0.5297
   46MOL   C35534645   0.522   6.451   4.701 -0.1333 -0.1957  0.7638
   46MOL   C35634646   0.523   6.581   4.770  0.0912 -0.1394 -0.8216
   46MOL   C35734647   0.593   6.688   4.714  0.5405  0.6081 -0.5196
   46MOL   C35834648   0.670   6.673   4.597 -0.7610 -0.8139  0.3407
   46MOL   C35934649   0.736   6.799   4.551 -0.3603  0.2716  0.2075
   46MOL   O36034650   0.713   6.914   4.598  0.0437 -0.4733  0.3509
   46MOL   O36134651   0.823   6.775   4.452  0.2009  0.0870  0.0962
   46MOL   C36234652   0.676   6.543   4.531 -0.3725 -0.1242 -0.4848
   46MOL   C36334653   0.594   6.442   4.576 -0.0312 -0.0342  0.0797
   46MOL   H36434654   0.417   6.370   5.135  0.2963 -0.0589  1.2251
   46MOL   H36534655   0.247   6.348   5.174 -0.3080 -1.2384 -0.4714
   46MOL   H36634656   0.306   6.147   5.312  0.9785 -0.8598  0.4139
   46MOL   H36734657   0.407   6.279   5.357 -0.2038  0.2627  0.2754
   46MOL   H36834658   0.585   6.195   5.196 -2.0906  1.7736 -0.2214
   46MOL   H36934659   0.661   5.981   5.323  1.2019  1.0144  0.4564
   46MOL   H37034660   0.502   5.939   5.375  0.1869 -1.2781 -2.5214
   46MOL   H37134661   0.388   5.977   5.168  0.2750 -0.6719  0.0286
   46MOL   H37234662   0.560   5.965   5.096  0.7171  2.3615  0.0684
   46MOL   H37334663   0.512   6.165   4.964  0.0670  0.3714  1.3005
   46MOL   H37434664   0.399   6.033   4.933 -2.3876  0.5427  1.1973
   46MOL   H37534665   0.222   6.152   5.067 -0.9657  2.0806 -0.7776
   46MOL   H37634666   0.190   6.346   4.945  0.0247  0.3187 -0.4367
   46MOL   H37734667   0.221   6.230   4.824  1.3825 -1.5336  0.2863
   46MOL   H37834668   0.449   6.595   4.848  0.4103  0.9766 -0.7151
   46MOL   H37934669   0.593   6.783   4.766 -3.3465  0.5954 -0.2966
   46MOL   H38034670   0.747   6.534   4.450  1.1142 -3.2902  1.0889
   46MOL   H38134671   0.582   6.356   4.510 -0.9675  1.0759 -1.2226
   46MOL   C38234672   0.882   7.072   4.050 -0.3817  0.4498 -0.6272
   46MOL   C38334673   0.940   7.011   4.179 -0.3673  0.0653  0.3422
   46MOL   C38434674   0.841   6.917   4.252  1.1427  0.0031  0.4110
   46MOL   C38534675   0.886   6.888   4.398  0.0229 -0.0334 -0.6182
   46MOL   C38634676   0.694   6.972   4.259  0.0251 -0.4908 -0.4748
   46MOL   C38734677   0.648   7.037   4.130  0.4724  0.0631 -0.6110
   46MOL   C38834678   0.745   7.140   4.078 -0.3422 -0.0230 -0.0876
   46MOL   C38934679   0.696   7.217   3.953 -0.2772  0.1852  0.1376
   46MOL   O39034680   0.575   7.279   3.978  0.0494 -0.8149 -0.2402
   46MOL   C39134681   0.508   7.339   3.878 -1.1791  0.0368  0.2860
   46MOL   O39234682   0.545   7.335   3.760  0.0189  0.4821  0.2825
   46MOL   C39334683   0.391   7.417   3.928  0.2437 -0.0581 -0.1594
   46MOL   C39434684   0.350   7.407   4.058  0.4054 -0.2351  0.0390
   46MOL   C39534685   0.242   7.483   4.108 -1.3617 -0.4443 -0.1727
   46MOL   C39634686   0.167   7.571   4.018 -1.1350  0.3798 -0.3223
   46MOL   C39734687   0.040   7.651   4.063  0.3359  0.1979 -0.1745
   46MOL   O39834688   7.991   7.707   3.986  0.0727 -0.6437  0.3101
   46MOL   O39934689   0.028   7.651   4.192  0.1669  0.1748  0.1400
   46MOL   C40034690   0.206   7.566   3.884  0.6320 -0.2548 -0.2840
   46MOL   C40134691   0.322   7.503   3.841  0.2825 -0.5686  0.1892
   46MOL   H40234692   0.880   6.985   3.984 -1.9364  1.0584 -1.4093
   46MOL   H40334693   0.951   7.145   4.007 -0.8198 -0.1680 -2.4356
   46MOL   H40434694   0.970   7.101   4.231 -1.2263  1.1939 -1.0843
   46MOL   H40534695   1.037   6.963   4.164 -1.2247 -1.3736 -0.8096
   46MOL   H40634696   0.833   6.829   4.188  0.3590  0.4858 -0.1712
   46MOL   H40734697   0.887   6.980   4.457 -2.2015 -0.1870 -0.3085
   46MOL   H40834698   0.985   6.843   4.392 -0.5459 -1.5422  0.8728
   46MOL   H40934699   0.692   7.052   4.333  0.7259  0.3945 -1.3951
   46MOL   H41034700   0.626   6.889   4.279 -1.8543  1.2608  0.6493
   46MOL   H41134701   0.632   6.963   4.051 -1.5404  0.9350 -1.0712
   46MOL   H41234702   0.553   7.089   4.142 -1.8282 -4.2260  0.6748
   46MOL   H41334703   0.746   7.212   4.160  2.5590 -0.4347  0.2935
   46MOL   H41434704   0.684   7.143   3.873 -1.0913  1.8950 -1.3526
   46MOL   H41534705   0.771   7.283   3.909 -0.1218  0.2214  0.4527
   46MOL   H41634706   0.388   7.336   4.131 -0.2408  0.3035  0.9105
   46MOL   H41734707   0.215   7.482   4.213  1.0986 -0.9106  0.4962
   46MOL   H41834708   0.150   7.626   3.814 -1.6175  0.5814  2.1636
   46MOL   H41934709   0.346   7.499   3.736 -0.3319  0.5948  0.0006
   46MOL   C42034710   7.999   7.638   4.618  0.1296  0.2337  0.6066
   46MOL   C42134711   8.029   7.677   4.476 -0.2024 -0.2956  0.5083
   46MOL   C42234712   7.905   7.660   4.387  0.3936 -0.5428  0.9110
   46MOL   C42334713   7.944   7.713   4.248  0.1208 -0.3438  0.3392
   46MOL   C42434714   7.867   7.511   4.383  0.1790  0.5239  0.8175
   46MOL   C42534715   7.844   7.455   4.527 -0.1158 -0.5899  0.4162
   46MOL   C42634716   7.960   7.485   4.625  0.2377 -0.2052  0.3835
   46MOL   C42734717   7.907   7.436   4.757 -0.4268  0.4283  0.2332
   46MOL   O42834718   8.010   7.409   4.846  0.3616 -0.3022 -0.3442
   46MOL   C42934719   7.991   7.421   4.979  0.0219  0.3659 -0.1382
   46MOL   O43034720   7.880   7.449   5.032  0.2020  0.4323  0.5064
   46MOL   C43134721   0.089   7.401   5.048  0.8241  0.2588 -0.4204
   46MOL   C43234722   0.092   7.420   5.185  0.2337  0.0480  0.1604
   46MOL   C43334723   0.205   7.393   5.263  0.9631 -0.4041 -0.1321
   46MOL   C43434724   0.327   7.374   5.194  0.0935  0.3092  0.0321
   46MOL   C43534725   0.450   7.386   5.275  0.1341 -0.3694  0.2983
   46MOL   O43634726   0.450   7.380   5.397 -1.2066 -0.5144  0.0949
   46MOL   O43734727   0.557   7.411   5.198 -0.4635 -0.5917  0.7152
   46MOL   C43834728   0.336   7.367   5.052 -0.1731  0.8828  0.0403
   46MOL   C43934729   0.212   7.383   4.983 -0.7946 -0.2048  0.4325
   46MOL   H44034730   7.916   7.702   4.648 -0.7385 -0.9186  0.6618
   46MOL   H44134731   0.051   7.652   4.686  0.3414 -0.3096  0.4556
   46MOL   H44234732   0.073   7.601   4.454 -0.5598 -1.4234  2.9565
   46MOL   H44334733   0.053   7.768   4.458 -1.8044  0.6817  0.4480
   46MOL   H44434734   7.821   7.720   4.424  0.2813  1.0342 -1.8001
   46MOL   H44534735   7.974   7.817   4.262  1.4165 -0.7821  0.9025
   46MOL   H44634736   7.856   7.713   4.184  2.6610 -1.8297 -3.3335
   46MOL   H44734737   7.958   7.463   4.347 -0.0073  0.1336  0.8650
   46MOL   H44834738   7.790   7.479   4.312 -0.7155  0.8907  1.6253
   46MOL   H44934739   7.749   7.495   4.562  0.5273  0.6755  0.7335
   46MOL   H45034740   7.835   7.348   4.509  0.7122 -0.5172 -0.4053
   46MOL   H45134741   0.012   7.421   4.600  0.4702  0.7024 -1.2048
   46MOL   H45234742   7.852   7.343   4.742 -0.6005  0.6907 -0.8499
   46MOL   H45334743   7.838   7.512   4.792  0.0603  0.9979 -0.0383
   46MOL   H45434744   0.001   7.425   5.245 -1.6139 -1.8019 -2.3951
   46MOL   H45534745   0.192   7.395   5.371 -4.2111  2.5024 -0.6153
   46MOL   H45634746   0.431   7.350   5.003  0.7276 -3.7888  3.0068
   46MOL   H45734747   0.213   7.386   4.875  1.1461 -0.5208  0.4279
   46MOL   C45834748   0.991   7.376   5.465 -0.0859 -0.7479 -0.2423
   46MOL   C45934749   0.896   7.468   5.385  0.2866 -0.8986 -0.1711
   46MOL   C46034750   0.778   7.380   5.331 -0.5243 -0.7210  0.0568
   46MOL   C46134751   0.676   7.468   5.256  0.4439  0.2323  0.6032
   46MOL   C46234752   0.827   7.263   5.252  0.8252  0.4859  0.0193
   46MOL   C46334753   0.915   7.167   5.329  0.3815  0.2746  0.0461
   46MOL   C46434754   1.035   7.249   5.382  0.2498 -0.2917 -0.4249
   46MOL   C46534755   1.121   7.154   5.472  0.6088 -0.3778  0.0095
   46MOL   O46634756   1.237   7.218   5.519  0.1396 -0.3366  0.0971
   46MOL   C46734757   1.292   7.179   5.629  0.3235 -0.7366 -0.1347
   46MOL   O46834758   1.272   7.065   5.666 -0.1206  0.0748 -0.3492
   46MOL   C46934759   1.372   7.274   5.702  0.6658  0.5919  0.1758
   46MOL   C47034760   1.379   7.408   5.657  0.2050  0.0894  0.4568
   46MOL   C47134761   1.465   7.502   5.714 -0.9462 -0.8379 -0.7177
   46MOL   C47234762   1.547   7.469   5.820  0.0191  0.2186 -0.7188
   46MOL   C47334763   1.648   7.562   5.889  0.1344 -0.7528  0.0904
   46MOL   O47434764   1.734   7.524   5.969 -0.3168  0.1799 -0.3244
   46MOL   O47534765   1.630   7.689   5.846 -0.4248 -0.3886  0.2003
   46MOL   C47634766   1.538   7.335   5.871 -0.0119 -0.0327 -0.6089
   46MOL   C47734767   1.453   7.240   5.814  0.1176 -0.2021 -0.0653
   46MOL   H47834768   0.942   7.354   5.560  0.6353 -3.0136 -0.3554
   46MOL   H47934769   1.081   7.428   5.498  0.6311 -2.4131  0.4761
   46MOL   H48034770   0.950   7.529   5.313  0.2468 -0.6947 -0.0281
   46MOL   H48134771   0.855   7.542   5.454 -0.1222  0.3988 -1.7948
   46MOL   H48234772   0.726   7.340   5.418 -0.4037 -1.5836 -0.2578
   46MOL   H48334773   0.729   7.515   5.174  2.2261  0.5388  1.9127
   46MOL   H48434774   0.644   7.542   5.330  0.5637 -0.3039  1.1912
   46MOL   H48534775   0.888   7.306   5.172  0.7304  0.5299 -0.0292
   46MOL   H48634776   0.750   7.214   5.192 -1.0512  1.8424  1.2561
   46MOL   H48734777   0.855   7.120   5.407 -2.8193 -0.8765 -2.9936
   46MOL   H48834778   0.948   7.089   5.260  0.7721  1.3235 -0.9625
   46MOL   H48934779   1.106   7.267   5.301  0.2296  2.8090  0.1616
   46MOL   H49034780   1.142   7.059   5.423  0.2879 -0.9436  0.9658
   46MOL   H49134781   1.065   7.126   5.561 -0.8105 -1.0510 -1.0686
   46MOL   H49234782   1.319   7.432   5.570 -0.0869  2.1219  1.1892
   46MOL   H49334783   1.459   7.603   5.674  2.1869  0.0987  0.9955
   46MOL   H49434784   1.589   7.316   5.964 -1.4681  1.3559  0.5155
   46MOL   H49534785   1.450   7.141   5.857 -0.5572 -0.6438 -1.1191
   46MOL   C49634786   2.087   7.879   5.825  0.3597 -1.1847 -0.6893
   46MOL   C49734787   1.953   7.875   5.906  0.0315  0.2011 -0.0272
   46MOL   C49834788   1.847   7.798   5.829  0.4161  0.3702 -0.2505
   46MOL   C49934789   1.709   7.796   5.900  0.3605  0.2292 -0.3755
   46MOL   C50034790   1.827   7.861   5.687  0.5453 -0.1072 -0.3515
   46MOL   C50134791   1.961   7.865   5.611 -0.2241 -0.3220 -0.5483
   46MOL   C50234792   2.075   7.943   5.685 -0.9906 -0.5588 -0.4662
   46MOL   C50334793   2.208   7.954   5.607  0.4597 -0.1322  0.6263
   46MOL   O50434794   2.200   0.015   5.497  0.7342  0.0517 -0.3953
   46MOL   C50534795   2.183   7.999   5.367 -0.0343  0.1426 -0.0099
   46MOL   O50634796   2.191   7.879   5.337  0.1045 -0.5229 -0.7121
   46MOL   C50734797   2.151   0.074   5.262  0.3339 -0.2378 -0.1580
   46MOL   C50834798   2.193   0.213   5.270  0.2235  0.0697  0.1002
   46MOL   C50934799   2.171   0.303   5.162  0.2672  0.0832 -0.2677
   46MOL   C51034800   2.099   0.261   5.047 -0.2010 -0.2162 -0.4501
   46MOL   C51134801   2.067   0.352   4.935 -0.1045  0.1216  0.4496
   46MOL   O51234802   1.994   0.328   4.843 -0.7305  0.3767  0.5663
   46MOL   O51334803   2.143   0.464   4.936  0.2455 -0.5326  0.1936
   46MOL   C51434804   2.062   0.126   5.033 -0.1762 -0.1012 -0.7192
   46MOL   C51534805   2.079   0.036   5.146 -0.3328 -0.6647  0.1990
   46MOL   H51634806   2.109   7.773   5.808  0.6241 -1.4296  1.0407
   46MOL   H51734807   2.169   7.923   5.882 -0.8142 -2.7575  2.3152
   46MOL   H51834808   1.926   7.976   5.938 -0.1370  1.8189 -4.8224
   46MOL   H51934809   1.979   7.821   5.996  0.9502  0.2938 -0.2367
   46MOL   H52034810   1.898   7.701   5.825  0.3930  0.3681 -0.4896
   46MOL   H52134811   1.650   7.884   5.873  0.1845  0.7917  1.6756
   46MOL   H52234812   1.711   7.790   6.009  2.9316  0.8023 -0.3464
   46MOL   H52334813   1.795   7.965   5.688  0.0258 -0.2645  1.6789
   46MOL   H52434814   1.753   7.808   5.627  0.3978 -0.4201  0.1029
   46MOL   H52534815   1.988   7.761   5.593 -0.2340 -0.5398  0.6482
   46MOL   H52634816   1.940   7.906   5.512 -1.2169  2.1952  0.6527
   46MOL   H52734817   2.039   0.013   5.698  2.6333  0.6605  0.8642
   46MOL   H52834818   2.237   7.856   5.570 -0.2933  0.2729 -1.0880
   46MOL   H52934819   2.285   7.991   5.675  1.4895  0.8018 -1.0236
   46MOL   H53034820   2.253   0.259   5.346 -0.9180  1.9274 -0.1128
   46MOL   H53134821   2.215   0.401   5.164  2.1565 -0.7247 -0.3035
   46MOL   H53234822   2.018   0.081   4.945  1.0716  0.7329 -1.7909
   46MOL   H53334823   2.033   7.973   5.126 -1.4460  0.0201 -0.5262
   46MOL   C53434824   2.234   0.934   4.787  0.1383  0.5586  0.1283
   46MOL   C53534825   2.159   0.800   4.768  0.1336 -0.3546 -0.0634
   46MOL   C53634826   2.204   0.686   4.864  0.1552  0.4117  0.0488
   46MOL   C53734827   2.123   0.560   4.837 -0.1609 -0.5802 -0.3552
   46MOL   C53834828   2.358   0.660   4.862  0.1342  0.1949  0.3228
   46MOL   C53934829   2.431   0.796   4.884 -0.0289 -0.3051  0.1127
   46MOL   C54034830   2.388   0.906   4.786  0.9775 -0.2223  0.4749
   46MOL   C54134831   2.468   1.036   4.800 -0.7790  0.2780  0.3729
   46MOL   O54234832   2.598   1.024   4.753 -0.4711 -0.4415  0.2404
   46MOL   C54334833   2.648   1.079   4.633 -0.1395 -0.5609  0.0380
   46MOL   O54434834   2.590   1.165   4.564  0.4501 -0.2354 -0.0989
   46MOL   C54534835   2.779   1.020   4.588  0.3311  0.4756  0.7081
   46MOL   C54634836   2.854   0.938   4.676  0.1863 -0.0686 -0.7854
   46MOL   C54734837   2.978   0.876   4.634  0.5635  0.6371 -0.0912
   46MOL   C54834838   3.022   0.900   4.500  0.7735 -0.5290 -0.0310
   46MOL   C54934839   3.135   0.826   4.453 -0.0108 -0.6957  0.4798
   46MOL   O55034840   3.209   0.760   4.524  0.6104  0.4566  0.0769
   46MOL   O55134841   3.144   0.815   4.323 -0.2023  0.0420  0.0746
   46MOL   C55234842   2.947   0.986   4.416  0.0116 -0.1283  0.2918
   46MOL   C55334843   2.826   1.047   4.460 -0.1832  0.3078  0.0255
   46MOL   H55434844   2.191   0.972   4.879  0.1896 -1.3085  0.9459
   46MOL   H55534845   2.210   0.993   4.698 -0.8570 -0.9273 -0.6066
   46MOL   H55634846   2.156   0.771   4.663  0.9298  1.8122 -0.7170
   46MOL   H55734847   2.052   0.819   4.782 -0.0344 -1.4398  0.1132
   46MOL   H55834848   2.182   0.717   4.966  1.2143 -1.2241  0.8027
   46MOL   H55934849   2.142   0.502   4.747 -0.5176  1.0606 -1.5100
   46MOL   H56034850   2.016   0.579   4.837 -0.0525  0.1927  1.9981
   46MOL   H56134851   2.382   0.627   4.761 -0.9072  2.5961 -0.7560
   46MOL   H56234852   2.403   0.586   4.928  0.2973 -0.5194 -0.5840
   46MOL   H56334853   2.401   0.819   4.986  2.7132  0.6446  0.7404
   46MOL   H56434854   2.537   0.770   4.881  0.4109  1.4151  0.4521
   46MOL   H56534855   2.396   0.862   4.686  1.3047  1.7595 -0.3924
   46MOL   H56634856   2.476   1.061   4.906  1.3245  0.1853  0.2519
   46MOL   H56734857   2.426   1.121   4.746 -1.5766  0.4472  1.2420
   46MOL   H56834858   2.820   0.911   4.775 -2.0193 -0.4655 -1.6056
   46MOL   H56934859   3.033   0.826   4.713 -0.8970  2.1554  1.9506
   46MOL   H57034860   2.979   1.008   4.315 -2.5572 -2.4101 -1.0643
   46MOL   H57134861   2.768   1.106   4.390  1.4704 -0.0621 -1.7078
   46MOL   C57234862   2.844   0.550   4.160  1.1609  0.5480 -0.5628
   46MOL   C57334863   2.948   0.654   4.182 -0.0410  0.2274 -0.1146
   46MOL   C57434864   3.067   0.587   4.248 -0.4890  0.0598 -0.3574
   46MOL   C57534865   3.180   0.690   4.267 -0.5292  0.6387 -0.2693
   46MOL   C57634866   3.029   0.515   4.379 -0.1736 -0.6768  0.4454
   46MOL   C57734867   2.932   0.410   4.341 -1.0720 -0.3418  0.2414
   46MOL   C57834868   2.806   0.465   4.281 -0.0278 -0.2681 -0.3449
   46MOL   C57934869   2.699   0.351   4.256 -0.0076 -0.0042 -0.3794
   46MOL   O58034870   2.572   0.395   4.208 -0.4352  0.4812 -0.0328
   46MOL   C58134871   2.533   0.385   4.071  0.4273  0.1819 -0.3700
   46MOL   O58234872   2.607   0.353   3.978 -0.5666  0.4600 -0.4024
   46MOL   C58334873   2.394   0.417   4.051 -0.1870 -0.0499 -0.7750
   46MOL   C58434874   2.293   0.405   4.150 -0.0641  0.2250  0.0633
   46MOL   C58534875   2.159   0.454   4.125  0.0916  0.1053 -0.0380
   46MOL   C58634876   2.117   0.502   3.999 -0.5054 -0.4922  1.2722
   46MOL   C58734877   1.983   0.550   3.975  0.9635  0.0230 -0.0616
   46MOL   O58834878   1.945   0.599   3.868 -0.1095  0.5328  0.3809
   46MOL   O58934879   1.901   0.527   4.081 -0.5782 -0.2690  0.4802
   46MOL   C59034880   2.218   0.501   3.898  0.4798 -0.7432  0.2581
   46MOL   C59134881   2.349   0.455   3.924  0.1678  0.1998 -0.7342
   46MOL   H59234882   2.877   0.479   4.084  0.1609 -0.4173 -0.1137
   46MOL   H59334883   2.754   0.604   4.130  1.5663  1.0393 -0.8996
   46MOL   H59434884   2.912   0.737   4.242 -0.3327  0.5484 -0.7313
   46MOL   H59534885   2.984   0.686   4.084 -0.0044  0.8586  0.1067
   46MOL   H59634886   3.093   0.506   4.181  1.4229  0.3229  0.0171
   46MOL   H59734887   3.233   0.707   4.174 -1.9060  0.2364 -1.1319
   46MOL   H59834888   3.255   0.637   4.327 -1.5330 -1.0428 -0.4668
   46MOL   H59934889   2.990   0.590   4.448 -0.8604  0.7528 -1.4498
   46MOL   H60034890   3.118   0.478   4.430 -0.3106 -0.9465  0.4900
   46MOL   H60134891   2.982   0.345   4.269  0.6331  1.1340  0.0664
   46MOL   H60234892   2.906   0.339   4.420 -1.4955  0.8880  1.2331
   46MOL   H60334893   2.754   0.521   4.359  0.3162  0.2170 -0.4667
   46MOL   H60434894   2.695   0.290   4.346  3.2119 -1.2740 -1.0289
   46MOL   H60534895   2.738   0.271   4.193 -0.0262  1.6454 -2.5610
   46MOL   H60634896   2.310   0.358   4.245  1.9059  0.1559 -0.3113
   46MOL   H60734897   2.098   0.453   4.214  0.1479  2.3469  0.0489
   46MOL   H60834898   2.199   0.528   3.795  3.2650  3.0118  0.5921
   46MOL   H60934899   2.414   0.428   3.842 -1.0557 -1.6630 -1.1073
   46MOL   C61034900   1.528   0.644   4.394  0.3500  0.0048 -0.4112
   46MOL   C61134901   1.578   0.558   4.269 -0.1014  0.0055 -0.5661
   46MOL   C61234902   1.712   0.615   4.216 -0.0240 -0.1268  0.2991
   46MOL   C61334903   1.763   0.555   4.082 -0.3543 -0.6767 -0.0803
   46MOL   C61434904   1.693   0.768   4.193  0.7400  0.2893 -0.2284
   46MOL   C61534905   1.652   0.848   4.314  0.1031 -0.0841  0.3285
   46MOL   C61634906   1.516   0.800   4.367  0.3933  0.3058 -1.0353
   46MOL   C61734907   1.488   0.878   4.495  0.3257  0.5906 -0.1047
   46MOL   O61834908   1.497   1.021   4.472 -0.2138 -0.1929  0.2664
   46MOL   C61934909   1.501   1.108   4.579 -0.1603 -0.3030 -0.5402
   46MOL   O62034910   1.505   1.070   4.694 -0.9509  0.3672  0.1863
   46MOL   C62134911   1.511   1.250   4.536 -0.9232  0.4626 -0.2097
   46MOL   C62234912   1.527   1.283   4.392 -0.1089  0.5321 -0.5881
   46MOL   C62334913   1.531   1.419   4.348  0.1161 -0.1233 -0.2697
   46MOL   C62434914   1.521   1.521   4.448 -0.2530  0.1475 -0.0440
   46MOL   C62534915   1.524   1.666   4.407 -0.0686  0.9217  0.1927
   46MOL   O62634916   1.502   1.758   4.482  0.2697 -0.1811  0.1448
   46MOL   O62734917   1.548   1.688   4.276  0.1578 -0.2589 -0.0597
   46MOL   C62834918   1.507   1.482   4.588  0.0679 -0.3686  0.4776
   46MOL   C62934919   1.510   1.351   4.632  0.1424  0.4474  0.5244
   46MOL   H63034920   1.595   0.636   4.480 -1.0052 -0.9077  0.5804
   46MOL   H63134921   1.430   0.608   4.425  0.7248 -2.3356 -1.8409
   46MOL   H63234922   1.502   0.563   4.191 -0.2584  2.5942 -0.2642
   46MOL   H63334923   1.589   0.455   4.304 -1.0447 -0.0698 -0.4662
   46MOL   H63434924   1.785   0.589   4.292  0.3316  3.0305  1.0878
   46MOL   H63534925   1.743   0.618   3.995 -1.3964  0.3959  0.9226
   46MOL   H63634926   1.708   0.462   4.070  1.6396 -1.6029 -2.3144
   46MOL   H63734927   1.616   0.779   4.116 -0.1280 -0.7734  0.4784
   46MOL   H63834928   1.787   0.812   4.161  2.0782 -0.7810  2.1050
   46MOL   H63934929   1.724   0.833   4.394  0.9086  1.2509 -0.1111
   46MOL   H64034930   1.655   0.953   4.283 -3.0724 -0.2856 -0.8418
   46MOL   H64134931   1.444   0.834   4.292  0.5143  0.0974 -1.2453
   46MOL   H64234932   1.556   0.845   4.573 -0.3985  1.5950  0.9775
   46MOL   H64334933   1.394   0.848   4.542 -0.2208  2.9193  0.3419
   46MOL   H64434934   1.537   1.200   4.324  1.7690 -0.6961  1.1243
   46MOL   H64534935   1.533   1.442   4.242 -0.1975  3.9808  0.5179
   46MOL   H64634936   1.511   1.567   4.653  1.2903  0.6104 -0.8595
   46MOL   H64734937   1.512   1.317   4.734 -0.1446 -2.1657 -0.3254
   46MOL   C64834938   1.461   2.034   3.925 -0.1958 -0.0443  0.0210
   46MOL   C64934939   1.538   1.995   4.057 -0.0827  0.9816 -0.6221
   46MOL   C65034940   1.496   1.843   4.098 -0.6272 -0.0075  0.6497
   46MOL   C65134941   1.567   1.822   4.230  0.3782  0.0543 -0.0786
   46MOL   C65234942   1.340   1.833   4.109 -0.0319 -0.9811  0.1748
   46MOL   C65334943   1.268   1.880   3.987  0.1473 -0.7016  0.4239
   46MOL   C65434944   1.305   2.025   3.946 -0.2169 -0.6247  0.6686
   46MOL   C65534945   1.246   2.069   3.811  0.4289  0.1810  0.0129
   46MOL   O65634946   1.261   2.204   3.779 -0.7255 -0.1079 -0.5691
   46MOL   C65734947   1.184   2.306   3.831  0.0108  0.2739 -0.2797
   46MOL   O65834948   1.098   2.276   3.912  0.1214 -0.1667  0.3467
   46MOL   C65934949   1.212   2.442   3.784 -0.7950  0.6743 -0.0235
   46MOL   C66034950   1.120   2.539   3.825 -0.3102 -0.2219 -0.2691
   46MOL   C66134951   1.131   2.665   3.777  0.0085 -0.5768  0.2794
   46MOL   C66234952   1.238   2.707   3.695 -0.0533 -0.3864  0.7574
   46MOL   C66334953   1.242   2.851   3.640 -0.6742 -0.1759 -0.6138
   46MOL   O66434954   1.325   2.882   3.559  0.1567  0.4740 -0.1374
   46MOL   O66534955   1.151   2.935   3.684 -0.2679  0.4697  0.2812
   46MOL   C66634956   1.336   2.614   3.655  0.0359  0.2662  0.0666
   46MOL   C66734957   1.322   2.481   3.700 -0.2074 -0.6732  0.8583
   46MOL   H66834958   1.489   1.958   3.851  0.2967  0.5165 -0.3700
   46MOL   H66934959   1.480   2.133   3.884 -1.3444  0.8734  1.6555
   46MOL   H67034960   1.517   2.073   4.129 -1.9859  1.8977 -2.1099
   46MOL   H67134961   1.644   2.008   4.039  0.4984 -3.1985 -0.6614
   46MOL   H67234962   1.539   1.776   4.023 -0.8357 -0.2006  0.7044
   46MOL   H67334963   1.528   1.898   4.298  0.0812 -0.5693  0.4609
   46MOL   H67434964   1.671   1.852   4.219  0.0560  1.4201  0.4715
   46MOL   H67534965   1.304   1.878   4.201 -0.2187  0.1997 -0.4670
   46MOL   H67634966   1.297   1.735   4.128 -2.8171  0.9064  4.3075
   46MOL   H67734967   1.280   1.807   3.907 -0.3951  0.9344 -1.1943
   46MOL   H67834968   1.160   1.880   3.997 -0.0551  0.3817 -1.3339
   46MOL   H67934969   1.276   2.083   4.033 -0.1607  0.6630 -0.1680
   46MOL   H68034970   1.140   2.049   3.827  0.2195 -1.0835 -2.6471
   46MOL   H68134971   1.277   2.009   3.725  1.2749  1.0887 -0.3330
   46MOL   H68234972   1.032   2.504   3.878  1.4126 -1.3178  1.9318
   46MOL   H68334973   1.053   2.737   3.801  1.4650  1.1488 -0.0416
   46MOL   H68434974   1.427   2.649   3.608 -0.1707 -1.2795 -1.5082
   46MOL   H68534975   1.397   2.406   3.683  0.3436 -0.4146  2.0656
   46MOL   C68634976   0.846   3.124   3.436 -0.4065 -0.3414  0.8177
   46MOL   C68734977   0.931   3.057   3.543  0.3252  0.1355  0.1053
   46MOL   C68834978   1.066   3.130   3.540 -0.7929 -1.1089  0.7762
   46MOL   C68934979   1.159   3.078   3.655 -0.3199  0.6209 -0.0743
   46MOL   C69034980   1.139   3.114   3.405  0.2563 -0.4429  0.3281
   46MOL   C69134981   1.050   3.186   3.295 -0.0270  0.1590 -0.2305
   46MOL   C69234982   0.906   3.127   3.299  0.2718  0.6520 -0.5586
   46MOL   C69334983   0.829   3.212   3.197  0.3755  0.5256  0.8683
   46MOL   O69434984   0.760   3.113   3.110 -0.6368 -0.5775 -0.1262
   46MOL   C69534985   0.699   3.159   3.003 -0.1570 -0.1085 -0.2286
   46MOL   O69634986   0.659   3.271   2.980 -0.2266 -0.0130  0.5845
   46MOL   C69734987   0.670   3.046   2.911 -0.2371 -0.0247 -0.5666
   46MOL   C69834988   0.547   3.055   2.841  0.1100 -0.2331  0.2154
   46MOL   C69934989   0.495   2.947   2.773 -0.2194  0.1962  0.1599
   46MOL   C70034990   0.573   2.833   2.768  0.7293 -0.0876  0.0662
   46MOL   C70134991   0.530   2.712   2.692 -0.1075  0.4694 -0.1085
   46MOL   O70234992   0.594   2.612   2.689 -0.2493  0.2842  0.1479
   46MOL   O70334993   0.418   2.742   2.619  0.2873 -0.3044  0.0191
   46MOL   C70434994   0.703   2.825   2.833  0.4340 -0.2723  0.0720
   46MOL   C70534995   0.750   2.931   2.901 -0.0115  0.4964 -0.2535
   46MOL   H70634996   0.805   3.220   3.468 -1.4761  0.5261 -2.9251
   46MOL   H70734997   0.758   3.060   3.426 -0.7413  0.3598 -0.8623
   46MOL   H70834998   0.924   2.950   3.528  1.2932 -0.5251  3.7551
   46MOL   H70934999   0.880   3.071   3.639 -0.4437 -2.4769  0.1025
   46MOL   H71035000   1.055   3.237   3.558 -0.6252 -0.7639 -1.1341
   46MOL   H71135001   1.143   3.128   3.751 -1.7774  1.1110 -0.5652
   46MOL   H71235002   1.258   3.117   3.630 -0.0842  0.3784  0.4574
   46MOL   H71335003   1.162   3.010   3.382 -1.7898 -0.6482 -0.8978
   46MOL   H71435004   1.239   3.158   3.407 -0.2487  0.7032  0.2844
   46MOL   H71535005   1.056   3.294   3.308 -0.9432  0.1986 -0.1415
   46MOL   H71635006   1.099   3.164   3.200 -0.1145  4.2980 -1.3268
   46MOL   H71735007   0.911   3.025   3.261  3.0302  0.3632  0.4752
   46MOL   H71835008   0.893   3.271   3.131  0.3761 -0.8811 -0.4049
   46MOL   H71935009   0.754   3.278   3.240 -0.8328  1.1746 -2.0611
   46MOL   H72035010   0.490   3.146   2.838  2.6173  1.3391 -3.1938
   46MOL   H72135011   0.393   2.944   2.736 -0.7622  3.0663  1.3304
   46MOL   H72235012   0.768   2.739   2.822  1.1766  0.5888 -2.5051
   46MOL   H72335013   0.848   2.922   2.945 -0.7520 -1.8854  0.9899
   46MOL   C72435014   0.645   2.700   2.236  0.5595 -0.5277  0.3633
   46MOL   C72535015   0.591   2.660   2.373 -0.0060  0.2169 -0.4139
   46MOL   C72635016   0.446   2.708   2.383 -0.1674  0.2977 -0.2084
   46MOL   C72735017   0.386   2.663   2.513 -0.1623 -0.0628 -0.5878
   46MOL   C72835018   0.440   2.859   2.359 -0.3638  0.1284  0.2030
   46MOL   C72935019   0.496   2.892   2.221 -0.6403  0.0770 -0.3569
   46MOL   C73035020   0.640   2.845   2.207 -0.5891 -0.5421 -0.1588
   46MOL   C73135021   0.698   2.883   2.065  0.0077  0.4047  0.0278
   46MOL   O73235022   0.840   2.917   2.081  0.0447 -0.2441 -0.5851
   46MOL   C73335023   0.936   2.856   2.009  0.0757  0.1794 -0.2254
   46MOL   O73435024   0.910   2.780   1.914  0.0506 -1.0131  0.7990
   46MOL   C73535025   1.075   2.905   2.055  0.5640  0.1939  0.1386
   46MOL   C73635026   1.185   2.836   1.999 -0.7482 -0.0679  0.7116
   46MOL   C73735027   1.318   2.866   2.041  0.0473  0.7763 -0.5151
   46MOL   C73835028   1.338   2.977   2.126 -0.5136 -0.2460  0.6487
   46MOL   C73935029   1.480   3.002   2.180  0.2514  0.0037  0.4112
   46MOL   O74035030   1.563   2.909   2.190  0.1620 -0.2903  0.1799
   46MOL   O74135031   1.504   3.136   2.191  0.0226  0.2401 -0.4601
   46MOL   C74235032   1.231   3.054   2.172  0.0890  0.2693  0.3097
   46MOL   C74335033   1.096   3.016   2.139  0.2481 -0.3371  0.6801
   46MOL   H74435034   0.593   2.648   2.156  0.0278  2.2335 -1.1514
   46MOL   H74535035   0.750   2.672   2.230  0.4964 -0.8431  0.6821
   46MOL   H74635036   0.649   2.710   2.450 -0.4697 -0.8714  0.6623
   46MOL   H74735037   0.603   2.553   2.392  3.0478  0.2637 -1.8514
   46MOL   H74835038   0.387   2.662   2.304 -0.8419  0.8537 -0.0266
   46MOL   H74935039   0.408   2.556   2.521  1.4570  0.2623 -0.4800
   46MOL   H75035040   0.279   2.651   2.498 -0.2703 -1.4051  1.0433
   46MOL   H75135041   0.494   2.902   2.443  0.7116 -0.2886 -0.2673
   46MOL   H75235042   0.337   2.893   2.355 -0.4357 -0.1285 -0.2073
   46MOL   H75335043   0.434   2.852   2.140 -0.4426 -1.6773  0.3345
   46MOL   H75435044   0.493   2.999   2.199  0.5731 -0.5805 -4.0949
   46MOL   H75535045   0.690   2.899   2.287 -3.5205 -3.8372  4.1539
   46MOL   H75635046   0.662   2.980   2.032 -0.3110  0.1483 -0.3844
   46MOL   H75735047   0.673   2.808   1.990  0.0511 -1.2152  1.5866
   46MOL   H75835048   1.176   2.753   1.930  0.1730 -0.6764  1.2958
   46MOL   H75935049   1.398   2.800   2.012 -0.2441  0.1460  0.1020
   46MOL   H76035050   1.246   3.133   2.244 -1.0972  1.4075 -0.6696
   46MOL   H76135051   1.018   3.076   2.184  0.0359  1.1164 -1.5729
   46MOL   H76235052   1.585   3.152   2.237  0.3942  1.2808 -1.4674
   47MOL     C135053   3.170   5.500   4.189 -0.1771 -0.1664 -0.3685
   47MOL     C235054   3.148   5.512   4.040  0.3586  0.2785 -0.9364
   47MOL     C335055   3.150   5.374   3.971 -1.3558  0.7581 -0.3407
   47MOL     C435056   3.117   5.382   3.821 -0.6875 -0.2163 -0.7296
   47MOL     C535057   3.288   5.310   3.994  0.2282 -0.3065 -0.3548
   47MOL     C635058   3.317   5.296   4.150 -0.2479  0.1856  0.4710
   47MOL     C735059   3.307   5.431   4.218  0.0595 -0.1332 -0.0039
   47MOL     C835060   3.326   5.426   4.371  0.4075 -0.5665 -0.4952
   47MOL     O935061   3.344   5.561   4.418  0.0931  0.6792  0.3085
   47MOL    C1035062   3.324   5.584   4.538  0.2142  0.3751 -0.0110
   47MOL    O1135063   3.258   5.500   4.607  0.4825 -0.2459 -0.4517
   47MOL    C1235064   3.374   5.722   4.593  0.1541  0.4650 -0.2696
   47MOL    C1335065   3.338   5.763   4.725 -0.7174  0.5609  0.2404
   47MOL    C1435066   3.395   5.877   4.785 -0.3013  0.2212 -0.3341
   47MOL    C1535067   3.496   5.939   4.711 -0.1922  0.0595  0.1722
   47MOL    C1635068   3.586   6.044   4.771  0.0530  0.6153 -0.2276
   47MOL    O1735069   3.661   6.106   4.694  0.4913 -0.0185 -0.1759
   47MOL    O1835070   3.574   6.065   4.902 -0.9388  0.1826 -0.1759
   47MOL    C1935071   3.517   5.908   4.573 -0.0084 -0.6317 -0.1956
   47MOL    C2035072   3.457   5.802   4.512 -0.9059 -0.5077  0.5600
   47MOL    H2135073   3.095   5.437   4.237  0.9580 -1.6639 -0.5165
   47MOL    H2235074   3.163   5.601   4.230  0.6526 -1.1001  2.1747
   47MOL    H2335075   3.225   5.578   4.001  1.2661 -1.5111 -2.2383
   47MOL    H2435076   3.051   5.558   4.022 -0.6378 -1.4759 -0.1970
   47MOL    H2535077   3.079   5.309   4.022 -1.4140  0.4124 -0.8594
   47MOL    H2635078   3.012   5.408   3.803 -0.8004 -1.0107 -1.2674
   47MOL    H2735079   3.128   5.284   3.774 -4.2615 -2.0674  2.0657
   47MOL    H2835080   3.363   5.375   3.949  1.9612 -0.5771  2.0429
   47MOL    H2935081   3.285   5.216   3.939 -0.6876  0.0993 -1.0154
   47MOL    H3035082   3.243   5.222   4.180  1.7041 -2.7506 -1.7304
   47MOL    H3135083   3.413   5.249   4.167 -1.7295 -2.5916  1.4304
   47MOL    H3235084   3.385   5.486   4.166  2.0697 -1.3842  1.5957
   47MOL    H3335085   3.414   5.367   4.396  0.9705  0.2554 -0.4884
   47MOL    H3435086   3.239   5.383   4.419 -0.6595  1.2351 -0.7751
   47MOL    H3535087   3.264   5.703   4.777 -0.2785 -1.8636 -1.8393
   47MOL    H3635088   3.369   5.912   4.884  0.4439  2.7065 -0.9901
   47MOL    H3735089   3.606   5.948   4.526  0.6848 -0.4932  1.2023
   47MOL    H3835090   3.492   5.763   4.418  3.3579  1.2702  1.3240
   47MOL    H3935091   3.179   5.450   3.762 -0.2830  0.9157  0.9923
   47MOL    C4035092   3.653   6.395   5.283  0.0768 -0.8924  0.4269
   47MOL    C4135093   3.680   6.347   5.143 -0.1190  0.5683  0.2835
   47MOL    C4235094   3.607   6.216   5.103  0.4214 -0.2193  0.8360
   47MOL    C4335095   3.649   6.175   4.956 -0.1802 -0.5131 -0.1433
   47MOL    C4435096   3.634   6.111   5.217 -0.0768  0.0424 -0.0384
   47MOL    C4535097   3.592   6.168   5.356  0.5101 -0.1318  0.0798
   47MOL    C4635098   3.686   6.285   5.389  0.7385 -0.0121  0.3612
   47MOL    C4735099   3.659   6.340   5.525  0.2565  0.0280 -0.4474
   47MOL    O4835100   3.698   6.234   5.614  0.4960  0.2331 -0.1233
   47MOL    C4935101   3.732   6.267   5.739 -0.1274 -0.2987  0.4410
   47MOL    O5035102   3.717   6.383   5.788 -0.3926 -0.3918  0.0287
   47MOL    C5135103   3.771   6.146   5.814 -0.7566  0.7503 -0.4421
   47MOL    C5235104   3.763   6.014   5.766 -0.1269 -0.1634  0.3247
   47MOL    C5335105   3.807   5.906   5.849 -0.1210  0.1058 -0.0543
   47MOL    C5435106   3.857   5.927   5.975 -0.5232  0.8700  0.5989
   47MOL    C5535107   3.918   5.823   6.062 -0.0745 -0.5209  1.0358
   47MOL    O5635108   3.914   5.699   6.038 -0.0802  0.1369  0.2101
   47MOL    O5735109   3.984   5.882   6.170 -0.7074 -0.1006 -0.0871
   47MOL    C5835110   3.849   6.056   6.034 -0.1461 -0.0064  0.3902
   47MOL    C5935111   3.800   6.160   5.956 -0.1009  0.7129  0.3152
   47MOL    H6035112   3.553   6.436   5.295  0.7213  0.5957  0.8801
   47MOL    H6135113   3.711   6.487   5.294 -0.0098 -0.8476  0.5051
   47MOL    H6235114   3.788   6.344   5.131  0.0281  1.2386  1.3664
   47MOL    H6335115   3.652   6.428   5.075 -1.2982 -1.0698 -1.2422
   47MOL    H6435116   3.501   6.240   5.108  0.4682  1.0391 -2.9616
   47MOL    H6535117   3.755   6.159   4.937 -0.0710 -0.5072  0.4365
   47MOL    H6635118   3.631   6.260   4.891 -0.1019 -0.3185  0.0879
   47MOL    H6735119   3.734   6.068   5.207  0.0773  0.7241 -1.6755
   47MOL    H6835120   3.566   6.030   5.190  1.1997 -1.0017 -0.1774
   47MOL    H6935121   3.487   6.195   5.355  0.7421  0.7685 -0.3477
   47MOL    H7035122   3.603   6.092   5.434 -3.6355  0.1365  0.9997
   47MOL    H7135123   3.788   6.246   5.382  1.2216  1.6811 -2.9875
   47MOL    H7235124   3.554   6.368   5.527  0.0489 -0.6142 -1.6115
   47MOL    H7335125   3.722   6.429   5.539  0.3495  0.2457 -2.0929
   47MOL    H7435126   3.725   5.996   5.667 -1.9730  2.3926  0.5163
   47MOL    H7535127   3.816   5.805   5.811  0.7082  0.9043 -2.0115
   47MOL    H7635128   3.876   6.076   6.137  0.7720 -0.0063  0.1531
   47MOL    H7735129   3.787   6.256   6.004  0.2570  0.3350  1.1727
   47MOL    C7835130   4.132   6.034   6.559 -0.3454  0.7168  0.3290
   47MOL    C7935131   4.062   5.939   6.457  0.4905  0.6515  0.6250
   47MOL    C8035132   4.155   5.903   6.342 -0.4726  0.0093 -0.2175
   47MOL    C8135133   4.084   5.807   6.240  0.3297  0.1545 -0.0010
   47MOL    C8235134   4.217   6.024   6.273 -0.2439 -0.2934 -0.2075
   47MOL    C8335135   4.279   6.117   6.381 -0.6237 -0.1436 -0.0978
   47MOL    C8435136   4.169   6.159   6.485 -0.2031  0.2510  0.1908
   47MOL    C8535137   4.226   6.277   6.571 -0.1380  0.4163  0.2685
   47MOL    O8635138   4.213   6.397   6.505 -0.1577  0.5144 -0.0891
   47MOL    C8735139   4.327   6.465   6.468 -0.3344 -0.6545  0.2862
   47MOL    O8835140   4.443   6.433   6.491  0.5338  0.5013  0.2301
   47MOL    C8935141   4.298   6.585   6.393  0.2617  0.5298  0.6091
   47MOL    C9035142   4.171   6.625   6.368 -0.3805  0.0355  0.0421
   47MOL    C9135143   4.145   6.740   6.298 -0.3899  0.1333  0.4647
   47MOL    C9235144   4.252   6.822   6.253 -0.4283 -0.2045  0.2032
   47MOL    C9335145   4.230   6.957   6.200 -0.5018  0.0464  0.4413
   47MOL    O9435146   4.315   7.026   6.141 -0.6826 -0.3605  0.3784
   47MOL    O9535147   4.105   7.006   6.210 -0.1133  0.1567  0.5145
   47MOL    C9635148   4.387   6.786   6.287 -0.0071  0.1266  0.0005
   47MOL    C9735149   4.405   6.666   6.360 -0.1028  0.2643 -0.7598
   47MOL    H9835150   4.220   5.983   6.597 -0.1902  0.5443 -0.2504
   47MOL    H9935151   4.069   6.071   6.639  1.5299  0.0126  2.1653
   47MOL   H10035152   3.974   5.986   6.412  0.5563 -1.0737 -1.3496
   47MOL   H10135153   4.035   5.847   6.508  0.5295  0.7565  0.8352
   47MOL   H10235154   4.229   5.840   6.392 -0.8467 -0.2654 -0.0036
   47MOL   H10335155   4.033   5.725   6.291 -1.2306  0.9743 -0.2139
   47MOL   H10435156   4.146   5.760   6.164 -0.0888 -1.1292  0.4420
   47MOL   H10535157   4.142   6.078   6.215  0.3014 -1.1931 -1.7826
   47MOL   H10635158   4.291   5.994   6.199 -0.1287 -3.2849  1.0789
   47MOL   H10735159   4.358   6.071   6.440 -2.0288 -1.6377  0.6543
   47MOL   H10835160   4.315   6.211   6.338  0.2671 -0.2488  0.4011
   47MOL   H10935161   4.080   6.199   6.436 -0.5055 -0.2350  0.3435
   47MOL   H11035162   4.318   6.258   6.627 -0.9502  0.2434  1.5844
   47MOL   H11135163   4.166   6.275   6.662  0.5230  1.5187  0.7351
   47MOL   H11235164   4.088   6.562   6.398 -1.4193  1.6061  0.5642
   47MOL   H11335165   4.044   6.768   6.271  0.9414  1.5032 -3.4046
   47MOL   H11435166   4.482   6.830   6.261 -0.8629  0.9837 -1.7455
   47MOL   H11535167   4.503   6.626   6.379 -0.0973  0.8113  0.4379
   47MOL   C11635168   3.702   7.181   6.266 -0.7227 -0.2047 -0.4763
   47MOL   C11735169   3.856   7.157   6.286 -0.1572 -0.0761 -0.0521
   47MOL   C11835170   3.925   7.163   6.144 -0.4140 -0.6892  0.1934
   47MOL   C11935171   4.076   7.137   6.156  0.0043  0.3273 -0.2506
   47MOL   C12035172   3.857   7.060   6.053 -0.1087 -0.3159 -0.6654
   47MOL   C12135173   3.704   7.072   6.050 -0.7135  0.4943 -0.0195
   47MOL   C12235174   3.632   7.079   6.190 -0.0024 -0.3532 -0.0710
   47MOL   C12335175   3.488   7.096   6.186 -0.0107 -0.1319 -0.3899
   47MOL   O12435176   3.431   6.982   6.135  0.6305 -0.1425  0.7773
   47MOL   C12535177   3.300   6.953   6.167 -0.5523 -0.4974 -0.0778
   47MOL   O12635178   3.220   7.036   6.212  0.4506 -0.1815 -0.0937
   47MOL   C12735179   3.272   6.806   6.149 -0.3394 -0.1917 -0.3477
   47MOL   C12835180   3.142   6.748   6.162 -0.8579 -0.8387 -0.4583
   47MOL   C12935181   3.124   6.608   6.173  0.7789  0.0040 -0.9437
   47MOL   C13035182   3.231   6.518   6.161 -0.2637  0.8612  0.2983
   47MOL   C13135183   3.214   6.377   6.179  0.1654  0.0905  0.8938
   47MOL   O13235184   3.299   6.296   6.220 -0.1887 -0.0642  0.2328
   47MOL   O13335185   3.097   6.338   6.127 -0.0009  0.2140  0.2393
   47MOL   C13435186   3.358   6.572   6.144  0.5836  0.2313 -0.0752
   47MOL   C13535187   3.378   6.713   6.137 -0.4974 -0.2431  0.3974
   47MOL   H13635188   3.684   7.276   6.215  1.3929  0.7819  0.5456
   47MOL   H13735189   3.657   7.182   6.366  1.0378 -1.9145  0.3677
   47MOL   H13835190   3.863   7.062   6.339 -0.6182 -0.2332 -0.2724
   47MOL   H13935191   3.915   7.228   6.344 -1.7364  1.3051 -0.1127
   47MOL   H14035192   3.905   7.261   6.102 -3.1819 -1.5894 -0.6904
   47MOL   H14135193   4.121   7.210   6.223  0.0043  0.5167 -0.4551
   47MOL   H14235194   4.118   7.150   6.056  0.5641  1.7755  0.1586
   47MOL   H14335195   3.886   6.961   6.087  1.4717  0.7074  1.1153
   47MOL   H14435196   3.899   7.066   5.952 -1.2130 -2.3915 -1.2667
   47MOL   H14535197   3.678   7.160   5.991 -3.2744 -0.1991  0.0079
   47MOL   H14635198   3.664   6.991   5.989  0.0581  0.3943 -0.4018
   47MOL   H14735199   3.644   6.982   6.238  0.5338 -1.2269 -1.9178
   47MOL   H14835200   3.470   7.184   6.124 -0.1242  0.3975  0.3965
   47MOL   H14935201   3.451   7.110   6.287  0.4369  0.6068 -0.3243
   47MOL   H15035202   3.058   6.813   6.184  0.0692  0.5058 -0.8407
   47MOL   H15135203   3.024   6.573   6.193  1.2361 -0.8264 -0.1047
   47MOL   H15235204   3.440   6.502   6.143  2.2450  2.1369  0.6799
   47MOL   H15335205   3.480   6.747   6.134  0.0941 -2.0910 -1.1930
   47MOL   C15435206   2.674   6.318   6.084 -0.6364  0.3492  0.1680
   47MOL   C15535207   2.821   6.312   6.055  0.2714 -0.4937  1.0278
   47MOL   C15635208   2.895   6.224   6.165 -0.6890 -0.5834 -0.1744
   47MOL   C15735209   3.044   6.205   6.132  0.1947  0.3859 -0.3869
   47MOL   C15835210   2.865   6.274   6.311 -0.9478 -0.7798  0.3430
   47MOL   C15935211   2.713   6.296   6.327  0.5209 -0.0976 -0.3378
   47MOL   C16035212   2.642   6.378   6.222 -0.7825 -0.6528  0.0975
   47MOL   C16135213   2.492   6.388   6.244 -0.0150 -0.0181  0.1321
   47MOL   O16235214   2.462   6.387   6.384  0.0051 -0.6586  0.1344
   47MOL   C16335215   2.404   6.287   6.442 -0.0122 -0.2359 -0.9194
   47MOL   O16435216   2.355   6.195   6.378 -0.2813 -0.4269  0.3304
   47MOL   C16535217   2.397   6.311   6.592 -0.3880  0.3877  0.3189
   47MOL   C16635218   2.312   6.228   6.675 -0.2317 -0.2153 -0.1223
   47MOL   C16735219   2.318   6.231   6.815  0.3144 -0.6976 -0.2341
   47MOL   C16835220   2.381   6.339   6.878 -0.2114 -0.0119  0.0622
   47MOL   C16935221   2.386   6.345   7.026  0.2120 -0.1924  0.6133
   47MOL   O17035222   2.408   6.455   7.083 -0.0678  0.8982  0.0663
   47MOL   O17135223   2.349   6.234   7.088 -0.1754  0.0893  0.0181
   47MOL   C17235224   2.443   6.441   6.796  0.1617 -0.2483 -0.1006
   47MOL   C17335225   2.458   6.424   6.656  0.3995  0.3290  0.1006
   47MOL   H17435226   2.634   6.217   6.077  1.7678 -0.6783  0.6612
   47MOL   H17535227   2.613   6.366   6.009 -0.6070 -0.5685 -0.4525
   47MOL   H17635228   2.857   6.415   6.050  0.5696 -0.6259  0.4963
   47MOL   H17735229   2.840   6.261   5.961 -0.3325  0.9792  0.1071
   47MOL   H17835230   2.850   6.124   6.158 -2.0062 -0.0511  0.4847
   47MOL   H17935231   3.057   6.171   6.029 -1.9849 -0.5541 -0.3803
   47MOL   H18035232   3.093   6.135   6.200  1.2795  1.3023 -0.2161
   47MOL   H18135233   2.912   6.370   6.330 -0.8849 -0.9694  1.1605
   47MOL   H18235234   2.893   6.208   6.392  0.4330 -0.7946 -0.1361
   47MOL   H18335235   2.662   6.200   6.337  1.6529 -0.4392  2.6891
   47MOL   H18435236   2.705   6.351   6.420  0.5443  0.6595 -0.7841
   47MOL   H18535237   2.690   6.476   6.218  0.2202 -1.0581  1.7516
   47MOL   H18635238   2.457   6.294   6.201  0.3345 -0.9145  1.7263
   47MOL   H18735239   2.454   6.476   6.194  1.7632  0.6768 -0.0433
   47MOL   H18835240   2.247   6.156   6.628  0.6830 -2.1631  1.5419
   47MOL   H18935241   2.261   6.157   6.870 -1.0461  0.6711  0.2067
   47MOL   H19035242   2.489   6.533   6.829 -2.3495  1.1954 -0.4856
   47MOL   H19135243   2.516   6.499   6.605  1.8061 -0.2990  0.7595
   47MOL   C19235244   2.286   5.843   7.268 -0.3611  0.0101 -0.4045
   47MOL   C19335245   2.276   5.981   7.201 -0.2978 -0.1169  0.3708
   47MOL   C19435246   2.344   6.094   7.289  0.1925  0.3733 -0.6718
   47MOL   C19535247   2.323   6.234   7.228 -0.6491 -1.1098 -0.4494
   47MOL   C19635248   2.290   6.092   7.434 -0.3352 -0.1143  0.7011
   47MOL   C19735249   2.287   5.952   7.494  0.0647 -0.7498 -0.0010
   47MOL   C19835250   2.227   5.840   7.410 -0.3963  0.2982  0.0525
   47MOL   C19935251   2.238   5.701   7.481  0.0605 -0.0377 -0.3358
   47MOL   O20035252   2.139   5.672   7.578 -0.4029 -0.4586 -0.0084
   47MOL   C20135253   2.011   5.642   7.544  0.1980 -0.3139 -0.3952
   47MOL   O20235254   1.979   5.622   7.424  0.3931 -0.2845  0.2466
   47MOL   C20335255   1.908   5.655   7.655  0.6268 -0.0918  0.5478
   47MOL   C20435256   1.953   5.682   7.781 -0.1358 -0.4500 -1.0408
   47MOL   C20535257   1.858   5.682   7.888 -0.2331  0.2373  0.2579
   47MOL   C20635258   1.722   5.657   7.866 -0.2871  0.6261  0.1319
   47MOL   C20735259   1.618   5.660   7.975  0.3296  0.9827  0.0349
   47MOL   O20835260   1.504   5.617   7.959  0.2528 -0.1784  0.1078
   47MOL   O20935261   1.670   5.709   0.060  0.2009 -0.1890  0.5531
   47MOL   C21035262   1.675   5.641   7.730 -0.2847 -0.0900 -0.8691
   47MOL   C21135263   1.777   5.634   7.632  0.1652  0.1509  0.2836
   47MOL   H21235264   2.389   5.808   7.276  0.5080  2.5710  0.0383
   47MOL   H21335265   2.228   5.780   7.200  0.2776 -1.4706  0.4062
   47MOL   H21435266   2.169   6.003   7.195 -0.3366 -0.2777  0.4697
   47MOL   H21535267   2.323   5.984   7.103  0.4337  0.1493  0.7277
   47MOL   H21635268   2.451   6.076   7.295  0.2919  0.3801 -2.2425
   47MOL   H21735269   2.387   6.301   7.284 -2.7102 -0.4843  1.2311
   47MOL   H21835270   2.225   6.274   7.255 -1.8169 -1.4477 -3.9073
   47MOL   H21935271   2.187   6.127   7.440 -0.0345  1.1086 -0.7836
   47MOL   H22035272   2.322   6.178   7.493 -1.5390  0.6914  0.1882
   47MOL   H22135273   2.386   5.927   7.532 -0.7228 -3.4459  0.4140
   47MOL   H22235274   2.233   5.951   7.589  2.1766 -2.1437  1.2325
   47MOL   H22335275   2.122   5.868   7.398 -0.3736  0.2023 -0.3942
   47MOL   H22435276   2.333   5.694   7.533 -0.3717  1.0548  0.6432
   47MOL   H22535277   2.238   5.626   7.403  0.5795 -0.2922 -0.0950
   47MOL   H22635278   2.056   5.692   7.811 -0.5609  0.5927  0.1116
   47MOL   H22735279   1.891   5.705   7.988  0.1526  1.0425 -0.0541
   47MOL   H22835280   1.571   5.621   7.709 -0.2906  0.2698 -1.1953
   47MOL   H22935281   1.749   5.609   7.531  1.2913 -0.0428  0.0118
   47MOL   C23035282   1.710   5.462   0.485  0.5144  0.3422 -0.1525
   47MOL   C23135283   1.609   5.538   0.405  0.2484 -0.5687 -0.2920
   47MOL   C23235284   1.692   5.599   0.284  0.6105 -0.8373  0.1038
   47MOL   C23335285   1.600   5.671   0.178 -0.1178 -0.0378 -0.7526
   47MOL   C23435286   1.805   5.688   0.331 -0.1488 -0.0605 -1.0237
   47MOL   C23535287   1.897   5.616   0.437 -0.5004  0.1072 -0.0876
   47MOL   C23635288   1.821   5.542   0.553  0.3357 -0.1342 -0.6095
   47MOL   C23735289   1.921   5.457   0.635  0.1416 -0.3485  0.1165
   47MOL   O23835290   2.010   5.550   0.703  0.5192  0.4763 -0.5283
   47MOL   C23935291   2.103   5.517   0.773 -0.5383 -0.1860 -0.1685
   47MOL   O24035292   2.149   5.404   0.774  0.1719  0.7754 -0.4600
   47MOL   C24135293   2.154   5.625   0.858 -0.1350  0.6011  0.6593
   47MOL   C24235294   2.120   5.761   0.844  0.7394  0.3435  0.0218
   47MOL   C24335295   2.154   5.860   0.945 -0.2219  0.0919 -0.0884
   47MOL   C24435296   2.238   5.824   1.051  0.7154 -0.3460 -0.1700
   47MOL   C24535297   2.276   5.920   1.155 -0.3889 -0.3280  0.4876
   47MOL   O24635298   2.359   5.894   1.241 -0.1472  0.0879  0.6375
   47MOL   O24735299   2.200   6.029   1.148 -0.2213 -0.7241 -0.2060
   47MOL   C24835300   2.278   5.695   1.063 -0.3777  0.2326  0.3795
   47MOL   C24935301   2.236   5.592   0.970 -0.1318  0.0227  0.1759
   47MOL   H25035302   1.761   5.392   0.419 -0.9286 -0.7156 -0.1916
   47MOL   H25135303   1.659   5.392   0.553  1.3593  0.9846  1.1704
   47MOL   H25235304   1.556   5.615   0.461  1.9677  0.3113  0.1671
   47MOL   H25335305   1.535   5.466   0.372 -1.3141  0.8825 -0.0100
   47MOL   H25435306   1.733   5.517   0.225 -1.4814 -1.6930 -0.2235
   47MOL   H25535307   1.557   5.758   0.227 -0.8258  0.3914 -2.1215
   47MOL   H25635308   1.509   5.615   0.158  0.0562 -1.1028  1.2970
   47MOL   H25735309   1.763   5.783   0.365  3.0283  0.4223  1.9009
   47MOL   H25835310   1.856   5.709   0.237  0.3571  1.4270 -0.4338
   47MOL   H25935311   1.942   5.541   0.372  1.5963  1.7709 -0.6055
   47MOL   H26035312   1.975   5.678   0.480 -1.0323  0.5511  0.2350
   47MOL   H26135313   1.772   5.613   0.620 -1.2352 -0.4458 -1.4248
   47MOL   H26235314   1.970   5.379   0.577  0.9323 -1.2389  1.9438
   47MOL   H26335315   1.864   5.400   0.709 -2.5598 -0.5764 -2.0450
   47MOL   H26435316   2.060   5.809   0.768  0.6935  0.0197 -0.1470
   47MOL   H26535317   2.115   5.960   0.936 -3.1210 -0.8590  1.5600
   47MOL   H26635318   2.335   5.664   1.149 -0.5858  0.7181  0.6978
   47MOL   H26735319   2.273   5.491   0.974 -1.8783 -0.7391 -2.1112
   47MOL   C26835320   2.024   6.422   1.065  0.1741 -0.7620 -0.1489
   47MOL   C26935321   2.121   6.302   1.083  0.4215 -0.1435 -0.2592
   47MOL   C27035322   2.122   6.255   1.226 -0.8886  0.0532 -0.1369
   47MOL   C27135323   2.218   6.141   1.244  0.3768  0.0882 -0.1931
   47MOL   C27235324   2.157   6.376   1.319  0.3573  0.2799  0.2230
   47MOL   C27335325   2.072   6.506   1.299  0.0755  0.4428  0.3099
   47MOL   C27435326   2.060   6.548   1.148  1.0788 -0.0228 -0.0394
   47MOL   C27535327   1.934   6.643   1.135  0.2999 -0.2076 -0.3996
   47MOL   O27635328   1.899   6.665   1.000  0.3679 -0.7317  0.6669
   47MOL   C27735329   1.939   6.776   0.937 -0.4833  0.7390 -0.1075
   47MOL   O27835330   2.017   6.857   0.987  0.3592  0.7940 -0.0234
   47MOL   C27935331   1.879   6.784   0.803 -0.4483 -0.5292  0.6226
   47MOL   C28035332   1.826   6.665   0.743  0.0853 -0.1575  0.0104
   47MOL   C28135333   1.770   6.671   0.614 -0.2427  0.0311  0.4189
   47MOL   C28235334   1.766   6.791   0.538 -0.0258 -0.1244  0.0553
   47MOL   C28335335   1.723   6.801   0.397 -0.0320  0.1800  0.6558
   47MOL   O28435336   1.699   6.906   0.342 -0.2062 -0.7629 -0.6794
   47MOL   O28535337   1.709   6.674   0.337  0.0201 -0.4985  0.2491
   47MOL   C28635338   1.826   6.904   0.597 -0.7347 -0.0001  0.4670
   47MOL   C28735339   1.878   6.907   0.728 -0.1594  0.4431  0.8080
   47MOL   H28835340   1.928   6.383   1.098 -0.5884 -0.0614 -1.5006
   47MOL   H28935341   2.010   6.447   0.960  1.2526 -3.3344 -0.9370
   47MOL   H29035342   2.219   6.345   1.061  0.1839  1.5034  1.7633
   47MOL   H29135343   2.095   6.219   1.017 -0.1156 -1.7112  1.8704
   47MOL   H29235344   2.027   6.214   1.263 -0.1162 -0.1782  1.6537
   47MOL   H29335345   2.207   6.105   1.347  1.0698 -1.9538 -0.8093
   47MOL   H29435346   2.323   6.168   1.235 -0.2300  1.6520 -2.9463
   47MOL   H29535347   2.264   6.398   1.306  1.1914 -1.9605  2.9512
   47MOL   H29635348   2.146   6.350   1.424  2.5567 -0.1782  0.3732
   47MOL   H29735349   1.972   6.487   1.336  0.0678  0.3907  0.2609
   47MOL   H29835350   2.103   6.598   1.349  0.9368 -0.0870  0.7561
   47MOL   H29935351   2.137   6.619   1.117  2.3438 -0.6841  1.4783
   47MOL   H30035352   1.944   6.731   1.199  0.1887 -1.2101  1.0074
   47MOL   H30135353   1.858   6.580   1.181 -1.0155  0.8412 -1.0575
   47MOL   H30235354   1.831   6.566   0.784 -0.6820  0.1820  0.9448
   47MOL   H30335355   1.726   6.578   0.581  1.2378 -1.8808  3.6205
   47MOL   H30435356   1.833   6.992   0.535 -0.0082  1.2052  2.2296
   47MOL   H30535357   1.917   7.000   0.768 -0.4195 -0.3153  2.9151
   47MOL   C30635358   1.639   6.271   0.199  0.4295  0.0933 -0.3004
   47MOL   C30735359   1.712   6.400   0.238 -0.4949 -0.1418  0.3113
   47MOL   C30835360   1.639   6.516   0.167 -0.5989  0.3638  0.1517
   47MOL   C30935361   1.706   6.653   0.198 -0.6362  0.5467 -0.0374
   47MOL   C31035362   1.656   6.496   0.014  0.0126 -0.3420 -0.1852
   47MOL   C31135363   1.580   6.364   8.001  0.2097  0.9720 -0.2312
   47MOL   C31235364   1.647   6.243   0.044 -0.2162  0.3484  0.0653
   47MOL   C31335365   1.596   6.108   0.003  0.0170 -0.1571  0.0434
   47MOL   O31435366   1.628   6.083   7.896 -0.1168  0.2067  0.8177
   47MOL   C31535367   1.546   6.102   7.793 -0.2368 -0.1469  0.3218
   47MOL   O31635368   1.435   6.158   7.802  0.4367  0.2254 -0.1367
   47MOL   C31735369   1.607   6.061   7.661 -0.8539 -0.1286  0.5277
   47MOL   C31835370   1.540   6.103   7.545  0.3398 -0.0407  0.0425
   47MOL   C31935371   1.594   6.077   7.416 -1.0115  0.2547  0.5493
   47MOL   C32035372   1.719   6.007   7.395 -0.2340  0.4163  0.4246
   47MOL   C32135373   1.774   5.955   7.258  0.1386  0.0533 -0.6621
   47MOL   O32235374   1.876   5.897   7.241 -0.4961 -0.4895 -0.2022
   47MOL   O32335375   1.682   5.994   7.167  0.1097  0.3308 -0.1014
   47MOL   C32435376   1.792   5.976   7.513  0.9091  0.1694 -0.0899
   47MOL   C32535377   1.737   6.005   7.642  0.2908 -0.0642  0.5003
   47MOL   H32635378   1.535   6.276   0.231  1.2262  0.5389  2.3066
   47MOL   H32735379   1.681   6.189   0.257  1.7599 -1.2232 -2.9888
   47MOL   H32835380   1.817   6.393   0.209  0.0867  1.1983  1.9670
   47MOL   H32935381   1.697   6.408   0.346 -3.4703 -1.3969  0.0369
   47MOL   H33035382   1.536   6.513   0.200 -1.8414 -0.7600 -3.5746
   47MOL   H33135383   1.654   6.730   0.141 -0.3546 -0.2812 -1.4290
   47MOL   H33235384   1.810   6.654   0.164 -0.6481  1.7233 -0.0488
   47MOL   H33335385   1.763   6.490   8.029  0.1054  0.4275  0.1344
   47MOL   H33435386   1.614   6.582   7.994 -1.8991  0.0436  1.9276
   47MOL   H33535387   1.476   6.369   0.001  0.6560  1.0864  1.2248
   47MOL   H33635388   1.570   6.344   7.895 -0.4816  1.3589 -0.2421
   47MOL   H33735389   1.752   6.254   0.018 -0.5833  0.9159 -1.2117
   47MOL   H33835390   1.493   6.105   0.039  0.4214 -2.5545  1.1009
   47MOL   H33935391   1.635   6.040   0.079 -0.8080 -0.8616 -0.1508
   47MOL   H34035392   1.437   6.135   7.547  0.2246 -0.4735  1.7791
   47MOL   H34135393   1.530   6.095   7.331  2.1846  0.3555 -1.9242
   47MOL   H34235394   1.887   5.927   7.504  1.2940  1.1275 -1.4319
   47MOL   H34335395   1.786   5.975   7.734  1.3596  0.6175  0.1659
   47MOL   C34435396   1.805   6.243   6.728  0.1102  0.3109 -0.6226
   47MOL   C34535397   1.754   6.116   6.802  0.2710  0.5052 -0.4894
   47MOL   C34635398   1.767   6.114   6.961  0.1353 -0.3696  0.2049
   47MOL   C34735399   1.712   5.983   7.025  0.7738  0.1079 -0.5559
   47MOL   C34835400   1.918   6.139   6.991  0.2239 -0.7586  0.0125
   47MOL   C34935401   1.969   6.261   6.904  0.1316 -0.2142 -0.1418
   47MOL   C35035402   1.954   6.260   6.753  0.9069 -0.2164  0.2019
   47MOL   C35135403   2.004   6.391   6.685  0.3052  0.0867  0.3212
   47MOL   O35235404   1.998   6.374   6.541  0.1575  0.0139 -0.1527
   47MOL   C35335405   1.917   6.446   6.458 -1.1169 -0.0999 -0.2509
   47MOL   O35435406   1.848   6.536   6.502 -0.5582 -0.5230 -0.3162
   47MOL   C35535407   1.917   6.399   6.316  0.1628  0.2798 -0.0411
   47MOL   C35635408   1.840   6.455   6.218  0.0076 -0.4029 -0.1204
   47MOL   C35735409   1.832   6.395   6.092 -0.3911  0.0476 -0.2649
   47MOL   C35835410   1.905   6.283   6.060  0.2796  0.1979 -0.3079
   47MOL   C35935411   1.909   6.225   5.928  0.3646 -0.2258 -0.0023
   47MOL   O36035412   2.018   6.173   5.887 -0.2435  0.1508 -0.5079
   47MOL   O36135413   1.802   6.228   5.860  0.1043  0.2120  0.2728
   47MOL   C36235414   1.989   6.225   6.158  0.0543  0.5901 -0.1250
   47MOL   C36335415   1.997   6.282   6.286 -0.3370 -0.1591 -0.1919
   47MOL   H36435416   1.743   6.323   6.769 -0.1835 -0.5241  0.5983
   47MOL   H36535417   1.783   6.233   6.622  2.3770 -1.2890 -0.9736
   47MOL   H36635418   1.790   6.026   6.753  0.7925  0.8892 -0.8157
   47MOL   H36735419   1.648   6.109   6.777 -0.3670 -1.2482  2.3750
   47MOL   H36835420   1.710   6.193   7.008 -1.4852 -1.9186  0.8762
   47MOL   H36935421   1.787   5.906   7.006  1.4002 -0.2808  3.0816
   47MOL   H37035422   1.626   5.955   6.965 -0.9055  1.2602  1.2618
   47MOL   H37135423   1.981   6.058   6.954  1.1653  0.3041 -0.7565
   47MOL   H37235424   1.947   6.148   7.096 -2.7902  1.2892  0.7383
   47MOL   H37335425   1.913   6.348   6.939  0.7297  0.6830 -1.3931
   47MOL   H37435426   2.076   6.272   6.922  0.2503  1.0349 -1.4653
   47MOL   H37535427   2.019   6.181   6.715  0.2424 -0.3979 -0.5518
   47MOL   H37635428   2.104   6.416   6.719  0.5935 -0.8638  0.1737
   47MOL   H37735429   1.948   6.483   6.704  0.6799  0.4662 -0.3654
   47MOL   H37835430   1.782   6.540   6.250  1.1410  1.1969 -2.1233
   47MOL   H37935431   1.765   6.436   6.018 -1.3339 -0.1282  0.4753
   47MOL   H38035432   2.031   6.128   6.140 -1.0070 -0.4354  2.6344
   47MOL   H38135433   2.054   6.225   6.358  0.5437  0.5524 -0.3290
   47MOL   C38235434   1.755   6.557   5.575  0.2056 -0.0423 -0.0961
   47MOL   C38335435   1.819   6.429   5.634  0.1731  0.3134 -0.0774
   47MOL   C38435436   1.719   6.317   5.652 -0.0304 -0.3486  0.1412
   47MOL   C38535437   1.789   6.191   5.723  0.3823 -0.1048  0.3923
   47MOL   C38635438   1.595   6.356   5.728 -0.0811  0.5235  0.7528
   47MOL   C38735439   1.528   6.460   5.654 -0.0094 -0.4452 -0.2342
   47MOL   C38835440   1.626   6.584   5.647 -0.0944 -0.7680  0.3801
   47MOL   C38935441   1.556   6.705   5.587 -0.2468  0.5473 -0.0585
   47MOL   O39035442   1.639   6.808   5.607  0.6781  0.5717 -0.4402
   47MOL   C39135443   1.614   6.926   5.552 -0.5730 -0.2948  0.3668
   47MOL   O39235444   1.519   6.951   5.476 -0.0188  0.6738 -0.0941
   47MOL   C39335445   1.707   7.038   5.600 -0.9873  0.3480 -0.3039
   47MOL   C39435446   1.815   7.008   5.684 -0.2217  0.3197 -0.3085
   47MOL   C39535447   1.892   7.114   5.738 -0.3734 -0.1960 -0.7739
   47MOL   C39635448   1.859   7.251   5.705 -0.8025  0.6654  0.3040
   47MOL   C39735449   1.926   7.365   5.770  0.4228  0.1060  0.2637
   47MOL   O39835450   1.926   7.476   5.721 -0.0057 -0.2828 -0.0344
   47MOL   O39935451   1.976   7.328   5.884 -0.3079  0.4711 -0.1478
   47MOL   C40035452   1.768   7.273   5.601 -0.3912 -0.5402 -0.7742
   47MOL   C40135453   1.700   7.166   5.547 -0.1122  0.0652  0.0707
   47MOL   H40235454   1.751   6.568   5.467  3.5397 -1.0397 -0.3739
   47MOL   H40335455   1.824   6.638   5.596  0.2775  0.6596 -2.9362
   47MOL   H40435456   1.873   6.452   5.726  1.4433  0.3804 -0.8306
   47MOL   H40535457   1.891   6.393   5.561 -0.3860  0.7346 -0.8421
   47MOL   H40635458   1.681   6.304   5.550 -1.4251  1.1866  0.4542
   47MOL   H40735459   1.885   6.180   5.672  0.8864  0.5440  1.1906
   47MOL   H40835460   1.734   6.098   5.710 -0.5187  0.5963 -0.8403
   47MOL   H40935461   1.626   6.391   5.827  1.3860  0.2430  0.4071
   47MOL   H41035462   1.536   6.265   5.738  1.3204 -0.3557  1.2597
   47MOL   H41135463   1.504   6.439   5.549  2.7128 -0.9062 -0.8052
   47MOL   H41235464   1.432   6.488   5.697  0.7307 -0.5483  1.5023
   47MOL   H41335465   1.663   6.620   5.743 -1.4278 -0.2416  0.7097
   47MOL   H41435466   1.472   6.737   5.647 -1.5638 -3.1739  0.2593
   47MOL   H41535467   1.514   6.678   5.490  0.2034 -0.8989  0.1344
   47MOL   H41635468   1.844   6.906   5.705  0.5011  0.5864 -0.0000
   47MOL   H41735469   1.971   7.096   5.810  0.1530  0.9428 -1.0469
   47MOL   H41835470   1.743   7.374   5.572 -1.5176  0.1926  2.5985
   47MOL   H41935471   1.633   7.186   5.464  0.0486 -1.3819 -0.4287
   47MOL   C42035472   2.415   7.322   5.952 -0.1340 -0.3862  0.3221
   47MOL   C42135473   2.265   7.295   5.966  0.0548  0.2624  0.3521
   47MOL   C42235474   2.185   7.429   5.961 -0.3780 -0.5755 -0.0547
   47MOL   C42335475   2.032   7.401   5.989 -0.4782  0.1161 -0.3514
   47MOL   C42435476   2.229   7.533   6.068 -1.1376 -0.0723 -0.6948
   47MOL   C42535477   2.379   7.559   6.053 -0.8360  0.4476 -0.1027
   47MOL   C42635478   2.456   7.420   6.063  0.2696  0.3149  0.7262
   47MOL   C42735479   2.608   7.447   6.058  0.1007 -0.2578 -0.0613
   47MOL   O42835480   2.635   7.538   5.956  0.2551 -0.1333  0.8164
   47MOL   C42935481   2.677   7.501   5.833  0.6001 -0.4131 -0.7539
   47MOL   O43035482   2.684   7.386   5.796  0.1811 -0.1774  0.8366
   47MOL   C43135483   2.697   7.614   5.746 -0.7800 -0.0761  1.0704
   47MOL   C43235484   2.687   7.754   5.784  0.1095 -0.4760  0.0955
   47MOL   C43335485   2.715   7.861   5.699 -0.1023 -0.1562 -0.1798
   47MOL   C43435486   2.767   7.836   5.565 -0.4432  0.2785 -0.1716
   47MOL   C43535487   2.822   7.944   5.479 -0.1183 -0.0082  0.8427
   47MOL   O43635488   2.891   7.918   5.384 -0.4824 -0.0590 -0.6090
   47MOL   O43735489   2.788   0.033   5.510  0.7678 -0.1629  0.0507
   47MOL   C43835490   2.772   7.707   5.519 -0.3263 -0.4810  0.6612
   47MOL   C43935491   2.732   7.602   5.611  0.6794  0.7635  0.5627
   47MOL   H44035492   2.428   7.367   5.853  0.6191 -0.3154  0.4482
   47MOL   H44135493   2.463   7.225   5.963 -1.7413 -1.0848  1.2022
   47MOL   H44235494   2.239   7.229   6.049  0.5331 -0.7388 -0.2884
   47MOL   H44335495   2.238   7.232   5.881  1.8408 -0.2776  0.1843
   47MOL   H44435496   2.187   7.480   5.864 -0.0226  0.4922  0.5008
   47MOL   H44535497   1.983   7.494   6.016 -1.0976  0.1287 -1.5138
   47MOL   H44635498   2.020   7.339   6.078 -2.4125  1.4850  0.3573
   47MOL   H44735499   2.209   7.492   6.167  0.5400  0.1220 -0.2643
   47MOL   H44835500   2.169   7.623   6.055 -1.0765  0.1098  0.3085
   47MOL   H44935501   2.401   7.612   5.961 -0.0094 -1.5749 -1.1001
   47MOL   H45035502   2.403   7.624   6.137  0.4313 -0.5873  0.3399
   47MOL   H45135503   2.423   7.377   6.157  0.6971 -2.5473 -0.3712
   47MOL   H45235504   2.662   7.357   6.027 -2.0632 -1.9825  0.9863
   47MOL   H45335505   2.639   7.490   6.152  1.2308 -0.1991 -0.4557
   47MOL   H45435506   2.639   7.780   5.877 -0.7727 -1.5419 -0.0378
   47MOL   H45535507   2.700   7.962   5.734 -0.4866 -0.5892  0.9109
   47MOL   H45635508   2.804   7.692   5.417  0.9158 -3.1127  1.3917
   47MOL   H45735509   2.736   7.499   5.582  1.6364  0.7125  0.8749
   47MOL   C45835510   2.942   0.474   5.672 -0.4522 -0.2402  0.3714
   47MOL   C45935511   2.928   0.385   5.556 -0.2073 -0.2225  0.4582
   47MOL   C46035512   2.890   0.241   5.590 -0.0807  0.2375 -0.6914
   47MOL   C46135513   2.853   0.152   5.463  0.3332  0.4381 -0.3288
   47MOL   C46235514   3.002   0.184   5.676  0.0345 -0.1100 -0.0519
   47MOL   C46335515   3.013   0.269   5.803 -0.9411 -0.0968 -0.0335
   47MOL   C46435516   3.042   0.418   5.774 -0.9078  0.5204 -0.9584
   47MOL   C46535517   3.055   0.503   5.898 -0.2302 -0.3994 -0.3525
   47MOL   O46635518   3.128   0.624   5.871  0.3077 -0.2732 -0.0670
   47MOL   C46735519   3.133   0.734   5.954 -0.8830  0.4606  0.2397
   47MOL   O46835520   3.062   0.734   6.060  0.1129 -0.4415 -0.0667
   47MOL   C46935521   3.220   0.846   5.899 -0.5852 -0.3318  0.0091
   47MOL   C47035522   3.276   0.845   5.768  0.2337 -0.7215  0.2232
   47MOL   C47135523   3.359   0.944   5.721 -0.5546 -0.1285  0.8326
   47MOL   C47235524   3.378   1.057   5.807 -0.6102 -0.5378 -0.5900
   47MOL   C47335525   3.439   1.176   5.744  0.3763  0.6585 -0.4876
   47MOL   O47435526   3.508   1.178   5.645 -0.5127 -0.0575  0.6374
   47MOL   O47535527   3.418   1.281   5.821 -0.4450 -0.5504  0.1438
   47MOL   C47635528   3.332   1.065   5.941 -0.4537 -0.4658 -0.2401
   47MOL   C47735529   3.251   0.955   5.989  0.2021 -0.0005 -0.3778
   47MOL   H47835530   2.842   0.489   5.712 -0.9725  1.5199 -1.5043
   47MOL   H47935531   2.981   0.569   5.636 -0.6380 -0.7090 -1.0908
   47MOL   H48035532   3.014   0.391   5.489  0.0060  0.5665  0.7958
   47MOL   H48135533   2.852   0.426   5.489  1.3615  1.1932 -0.5128
   47MOL   H48235534   2.801   0.242   5.653  0.9380 -0.3777  0.7766
   47MOL   H48335535   2.949   0.132   5.415  1.0327 -0.2314  1.3244
   47MOL   H48435536   2.791   0.210   5.395 -0.4550  1.4718  1.2474
   47MOL   H48535537   3.096   0.175   5.622  0.4785  0.6928  0.5755
   47MOL   H48635538   2.980   0.081   5.704  2.2464 -0.4885  0.4156
   47MOL   H48735539   2.918   0.274   5.856 -2.0196  0.5160 -2.0050
   47MOL   H48835540   3.085   0.232   5.876 -1.8452 -1.3239  0.2426
   47MOL   H48935541   3.134   0.416   5.716 -1.2279  0.0150 -1.4612
   47MOL   H49035542   3.100   0.438   5.972 -0.9929 -1.1760 -0.5529
   47MOL   H49135543   2.956   0.531   5.934  0.9794  1.1606  1.8283
   47MOL   H49235544   3.244   0.775   5.692  0.6146 -0.0727 -0.5432
   47MOL   H49335545   3.387   0.951   5.617 -1.5549 -3.7024  0.2790
   47MOL   H49435546   3.349   1.155   5.999  0.2446 -0.3099 -0.6863
   47MOL   H49535547   3.220   0.950   6.093  1.1996 -2.3117 -0.1544
   47MOL   C49635548   3.399   1.760   5.938  0.4040 -0.0514 -0.2615
   47MOL   C49735549   3.456   1.661   5.831 -0.0156 -0.3001  0.5512
   47MOL   C49835550   3.429   1.518   5.879  0.6678  0.2040  1.0474
   47MOL   C49935551   3.476   1.404   5.788 -0.8541 -0.6737  0.3817
   47MOL   C50035552   3.489   1.491   6.014  0.3958  0.5342 -0.5593
   47MOL   C50135553   3.425   1.591   6.114 -0.3216 -0.8422 -0.5912
   47MOL   C50235554   3.464   1.731   6.077 -0.7181 -0.0036 -0.4445
   47MOL   C50335555   3.426   1.830   6.182 -0.4545  0.0482  0.4871
   47MOL   O50435556   3.490   1.949   6.128  0.0987  0.0251 -0.1700
   47MOL   C50535557   3.476   2.060   6.209 -0.2545  0.2881 -0.3660
   47MOL   O50635558   3.386   2.072   6.292 -0.0303  0.2922  0.3797
   47MOL   C50735559   3.576   2.169   6.180 -0.3303 -0.1496  0.7359
   47MOL   C50835560   3.645   2.168   6.053  0.0589 -0.1643 -0.6084
   47MOL   C50935561   3.723   2.278   6.014 -0.6068  0.3209 -0.4659
   47MOL   C51035562   3.741   2.385   6.105  0.5358 -0.0192 -0.1442
   47MOL   C51135563   3.807   2.514   6.065 -0.2283  0.5036  0.9331
   47MOL   O51235564   3.854   2.528   5.947  0.1678 -0.2433 -0.0203
   47MOL   O51335565   3.795   2.613   6.154  0.0216 -0.0669  0.0302
   47MOL   C51435566   3.671   2.382   6.226  0.1133  0.1045 -0.1631
   47MOL   C51535567   3.593   2.272   6.273 -0.4892 -0.2081 -0.1969
   47MOL   H51635568   3.293   1.737   5.945  0.3940 -0.3910 -1.3856
   47MOL   H51735569   3.421   1.863   5.913 -0.7199 -0.3490 -2.6378
   47MOL   H51835570   3.563   1.678   5.815 -0.1757  0.4795  0.2964
   47MOL   H51935571   3.428   1.674   5.727 -0.3862 -3.0404  0.2823
   47MOL   H52035572   3.320   1.510   5.882  0.8251 -2.1694  0.9541
   47MOL   H52135573   3.585   1.401   5.789 -0.8449  0.0099  1.7056
   47MOL   H52235574   3.429   1.424   5.692 -0.0794  0.9923  0.3444
   47MOL   H52335575   3.596   1.504   6.031  0.7463 -2.0798 -0.5814
   47MOL   H52435576   3.458   1.392   6.046  0.5494  0.4496 -0.6697
   47MOL   H52535577   3.321   1.575   6.142  0.0761  0.0265  1.4990
   47MOL   H52635578   3.479   1.576   6.207  0.9568  0.8057 -1.0557
   47MOL   H52735579   3.572   1.736   6.063 -0.7388 -1.1828 -1.0862
   47MOL   H52835580   3.451   1.808   6.286  1.0127  3.2378  0.8962
   47MOL   H52935581   3.319   1.844   6.176 -0.6334 -0.8373  1.4523
   47MOL   H53035582   3.635   2.085   5.984  2.0557 -0.5449 -0.4623
   47MOL   H53135583   3.767   2.281   5.916 -1.0377 -0.0961 -0.6742
   47MOL   H53235584   3.666   2.470   6.288 -0.2778  1.2043 -1.7351
   47MOL   H53335585   3.554   2.265   6.374  3.7097 -1.7906  1.4299
   47MOL   C53435586   3.682   2.957   6.421  0.1143  0.3731  0.2223
   47MOL   C53535587   3.696   2.869   6.298  0.2853 -0.5407 -0.0621
   47MOL   C53635588   3.840   2.834   6.257  0.2193  0.5213  0.1722
   47MOL   C53735589   3.856   2.745   6.126  0.3681 -0.0202 -0.3046
   47MOL   C53835590   3.914   2.965   6.234  0.1065  0.5868  0.5185
   47MOL   C53935591   3.909   3.065   6.349  0.1007  0.1871 -0.1770
   47MOL   C54035592   3.763   3.084   6.398 -0.3073 -0.1012  0.0135
   47MOL   C54135593   3.749   3.182   6.520  0.7880 -0.5449  0.3882
   47MOL   O54235594   3.865   3.196   6.606  0.1854  0.3293 -0.0841
   47MOL   C54335595   3.891   3.107   6.704  0.5301 -0.2550 -0.0134
   47MOL   O54435596   3.826   3.005   6.710 -0.1245  0.1400  0.1331
   47MOL   C54535597   3.980   3.153   6.810  0.1456  0.0604 -0.1226
   47MOL   C54635598   4.021   3.289   6.807  0.0255 -0.5611 -0.9443
   47MOL   C54735599   4.102   3.333   6.915 -0.0279  0.9214  0.6130
   47MOL   C54835600   4.151   3.236   7.009  0.7280  0.4408 -0.2878
   47MOL   C54935601   4.234   3.281   7.123  0.1192  0.2019 -0.0956
   47MOL   O55035602   4.213   3.252   7.242  0.2818 -0.2983  0.1653
   47MOL   O55135603   4.340   3.350   7.076  0.0871 -0.3209  0.3606
   47MOL   C55235604   4.096   3.105   7.018 -0.5629 -0.4261 -0.2521
   47MOL   C55335605   4.012   3.060   6.916 -0.1214 -0.2363  0.2479
   47MOL   H55435606   3.732   2.902   6.500 -0.4618 -2.0995 -1.0926
   47MOL   H55535607   3.578   2.959   6.453  0.2931 -0.2219  0.8520
   47MOL   H55635608   3.662   2.937   6.220 -0.4772 -2.3987 -1.3893
   47MOL   H55735609   3.640   2.775   6.305 -0.7129 -0.0680 -1.4673
   47MOL   H55835610   3.888   2.782   6.341 -1.1651  0.8115  1.1576
   47MOL   H55935611   3.962   2.723   6.113  0.0749 -1.1345 -0.8881
   47MOL   H56035612   3.819   2.788   6.033  1.9250 -2.7800 -2.2861
   47MOL   H56135613   3.866   3.015   6.150  1.0326 -0.5703 -0.7218
   47MOL   H56235614   4.013   2.949   6.191 -0.3567  2.4016 -1.3232
   47MOL   H56335615   3.968   3.022   6.430  2.1046  1.3106 -1.0140
   47MOL   H56435616   3.951   3.161   6.321  0.5718  0.2410  0.7071
   47MOL   H56535617   3.705   3.125   6.316 -0.5063 -2.4913 -1.0724
   47MOL   H56635618   3.662   3.189   6.585  0.5592 -0.5481  0.0860
   47MOL   H56735619   3.727   3.274   6.464  0.9314 -1.0111 -0.4378
   47MOL   H56835620   3.992   3.356   6.727  1.8581  0.2043 -1.0059
   47MOL   H56935621   4.136   3.435   6.920  0.2744  0.8896 -0.5462
   47MOL   H57035622   4.124   3.039   7.099 -2.9576 -1.3180 -0.1221
   47MOL   H57135623   3.967   2.962   6.908  0.2694 -0.4043  0.1392
   47MOL   C57235624   4.209   3.753   7.166 -0.4546 -0.5724 -0.5007
   47MOL   C57335625   4.237   3.607   7.198  0.2239  0.0299  0.2008
   47MOL   C57435626   4.379   3.572   7.152  0.5578  0.3979 -0.3978
   47MOL   C57535627   4.418   3.429   7.167 -0.5636  0.2058  0.3654
   47MOL   C57635628   4.403   3.608   7.003  0.0708 -0.2310  0.1726
   47MOL   C57735629   4.371   3.757   6.973 -0.5650  0.3427 -0.6412
   47MOL   C57835630   4.228   3.781   7.015  0.7161 -0.6924  0.0502
   47MOL   C57935631   4.168   3.922   6.978 -0.1438  0.5513 -0.5499
   47MOL   O58035632   4.028   3.906   6.978 -0.0475  0.4094 -0.2774
   47MOL   C58135633   3.949   3.998   6.921  0.6453  0.2370 -0.2656
   47MOL   O58235634   3.997   4.096   6.863  0.3185  0.5782 -0.1190
   47MOL   C58335635   3.806   3.951   6.908  0.4838  0.0447 -0.5723
   47MOL   C58435636   3.713   4.036   6.843 -0.1199 -0.1516 -0.3902
   47MOL   C58535637   3.583   3.991   6.833  0.6598 -0.3938  0.4350
   47MOL   C58635638   3.536   3.871   6.888 -0.2505  0.3805  0.4780
   47MOL   C58735639   3.398   3.823   6.857 -0.3276 -0.4064 -0.2326
   47MOL   O58835640   3.321   3.882   6.779 -0.2787  0.6036  0.2792
   47MOL   O58935641   3.368   3.712   6.915  0.5189 -0.5664 -0.5800
   47MOL   C59035642   3.628   3.792   6.958  0.4280  0.1428 -1.3653
   47MOL   C59135643   3.766   3.828   6.969  0.0040  0.6582  0.5381
   47MOL   H59235644   4.263   3.822   7.231 -0.1956 -1.9951  0.8122
   47MOL   H59335645   4.104   3.766   7.193 -0.4887  0.3071 -1.0358
   47MOL   H59435646   4.160   3.539   7.161  0.5458  0.3876 -1.1411
   47MOL   H59535647   4.224   3.597   7.306 -1.8202  2.0539  0.1790
   47MOL   H59635648   4.450   3.635   7.206  1.0777  1.3922 -2.1926
   47MOL   H59735649   4.414   3.396   7.271  0.4101 -0.4957  0.1937
   47MOL   H59835650   4.515   3.419   7.118 -1.2877  1.0527 -1.2909
   47MOL   H59935651   4.345   3.540   6.939 -0.7799  0.8602 -0.2264
   47MOL   H60035652   4.509   3.591   6.984  0.4375  1.0798  1.0157
   47MOL   H60135653   4.441   3.819   7.028 -0.3339  0.2752 -0.8603
   47MOL   H60235654   4.380   3.784   6.868 -0.4860  1.3121 -0.3841
   47MOL   H60335655   4.163   3.714   6.959 -0.0640  0.6186 -0.6530
   47MOL   H60435656   4.197   3.962   6.881 -0.6287  0.5545 -0.6947
   47MOL   H60535657   4.200   3.992   7.055 -0.8498 -1.2213  1.3933
   47MOL   H60635658   3.743   4.126   6.791  1.2056  0.2463  1.0553
   47MOL   H60735659   3.521   4.047   6.765 -0.0162 -0.5705  0.8982
   47MOL   H60835660   3.600   3.701   7.008 -1.0242  0.9125 -0.7475
   47MOL   H60935661   3.832   3.763   7.023  0.3794  0.6717  0.1011
   47MOL   C61035662   3.134   3.281   6.991  0.1987  0.4235 -0.6671
   47MOL   C61135663   3.126   3.419   6.929  0.0831 -0.0911  0.0897
   47MOL   C61235664   3.245   3.504   6.967  0.0308 -0.9775  0.5892
   47MOL   C61335665   3.244   3.642   6.884  0.1737  0.3955  0.6539
   47MOL   C61435666   3.252   3.514   7.118  0.3243 -0.1123 -0.4958
   47MOL   C61535667   3.257   3.382   7.196 -0.3269  0.1230 -0.1331
   47MOL   C61635668   3.140   3.299   7.140  0.7719  0.0253 -1.1481
   47MOL   C61735669   3.117   3.163   7.203 -0.0950  0.5519 -0.7093
   47MOL   O61835670   3.244   3.088   7.199  0.7326  0.2485 -0.0908
   47MOL   C61935671   3.238   2.965   7.255 -0.0038  0.2915 -0.0592
   47MOL   O62035672   3.131   2.913   7.289 -0.2017 -0.3972 -0.6242
   47MOL   C62135673   3.369   2.894   7.250 -0.0664  0.2635  0.6555
   47MOL   C62235674   3.488   2.966   7.247  0.1568  0.0841 -0.4361
   47MOL   C62335675   3.617   2.902   7.255  0.2993  0.3724 -0.0164
   47MOL   C62435676   3.618   2.763   7.248  0.6776 -0.2264 -0.1971
   47MOL   C62535677   3.748   2.702   7.261 -0.3822  1.0379  0.1575
   47MOL   O62635678   3.857   2.760   7.243 -0.1238 -0.7660 -0.1157
   47MOL   O62735679   3.738   2.569   7.277  0.1597 -0.4477  0.2653
   47MOL   C62835680   3.501   2.688   7.252 -0.2255 -0.3839  0.0094
   47MOL   C62935681   3.372   2.753   7.257 -0.5789  1.3632  0.0812
   47MOL   H63035682   3.220   3.226   6.953 -1.2523 -1.3265 -1.4961
   47MOL   H63135683   3.046   3.229   6.955  0.5190 -0.0131 -0.8258
   47MOL   H63235684   3.032   3.465   6.961  0.1930  0.1556  0.0608
   47MOL   H63335685   3.120   3.414   6.821  0.2675 -0.9771  0.1153
   47MOL   H63435686   3.337   3.462   6.929  1.7405  2.7968  0.2913
   47MOL   H63535687   3.161   3.710   6.905  0.0806  1.5644 -3.1803
   47MOL   H63635688   3.241   3.616   6.779  0.1632  2.1251  0.2101
   47MOL   H63735689   3.159   3.565   7.142  0.6692  0.6032 -0.6512
   47MOL   H63835690   3.339   3.577   7.140  0.2795 -0.9990  2.4071
   47MOL   H63935691   3.349   3.327   7.174 -0.1793  0.6565 -0.8820
   47MOL   H64035692   3.252   3.400   7.303 -0.2176  0.3853 -0.1703
   47MOL   H64135693   3.049   3.358   7.157 -0.3076 -1.7151 -0.8299
   47MOL   H64235694   3.044   3.097   7.156  1.4418 -0.4124 -1.8134
   47MOL   H64335695   3.099   3.178   7.310  0.8193 -2.8794  0.0092
   47MOL   H64435696   3.479   3.073   7.250  0.1844  0.0818 -0.2679
   47MOL   H64535697   3.713   2.952   7.256  1.1063 -1.1386  2.5017
   47MOL   H64635698   3.502   2.581   7.261 -0.7373 -0.6179 -2.3621
   47MOL   H64735699   3.282   2.696   7.276  0.5854 -0.1216  1.2830
   47MOL   C64835700   4.038   2.396   7.632  0.0517  0.8676  0.5513
   47MOL   C64935701   4.025   2.402   7.479 -0.3788  0.1074 -0.3301
   47MOL   C65035702   3.888   2.474   7.450 -0.3075  0.5646  0.0619
   47MOL   C65135703   3.859   2.496   7.305  0.5654  0.4829 -0.4474
   47MOL   C65235704   3.771   2.404   7.517 -0.0928 -0.2557  0.1593
   47MOL   C65335705   3.790   2.385   7.673 -0.1966  0.2926  0.0675
   47MOL   C65435706   3.929   2.316   7.702 -0.7141  0.3928 -0.0824
   47MOL   C65535707   3.958   2.311   7.851 -0.0202  0.6110 -0.7027
   47MOL   O65635708   3.871   2.234   7.937  0.2936 -0.3824  0.3572
   47MOL   C65735709   3.786   2.306   8.021  0.3491 -0.7441  0.8589
   47MOL   O65835710   3.784   2.430   8.023 -0.0390  0.1671 -0.7100
   47MOL   C65935711   3.710   2.226   0.090 -0.3471  0.0786 -0.1790
   47MOL   C66035712   3.626   2.289   0.181  0.7135 -0.2612 -0.5600
   47MOL   C66135713   3.541   2.222   0.270 -0.1999 -0.1468 -0.1725
   47MOL   C66235714   3.552   2.082   0.271 -0.3023  0.2165 -0.2169
   47MOL   C66335715   3.486   1.997   0.377  0.7541  0.4261  0.4932
   47MOL   O66435716   3.490   1.874   0.377 -0.7106  0.1752  0.5463
   47MOL   O66535717   3.437   2.072   0.482 -0.6813 -0.8821 -0.3509
   47MOL   C66635718   3.621   2.018   0.170  0.3781 -0.1888  0.4299
   47MOL   C66735719   3.713   2.084   0.082  0.1289 -0.2007 -0.4349
   47MOL   H66835720   4.053   2.492   7.681  0.2270  1.0733  0.0978
   47MOL   H66935721   4.132   2.347   7.657 -0.3832  0.7486  2.0058
   47MOL   H67035722   4.032   2.304   7.431 -0.7880  0.1829 -0.5407
   47MOL   H67135723   4.108   2.455   7.432  1.1887  1.3058  3.6325
   47MOL   H67235724   3.891   2.578   7.485  1.2205  0.9333 -1.0772
   47MOL   H67335725   3.850   2.399   7.256 -0.2762 -0.7084  1.9786
   47MOL   H67435726   3.947   2.536   7.255 -0.6928  3.3989 -0.4480
   47MOL   H67535727   3.765   2.307   7.467 -0.1369 -0.6693  0.9622
   47MOL   H67635728   3.677   2.456   7.503 -0.1972  0.4670  3.1414
   47MOL   H67735729   3.783   2.486   7.712  0.4441  0.9565 -1.4905
   47MOL   H67835730   3.705   2.332   7.716 -1.0233  0.8971 -0.7858
   47MOL   H67935731   3.934   2.214   7.664  2.2418 -0.0457  1.3083
   47MOL   H68035732   3.986   2.403   7.904 -1.2561  0.4400  0.2970
   47MOL   H68135733   4.051   2.256   7.842 -0.4415 -0.4380  1.1086
   47MOL   H68235734   3.628   2.397   0.178 -1.6630 -0.1752  0.0590
   47MOL   H68335735   3.483   2.283   0.337  0.4063 -0.4749  0.6659
   47MOL   H68435736   3.629   1.910   0.167 -0.1066 -0.2507  1.2767
   47MOL   H68535737   3.780   2.027   0.020 -1.0650 -1.5240 -0.5418
   47MOL   C68635738   3.502   2.254   0.884  0.4965 -0.7232  0.1490
   47MOL   C68735739   3.447   2.210   0.744  0.1980  0.3474  0.5567
   47MOL   C68835740   3.439   2.056   0.729  0.1516  0.4113  0.0108
   47MOL   C68935741   3.387   2.010   0.597  0.1528 -0.1916 -0.0411
   47MOL   C69035742   3.582   2.008   0.755 -0.0433 -0.4835 -0.3779
   47MOL   C69135743   3.625   2.038   0.899  0.4081  0.2903 -0.0890
   47MOL   C69235744   3.640   2.185   0.913  0.0425  0.2504  0.3031
   47MOL   C69335745   3.691   2.229   1.054 -0.1451 -0.7591  0.1682
   47MOL   O69435746   3.722   2.366   1.037 -0.5051  0.1601 -0.2811
   47MOL   C69535747   3.751   2.442   1.147 -0.1251  0.4319  0.0444
   47MOL   O69635748   3.748   2.394   1.265  0.8719  0.0725  0.1199
   47MOL   C69735749   3.762   2.587   1.114 -0.1498 -0.0072 -0.4895
   47MOL   C69835750   3.718   2.641   0.987  0.0404  0.0212  0.0938
   47MOL   C69935751   3.715   2.779   0.969 -0.0560  0.7292 -0.0618
   47MOL   C70035752   3.763   2.866   1.069  0.6491  1.2310 -0.3240
   47MOL   C70135753   3.775   3.012   1.042  0.5080  0.2524  0.1183
   47MOL   O70235754   3.823   3.093   1.122 -0.4982 -0.6942  0.0763
   47MOL   O70335755   3.735   3.039   0.928  0.1743  0.5933  0.4180
   47MOL   C70435756   3.805   2.817   1.192 -0.2717  0.4148 -0.0563
   47MOL   C70535757   3.806   2.678   1.212  0.2484 -0.2284  0.5173
   47MOL   H70635758   3.436   2.227   0.966  1.9643 -0.8644  1.3042
   47MOL   H70735759   3.539   2.356   0.886 -2.0071  0.2088  0.0463
   47MOL   H70835760   3.495   2.253   0.656 -0.8478 -1.3461 -0.8856
   47MOL   H70935761   3.348   2.257   0.744  0.3820  0.7650 -1.1969
   47MOL   H71035762   3.376   2.024   0.812 -1.1078  1.5257 -0.4978
   47MOL   H71135763   3.289   2.056   0.582 -0.2947 -0.2822  2.3903
   47MOL   H71235764   3.392   1.901   0.597 -0.8049 -0.2542  1.2094
   47MOL   H71335765   3.650   2.052   0.683 -0.9441  0.1810 -0.8240
   47MOL   H71435766   3.596   1.901   0.740  1.0776 -0.3002 -0.6570
   47MOL   H71535767   3.555   1.986   0.966  1.3480  0.3470  0.9591
   47MOL   H71635768   3.719   1.983   0.907 -0.4770 -1.0471  1.9597
   47MOL   H71735769   3.718   2.220   0.845 -0.0782  2.6800  1.3520
   47MOL   H71835770   3.776   2.165   1.075 -0.9601 -1.3375  1.8089
   47MOL   H71935771   3.616   2.222   1.134 -2.0026 -0.0809 -1.4746
   47MOL   H72035772   3.682   2.584   0.903 -1.0287 -0.9204  1.1789
   47MOL   H72135773   3.674   2.817   0.876 -1.5066  0.3540  0.4110
   47MOL   H72235774   3.846   2.886   1.265  1.6061 -0.5852 -0.1441
   47MOL   H72335775   3.829   2.634   1.308 -4.0472 -0.5412  1.4875
   47MOL   C72435776   3.356   3.215   0.811 -0.4673 -0.1808 -0.0718
   47MOL   C72535777   3.488   3.147   0.830  0.0253  0.6194 -0.1968
   47MOL   C72635778   3.605   3.235   0.889 -0.5705 -0.1449  0.6043
   47MOL   C72735779   3.741   3.165   0.872  0.1005 -1.2749  0.6144
   47MOL   C72835780   3.614   3.374   0.822 -0.5464 -0.1466  0.6092
   47MOL   C72935781   3.477   3.445   0.823  0.4678 -0.1106  0.0889
   47MOL   C73035782   3.363   3.359   0.754  0.0076  0.3266 -0.0112
   47MOL   C73135783   3.224   3.422   0.745 -0.1763  0.0087 -0.3778
   47MOL   O73235784   3.175   3.468   0.870 -0.4364  0.5726 -0.0419
   47MOL   C73335785   3.085   3.401   0.955 -0.4043  0.0819 -0.6427
   47MOL   O73435786   3.042   3.289   0.927 -0.0614 -0.0614 -0.3977
   47MOL   C73535787   3.069   3.469   1.086 -0.0987  0.5118 -0.7138
   47MOL   C73635788   3.120   3.599   1.100 -0.3782  0.4750 -0.6825
   47MOL   C73735789   3.119   3.655   1.224 -0.3667 -0.1852 -0.4969
   47MOL   C73835790   3.055   3.593   1.335 -0.1912  0.7072 -0.3158
   47MOL   C73935791   3.035   3.674   1.461 -0.3669  0.3769 -0.3114
   47MOL   O74035792   3.088   3.782   1.492  0.0805  0.0365  0.0030
   47MOL   O74135793   2.956   3.614   1.549 -0.0368  0.0868 -0.6597
   47MOL   C74235794   3.005   3.465   1.319  0.4795 -0.4463 -0.3182
   47MOL   C74335795   3.018   3.398   1.196 -1.0471  0.5687 -0.5358
   47MOL   H74435796   3.314   3.220   0.912  1.4749  2.8491  0.6318
   47MOL   H74535797   3.284   3.156   0.755 -0.4159  0.6388 -1.0078
   47MOL   H74635798   3.532   3.115   0.736 -1.9125  0.7191 -1.1426
   47MOL   H74735799   3.473   3.057   0.889 -0.7257  0.0715 -1.2157
   47MOL   H74835800   3.590   3.245   0.997  2.6331 -0.3726  1.1018
   47MOL   H74935801   3.823   3.226   0.910 -0.2942 -0.7546  0.6432
   47MOL   H75035802   3.753   3.157   0.764  1.1734  1.4354  0.4868
   47MOL   H75135803   3.628   3.359   0.715  0.3190  4.2927 -0.0020
   47MOL   H75235804   3.702   3.423   0.864  1.3262 -1.8831 -1.1906
   47MOL   H75335805   3.444   3.457   0.926  0.7500 -0.0207  0.1681
   47MOL   H75435806   3.484   3.545   0.782 -3.5368  0.5980  0.8651
   47MOL   H75535807   3.391   3.350   0.649  0.0260  2.3596 -0.1956
   47MOL   H75635808   3.158   3.347   0.703 -1.4634  1.3131 -0.7317
   47MOL   H75735809   3.228   3.503   0.672 -0.6419  0.5392  0.1842
   47MOL   H75835810   3.158   3.651   1.013 -2.1009 -0.1828 -1.8674
   47MOL   H75935811   3.152   3.757   1.236 -0.3283 -0.1726 -0.6998
   47MOL   H76035812   2.954   3.419   1.402  1.8687  0.3925  1.0362
   47MOL   H76135813   2.988   3.295   1.186 -0.8486  0.4196  0.3317
   47MOL   H76235814   2.998   3.628   1.632 -2.3409  0.8284  0.4432
   48MOL     C135815   0.831   2.271   5.294 -0.0239  0.1750 -0.0299
   48MOL     C235816   0.977   2.246   5.285  0.2233  0.8781 -0.0168
   48MOL     C335817   1.055   2.382   5.285  0.1714 -0.0176  0.0537
   48MOL     C435818   1.206   2.351   5.275 -0.7324 -0.4599 -0.1415
   48MOL     C535819   1.011   2.466   5.172 -0.8207 -0.3947  0.3492
   48MOL     C635820   0.860   2.497   5.188  0.4190  0.2080  0.1667
   48MOL     C735821   0.780   2.364   5.177  0.0576  0.2299  0.4026
   48MOL     C835822   0.623   2.380   5.174  0.2930 -0.5214 -0.3025
   48MOL     O935823   0.575   2.448   5.063 -1.0642 -0.1212 -0.3610
   48MOL    C1035824   0.444   2.442   5.047 -0.1219 -0.1872 -0.0694
   48MOL    O1135825   0.364   2.404   5.138  0.0227 -0.1957  0.0015
   48MOL    C1235826   0.397   2.476   4.911  0.6660  0.3311 -0.0148
   48MOL    C1335827   0.490   2.530   4.814  0.8939  0.1687 -0.0964
   48MOL    C1435828   0.436   2.563   4.687  0.2112  0.3232  0.0125
   48MOL    C1535829   0.307   2.532   4.652 -0.4411 -0.0861  0.1946
   48MOL    C1635830   0.244   2.578   4.518 -0.0588  0.0864 -0.4644
   48MOL    O1735831   0.301   2.641   4.432  0.1301 -0.1481  0.1058
   48MOL    O1835832   0.117   2.527   4.504  0.4567 -0.6159 -0.5548
   48MOL    C1935833   0.217   2.482   4.747  0.7375 -0.0134  0.5566
   48MOL    C2035834   0.262   2.459   4.876  0.0568 -0.5486 -0.3815
   48MOL    H2135835   0.813   2.309   5.395 -0.2520  1.4730 -0.5543
   48MOL    H2235836   0.781   2.174   5.287  1.8586 -0.7744 -0.8722
   48MOL    H2335837   1.001   2.175   5.206  0.8882 -0.1152  1.0647
   48MOL    H2435838   1.008   2.195   5.375 -0.5012 -1.4207 -1.0421
   48MOL    H2535839   1.035   2.432   5.380 -1.4634  0.9185 -0.7613
   48MOL    H2635840   1.257   2.445   5.256 -1.3966  0.0897  0.7427
   48MOL    H2735841   1.240   2.285   5.196  1.5810 -0.6680  0.9828
   48MOL    H2835842   1.030   2.412   5.080  1.2474  1.0228 -0.0896
   48MOL    H2935843   1.066   2.560   5.172  0.5206 -1.1645  1.4756
   48MOL    H3035844   0.833   2.546   5.282 -0.1985 -0.8125  0.5322
   48MOL    H3135845   0.836   2.571   5.111  0.0479 -0.0826  0.0006
   48MOL    H3235846   0.810   2.316   5.084  0.8328 -0.6086  1.0748
   48MOL    H3335847   0.582   2.428   5.263  1.3220  0.7925 -0.5245
   48MOL    H3435848   0.572   2.284   5.171 -1.9019  0.4722  2.8988
   48MOL    H3535849   0.588   2.561   4.844  0.5689 -0.6735  1.8849
   48MOL    H3635850   0.502   2.603   4.611 -0.1550  0.0029 -0.4802
   48MOL    H3735851   0.114   2.462   4.723  1.3938 -3.0642  0.0717
   48MOL    H3835852   0.187   2.409   4.936 -0.6921  0.7150 -0.2464
   48MOL    H3935853   1.244   2.310   5.369 -0.3452  0.4244  0.0944
   48MOL    C4035854   7.769   2.336   4.458 -0.0180 -0.2444  0.0098
   48MOL    C4135855   7.911   2.377   4.461 -0.5059 -0.8211  0.1544
   48MOL    C4235856   7.923   2.516   4.401  0.0240  0.3923 -0.0580
   48MOL    C4335857   0.046   2.553   4.379 -0.2748 -0.6617 -0.2875
   48MOL    C4435858   7.857   2.539   4.271 -0.2044 -0.3413  0.5903
   48MOL    C4535859   7.708   2.490   4.275 -0.4210 -0.1738 -0.7646
   48MOL    C4635860   7.707   2.342   4.321  0.2249 -0.1554 -0.9040
   48MOL    C4735861   7.570   2.284   4.320  0.0770  0.1494 -0.3403
   48MOL    O4835862   7.493   2.364   4.412 -0.1819 -0.4252 -0.5004
   48MOL    C4935863   7.363   2.357   4.399  0.5396 -0.0862 -0.1801
   48MOL    O5035864   7.301   2.293   4.313  0.0938 -0.0989  0.2854
   48MOL    C5135865   7.284   2.434   4.501 -0.7341 -0.7489  0.7395
   48MOL    C5235866   7.143   2.415   4.522  0.2759  0.1374  0.1108
   48MOL    C5335867   7.082   2.500   4.616  0.1370  0.0306 -0.0494
   48MOL    C5435868   7.151   2.586   4.704 -0.1268  0.0358  0.1053
   48MOL    C5535869   7.073   2.663   4.807  0.4200  0.2409  0.0265
   48MOL    O5635870   7.122   2.748   4.886 -0.5914  0.5755 -0.2763
   48MOL    O5735871   6.947   2.631   4.809 -0.2298 -0.1837  0.2203
   48MOL    C5835872   7.288   2.610   4.678  0.0275 -0.2278 -0.1813
   48MOL    C5935873   7.354   2.541   4.570  0.5916  0.7288  0.1229
   48MOL    H6035874   7.713   2.399   4.527 -0.7184 -1.5475  0.6469
   48MOL    H6135875   7.760   2.233   4.494 -3.2278 -0.0934 -0.2683
   48MOL    H6235876   7.967   2.308   4.398 -2.5873 -2.2790 -0.1786
   48MOL    H6335877   7.951   2.388   4.562  1.3895 -0.4121 -0.6139
   48MOL    H6435878   7.874   2.579   4.475 -2.5638 -0.9480 -0.5860
   48MOL    H6535879   0.054   2.658   4.351 -0.4999 -0.2955  1.0064
   48MOL    H6635880   0.080   2.489   4.297  1.4053  0.4985 -0.5093
   48MOL    H6735881   7.904   2.483   4.190 -0.6829  3.0877 -2.1842
   48MOL    H6835882   7.864   2.646   4.248 -2.6595 -0.3508 -0.3294
   48MOL    H6935883   7.651   2.548   4.348 -1.6597 -1.1365 -0.9405
   48MOL    H7035884   7.664   2.506   4.177  0.7314  2.2365 -0.9152
   48MOL    H7135885   7.759   2.298   4.236 -0.5207  0.4982 -1.7125
   48MOL    H7235886   7.565   2.178   4.346 -2.2462  0.4795  0.6781
   48MOL    H7335887   7.535   2.301   4.218 -1.8888 -1.5532  0.0099
   48MOL    H7435888   7.088   2.348   4.458 -2.6024  1.7352  0.8461
   48MOL    H7535889   6.975   2.493   4.623  0.0250  1.9572  0.4216
   48MOL    H7635890   7.339   2.684   4.738 -0.4847  1.1688 -1.4576
   48MOL    H7735891   7.457   2.569   4.557  0.9217 -0.6831 -0.3863
   48MOL    C7835892   6.544   2.501   4.811 -0.2957 -0.2981  0.6973
   48MOL    C7935893   6.674   2.552   4.881 -0.5207  0.7086  0.5140
   48MOL    C8035894   6.719   2.693   4.838  0.5588  0.4672 -0.0853
   48MOL    C8135895   6.861   2.715   4.888 -0.3914  0.5085  1.1397
   48MOL    C8235896   6.710   2.705   4.684 -0.2659 -0.7276 -0.3971
   48MOL    C8335897   6.575   2.675   4.627 -0.2988  0.9639 -0.1470
   48MOL    C8435898   6.539   2.528   4.657  0.4919 -0.3078  0.3423
   48MOL    C8535899   6.394   2.482   4.615  0.0899  0.5722 -0.1744
   48MOL    O8635900   6.399   2.419   4.483  0.1777  0.0993  0.0862
   48MOL    C8735901   6.429   2.285   4.466  0.3880  0.0706  0.7703
   48MOL    O8835902   6.472   2.218   4.557 -0.4799  0.0558 -0.2508
   48MOL    C8935903   6.424   2.242   4.319 -0.1933 -0.3950  0.4945
   48MOL    C9035904   6.380   2.325   4.214  0.1939  0.1869 -0.0260
   48MOL    C9135905   6.400   2.293   4.077  0.2559 -0.1591  1.0774
   48MOL    C9235906   6.464   2.169   4.045  0.1458  0.2400 -0.4316
   48MOL    C9335907   6.487   2.127   3.904  0.1707  0.9191 -0.2412
   48MOL    O9435908   6.402   2.159   3.821 -0.3229 -0.7958 -0.1475
   48MOL    O9535909   6.602   2.057   3.885  0.1807  0.2466 -0.2110
   48MOL    C9635910   6.510   2.078   4.153  0.2175 -0.2532 -0.6011
   48MOL    C9735911   6.483   2.119   4.290  0.3130  0.1350 -0.2407
   48MOL    H9835912   6.454   2.541   4.856 -0.0732  0.1924  0.7198
   48MOL    H9935913   6.532   2.395   4.833 -2.5871  0.0233  1.0441
   48MOL   H10035914   6.746   2.475   4.855  0.0419  1.3169  0.2596
   48MOL   H10135915   6.659   2.540   4.988 -1.5441  0.5351  0.3547
   48MOL   H10235916   6.649   2.757   4.892  0.5913  0.8545 -0.5017
   48MOL   H10335917   6.878   2.685   4.991 -1.7732 -0.9111  0.9676
   48MOL   H10435918   6.890   2.820   4.876 -1.6241  0.5030 -2.6122
   48MOL   H10535919   6.785   2.643   4.635 -0.3059 -0.7104 -0.4796
   48MOL   H10635920   6.748   2.803   4.655 -2.1168  0.4280  0.9821
   48MOL   H10735921   6.502   2.736   4.679  0.2136  1.2699  0.2106
   48MOL   H10835922   6.558   2.682   4.519 -0.2690 -0.2951 -0.2458
   48MOL   H10935923   6.612   2.460   4.612 -0.0897 -0.5758 -0.2051
   48MOL   H11035924   6.330   2.570   4.620  1.5607  1.8044 -2.4102
   48MOL   H11135925   6.354   2.410   4.687 -0.8656 -0.0753 -1.3334
   48MOL   H11235926   6.347   2.422   4.248 -0.6357  0.6951 -2.1807
   48MOL   H11335927   6.366   2.364   4.004 -2.0440  0.1981  2.4549
   48MOL   H11435928   6.566   1.987   4.139 -1.2793 -1.6593  2.0105
   48MOL   H11535929   6.504   2.057   4.376  2.2110  4.2351  2.4388
   48MOL   C11635930   6.642   1.738   3.497 -0.4407 -0.4194  0.1938
   48MOL   C11735931   6.668   1.875   3.563  0.0029  0.3288  0.0599
   48MOL   C11835932   6.639   1.883   3.714  0.0704 -1.0416 -0.4011
   48MOL   C11935933   6.647   2.037   3.746 -0.2913  0.0656 -0.1100
   48MOL   C12035934   6.500   1.826   3.743  0.6794  0.2692 -0.1618
   48MOL   C12135935   6.492   1.681   3.691 -0.2005  0.8595 -0.1459
   48MOL   C12235936   6.504   1.682   3.541  0.3183  0.4002  0.5225
   48MOL   C12335937   6.487   1.543   3.492  0.3092  0.6273  0.1256
   48MOL   O12435938   6.430   1.537   3.365 -0.1481  0.1248  0.0459
   48MOL   C12535939   6.491   1.478   3.258 -0.3080 -0.8372  0.4422
   48MOL   O12635940   6.588   1.406   3.267 -0.6053  0.2920  0.5600
   48MOL   C12735941   6.423   1.516   3.127  0.1330  0.5785  0.7209
   48MOL   C12835942   6.460   1.446   3.005  0.3245  0.3623 -0.4011
   48MOL   C12935943   6.406   1.489   2.886  0.9188 -0.0174  0.9200
   48MOL   C13035944   6.313   1.592   2.877 -0.1738 -1.0291 -0.4931
   48MOL   C13135945   6.268   1.649   2.750 -0.6786 -0.4829 -0.0899
   48MOL   O13235946   6.192   1.751   2.742 -0.4792  0.0460  0.8816
   48MOL   O13335947   6.301   1.582   2.642  0.1951 -0.1378  0.0722
   48MOL   C13435948   6.258   1.643   2.998 -0.2270  0.3744  0.1564
   48MOL   C13535949   6.318   1.606   3.122 -0.2140  0.1976  0.5684
   48MOL   H13635950   6.720   1.667   3.526  1.0473  1.0297 -0.1475
   48MOL   H13735951   6.634   1.753   3.389 -0.0648  2.1611  0.4979
   48MOL   H13835952   6.601   1.951   3.524 -1.4844 -0.1287  1.6622
   48MOL   H13935953   6.768   1.917   3.550 -0.4596  0.4363 -3.7539
   48MOL   H14035954   6.714   1.816   3.757  1.3935  0.1937 -0.7573
   48MOL   H14135955   6.606   2.109   3.675  0.2291 -0.7913 -1.3012
   48MOL   H14235956   6.754   2.058   3.753 -0.3683  0.0063  1.5034
   48MOL   H14335957   6.429   1.896   3.699 -0.3559  0.3426  1.5922
   48MOL   H14435958   6.477   1.833   3.849 -0.4420  0.1322 -0.3945
   48MOL   H14535959   6.570   1.620   3.737 -0.4298  0.0312 -0.8518
   48MOL   H14635960   6.405   1.631   3.734  0.2057  0.3624  0.1085
   48MOL   H14735961   6.436   1.757   3.502  0.7846 -0.2754 -1.6484
   48MOL   H14835962   6.417   1.492   3.558  0.9183  0.9100  0.9943
   48MOL   H14935963   6.583   1.492   3.496  0.1216  0.0017 -2.4719
   48MOL   H15035964   6.544   1.378   3.004  0.3996  0.4223  1.2002
   48MOL   H15135965   6.449   1.437   2.803  1.2845 -1.5757  2.0690
   48MOL   H15235966   6.188   1.724   2.982  0.4382  0.7149 -1.0556
   48MOL   H15335967   6.298   1.672   3.205  1.5994  1.7028 -0.1573
   48MOL   C15435968   6.517   1.587   2.199 -0.0900  0.1785  0.1952
   48MOL   C15535969   6.458   1.656   2.317  0.0647  0.6404 -0.3507
   48MOL   C15635970   6.380   1.564   2.413 -0.3123 -0.5741  0.6251
   48MOL   C15735971   6.296   1.648   2.516 -1.3502 -0.1446 -0.1140
   48MOL   C15835972   6.275   1.478   2.332 -0.1647  0.1902 -0.0824
   48MOL   C15935973   6.333   1.409   2.212 -0.0265  0.8633  0.0943
   48MOL   C16035974   6.407   1.509   2.120 -0.1451 -0.2792  0.5152
   48MOL   C16135975   6.452   1.441   1.995  0.4932  0.3734 -0.0073
   48MOL   O16235976   6.504   1.540   1.910  0.4919  0.1895 -0.1422
   48MOL   C16335977   6.535   1.518   1.778 -0.7035 -0.2610  0.0283
   48MOL   O16435978   6.507   1.417   1.713 -0.2227  0.3592  0.0936
   48MOL   C16535979   6.614   1.625   1.716  0.3791 -0.5751  0.1753
   48MOL   C16635980   6.625   1.619   1.573  0.0336  0.1254  0.0710
   48MOL   C16735981   6.705   1.713   1.509  0.0193 -0.5993  0.5817
   48MOL   C16835982   6.775   1.815   1.581 -0.1327  0.8596  0.0882
   48MOL   C16935983   6.877   1.896   1.521 -0.4515  0.0617 -0.2297
   48MOL   O17035984   6.931   1.993   1.571 -0.0377  0.3958 -0.2873
   48MOL   O17135985   6.895   1.857   1.393  0.8683  0.2281 -0.2515
   48MOL   C17235986   6.748   1.829   1.719 -0.2929 -0.5620 -0.2672
   48MOL   C17335987   6.674   1.734   1.790  0.5736 -0.2239 -0.0325
   48MOL   H17435988   6.587   1.511   2.233 -0.6622  0.4453  2.0261
   48MOL   H17535989   6.569   1.659   2.136  0.3908  1.4508  2.0025
   48MOL   H17635990   6.386   1.731   2.284 -0.0207 -0.0047 -1.6696
   48MOL   H17735991   6.531   1.712   2.375 -1.0965  0.3448  1.4283
   48MOL   H17835992   6.456   1.503   2.463  0.7064  0.0567 -0.1295
   48MOL   H17935993   6.193   1.654   2.484 -0.6811 -1.3557 -2.6076
   48MOL   H18035994   6.340   1.748   2.508 -0.4598 -0.6489 -1.8567
   48MOL   H18135995   6.189   1.533   2.295 -1.2697 -1.6354 -0.3066
   48MOL   H18235996   6.229   1.410   2.404  1.6887 -1.2241 -0.1913
   48MOL   H18335997   6.413   1.341   2.243 -1.0581 -0.5338 -0.2711
   48MOL   H18435998   6.259   1.349   2.161 -0.2682  1.6756 -0.5210
   48MOL   H18535999   6.331   1.574   2.076  2.0552  1.0720 -1.4061
   48MOL   H18636000   6.361   1.393   1.958  0.0373 -0.2108  1.8169
   48MOL   H18736001   6.521   1.362   2.026 -0.0511  0.4853  1.5233
   48MOL   H18836002   6.566   1.552   1.512  0.6034  1.8320 -2.4514
   48MOL   H18936003   6.704   1.715   1.401 -1.9968 -0.3777  0.5910
   48MOL   H19036004   6.809   1.900   1.773  0.7202  0.2262 -2.4322
   48MOL   H19136005   6.655   1.744   1.896 -0.7984 -2.0575 -0.0672
   48MOL   C19236006   6.845   1.803   0.981  0.2273  0.4986  0.0662
   48MOL   C19336007   6.908   1.813   1.122  0.3118  0.2037 -0.4277
   48MOL   C19436008   6.918   1.955   1.173  0.2687 -0.4824  0.1024
   48MOL   C19536009   6.986   1.941   1.317 -0.1707  0.6156  1.2796
   48MOL   C19636010   7.001   2.040   1.073  0.3486 -0.6921 -0.3102
   48MOL   C19736011   6.926   2.034   0.931  0.6144  0.3195  0.5909
   48MOL   C19836012   6.913   1.888   0.875 -0.1328 -0.0756 -0.6172
   48MOL   C19936013   6.847   1.889   0.736  0.0650  0.1678  0.0828
   48MOL   O20036014   6.929   1.972   0.655  0.5699 -0.1862 -0.5929
   48MOL   C20136015   6.992   1.920   0.553  0.1050  0.2793  0.1060
   48MOL   O20236016   6.971   1.804   0.512  0.1020 -0.1883 -0.2076
   48MOL   C20336017   7.077   2.021   0.494  0.0126  0.3519  0.0069
   48MOL   C20436018   7.151   1.985   0.376  0.1960  0.1702  0.3804
   48MOL   C20536019   7.225   2.087   0.307  0.2572 -0.2708 -0.0501
   48MOL   C20636020   7.226   2.219   0.355  0.0992  0.0651  1.1617
   48MOL   C20736021   7.309   2.319   0.290 -0.0198  0.3038 -0.2716
   48MOL   O20836022   7.392   2.308   0.200 -0.1031  0.2286 -0.4522
   48MOL   O20936023   7.296   2.440   0.354  0.3535 -0.1072  0.2473
   48MOL   C21036024   7.157   2.250   0.475  0.2110  0.5121  0.8138
   48MOL   C21136025   7.082   2.155   0.538 -0.1203  0.5281 -0.0897
   48MOL   H21236026   6.739   1.830   0.983 -0.1776 -0.6293 -3.2051
   48MOL   H21336027   6.846   1.701   0.943  0.1030  0.1595  0.9461
   48MOL   H21436028   7.012   1.781   1.131  0.1915  0.0788  0.6167
   48MOL   H21536029   6.864   1.746   1.195  0.5826  0.6283  0.1324
   48MOL   H21636030   6.822   2.001   1.195  1.6172  2.9537 -0.9872
   48MOL   H21736031   6.988   2.041   1.360 -2.8382  1.6586 -0.8389
   48MOL   H21836032   7.089   1.907   1.313  0.6041  2.9590 -0.6672
   48MOL   H21936033   7.103   2.000   1.072  0.7794  0.4008 -1.3942
   48MOL   H22036034   7.003   2.144   1.106 -0.8988  0.0261 -2.4615
   48MOL   H22136035   6.834   2.092   0.920 -0.1602 -1.2113 -1.1887
   48MOL   H22236036   6.986   2.090   0.859 -0.8098  0.9306 -0.1446
   48MOL   H22336037   7.013   1.845   0.869 -0.3701 -0.5025 -1.5879
   48MOL   H22436038   6.751   1.940   0.737 -0.4522 -0.7579 -0.9459
   48MOL   H22536039   6.831   1.785   0.705  0.5872  0.4075 -1.0061
   48MOL   H22636040   7.150   1.887   0.331  0.5300  0.0274  0.6838
   48MOL   H22736041   7.264   2.056   0.212 -2.1321  1.0348 -1.4905
   48MOL   H22836042   7.159   2.347   0.522  2.0897  0.7915  0.2031
   48MOL   H22936043   7.025   2.190   0.623 -0.7960 -2.2166  0.6155
   48MOL   C23036044   7.421   2.912   0.495 -0.3394  0.2509  0.6692
   48MOL   C23136045   7.446   2.790   0.395 -0.3441  0.1684 -0.7497
   48MOL   C23236046   7.343   2.678   0.415  0.4411 -0.5953  0.1313
   48MOL   C23336047   7.372   2.557   0.325 -0.2232 -0.4015  0.2796
   48MOL   C23436048   7.337   2.646   0.565  0.9049  0.4390 -0.3539
   48MOL   C23536049   7.292   2.767   0.651 -0.1361  0.6913 -0.1449
   48MOL   C23636050   7.402   2.879   0.643 -0.0826  0.4147  0.7139
   48MOL   C23736051   7.366   3.013   0.714  0.4363 -0.7045  0.4893
   48MOL   O23836052   7.486   3.097   0.713 -0.2577  0.6814 -0.3024
   48MOL   C23936053   7.479   3.219   0.748  0.0809  0.0387  0.5980
   48MOL   O24036054   7.398   3.258   0.835  0.2528 -1.2221 -0.2067
   48MOL   C24136055   7.578   3.301   0.681 -0.1955 -0.0996 -0.0075
   48MOL   C24236056   7.579   3.438   0.709 -1.0463  0.0746  0.4387
   48MOL   C24336057   7.681   3.521   0.659  0.0344  0.4560 -0.0185
   48MOL   C24436058   7.783   3.465   0.577  0.1689  0.6270 -0.6215
   48MOL   C24536059   7.875   3.560   0.512 -0.2962 -0.2775  0.9039
   48MOL   O24636060   7.901   3.549   0.391 -0.1039  0.6177 -0.0249
   48MOL   O24736061   7.927   3.637   0.607  0.0111  0.2893  0.1493
   48MOL   C24836062   7.774   3.326   0.548  0.1304 -0.0243  0.1456
   48MOL   C24936063   7.670   3.242   0.593  1.0167 -0.2961  0.5676
   48MOL   H25036064   7.339   2.974   0.459 -0.4557 -0.3490 -0.1176
   48MOL   H25136065   7.509   2.976   0.486 -0.0510 -0.5687 -2.8616
   48MOL   H25236066   7.546   2.747   0.398 -0.7227 -0.6630  0.4402
   48MOL   H25336067   7.445   2.829   0.293  1.5214  2.3336  0.0116
   48MOL   H25436068   7.246   2.722   0.392  1.5891  1.3415 -1.1687
   48MOL   H25536069   7.479   2.541   0.325  0.0581  1.4175 -0.6470
   48MOL   H25636070   7.352   2.596   0.225  0.1072 -0.5660  0.1510
   48MOL   H25736071   7.433   2.611   0.600  0.2453 -3.4440 -2.1944
   48MOL   H25836072   7.278   2.556   0.584 -0.1878  0.8701 -1.6055
   48MOL   H25936073   7.189   2.801   0.639  0.1682  2.3444  1.6261
   48MOL   H26036074   7.294   2.730   0.754  0.2294 -1.6181 -0.9490
   48MOL   H26136075   7.494   2.841   0.687  0.7626  1.5304 -0.0749
   48MOL   H26236076   7.350   2.993   0.820 -0.3102  0.4686  0.6104
   48MOL   H26336077   7.281   3.061   0.665 -0.3615 -1.6286  0.9538
   48MOL   H26436078   7.508   3.479   0.779 -2.1199  1.3023 -1.3441
   48MOL   H26536079   7.681   3.627   0.678 -1.3003  0.7887 -1.7708
   48MOL   H26636080   7.838   3.283   0.472  1.8148  2.2240  0.2545
   48MOL   H26736081   7.667   3.139   0.561 -0.4544 -0.1663  0.2814
   48MOL   C26836082   0.403   3.717   0.579  0.4872 -0.0506  0.5090
   48MOL   C26936083   0.256   3.765   0.528  0.1585 -0.0672  0.4046
   48MOL   C27036084   0.149   3.666   0.566 -0.2532  0.3556 -0.3988
   48MOL   C27136085   0.007   3.722   0.556  0.9006  0.5986 -0.0169
   48MOL   C27236086   0.173   3.529   0.511 -0.2705  0.2177  0.4383
   48MOL   C27336087   0.308   3.473   0.560 -0.2539  0.2106  0.0653
   48MOL   C27436088   0.429   3.567   0.544  0.9276 -0.5044  0.1570
   48MOL   C27536089   0.555   3.517   0.624 -0.2015  0.0874 -0.4813
   48MOL   O27636090   0.525   3.504   0.767  0.4303  0.0505  0.5506
   48MOL   C27736091   0.622   3.482   0.856  0.3389  0.2594 -0.5159
   48MOL   O27836092   0.736   3.510   0.833 -0.6355  0.5760  0.0602
   48MOL   C27936093   0.574   3.433   0.988 -0.0179  0.1598 -0.0022
   48MOL   C28036094   0.670   3.424   1.090  0.5905  0.1473 -0.6144
   48MOL   C28136095   0.629   3.369   1.216 -0.2238  0.4626  1.2142
   48MOL   C28236096   0.494   3.324   1.239 -0.2875  0.3139 -0.4583
   48MOL   C28336097   0.463   3.265   1.370  0.1956  0.0660  0.4497
   48MOL   O28436098   0.351   3.226   1.396  0.1176 -0.3409 -0.4609
   48MOL   O28536099   0.576   3.256   1.452  0.2150  0.2278 -0.2426
   48MOL   C28636100   0.400   3.324   1.133 -0.0724 -0.5795  0.0307
   48MOL   C28736101   0.444   3.373   1.006  0.1229 -0.3545  0.8044
   48MOL   H28836102   0.400   3.722   0.688 -2.6547 -0.6131  0.4865
   48MOL   H28936103   0.479   3.790   0.554  0.0989  0.2217  0.1186
   48MOL   H29036104   0.263   3.777   0.420  2.0671 -1.8604  0.2861
   48MOL   H29136105   0.237   3.867   0.561  0.5447 -0.8249  3.1008
   48MOL   H29236106   0.161   3.657   0.674  0.4017 -1.8595 -0.6225
   48MOL   H29336107   8.022   3.759   0.455 -1.9382  0.7188  0.4656
   48MOL   H29436108   0.006   3.812   0.616  4.0776  0.0151  1.0172
   48MOL   H29536109   0.144   3.529   0.406  0.5090  0.7736  0.2135
   48MOL   H29636110   0.104   3.462   0.563 -0.8131  0.7058  0.3543
   48MOL   H29736111   0.299   3.451   0.666 -0.1883 -1.0852 -0.1936
   48MOL   H29836112   0.326   3.371   0.526  1.4304  0.3498  0.5247
   48MOL   H29936113   0.461   3.567   0.439  0.0726 -2.7031 -0.1238
   48MOL   H30036114   0.632   3.593   0.617 -0.5841  0.4810 -0.4597
   48MOL   H30136115   0.591   3.420   0.591 -1.2776 -0.5228  0.0751
   48MOL   H30236116   0.768   3.467   1.075 -0.6491  3.0117 -0.9277
   48MOL   H30336117   0.697   3.359   1.299  0.3972 -0.3175  0.6241
   48MOL   H30436118   0.296   3.297   1.146 -0.8109  1.8966 -0.4660
   48MOL   H30536119   0.365   3.368   0.932  0.7294  2.7458 -0.1645
   48MOL   C30636120   0.960   3.205   1.634 -0.1616 -0.4964 -0.1488
   48MOL   C30736121   0.835   3.158   1.562 -0.2181 -0.7353  0.9381
   48MOL   C30836122   0.712   3.214   1.644 -0.5606 -0.2080  0.1340
   48MOL   C30936123   0.573   3.187   1.580 -0.1412  0.5593 -0.2916
   48MOL   C31036124   0.710   3.167   1.790  0.3597  0.6249 -0.6110
   48MOL   C31136125   0.833   3.224   1.852 -0.1941  0.8038  0.7635
   48MOL   C31236126   0.967   3.180   1.785 -0.2477 -0.1510  0.0952
   48MOL   C31336127   1.089   3.257   1.849 -0.0429  0.0651 -0.3219
   48MOL   O31436128   1.207   3.197   1.795 -0.0098  0.4127  0.5020
   48MOL   C31536129   1.285   3.264   1.704  0.6854  0.1354  0.7834
   48MOL   O31636130   1.270   3.382   1.677 -0.2972 -0.2254 -0.8460
   48MOL   C31736131   1.379   3.174   1.633 -0.0145  0.0887 -0.3072
   48MOL   C31836132   1.414   3.049   1.686  0.5669  1.0008  0.2479
   48MOL   C31936133   1.494   2.964   1.612 -0.1266  0.5624 -0.4752
   48MOL   C32036134   1.551   2.999   1.485  0.0647 -0.2095 -0.0722
   48MOL   C32136135   1.608   2.903   1.389  0.7057 -0.4645 -0.2742
   48MOL   O32236136   1.653   2.796   1.426 -0.0033 -0.3799  0.1454
   48MOL   O32336137   1.605   2.938   1.262  0.1370 -0.0301 -0.7976
   48MOL   C32436138   1.523   3.126   1.440  0.9193  0.4199 -0.4858
   48MOL   C32536139   1.436   3.213   1.508  0.6977  0.1468  0.2812
   48MOL   H32636140   0.953   3.313   1.619  0.8551 -0.6264 -1.5953
   48MOL   H32736141   1.051   3.165   1.590 -0.3869 -1.2836  0.1034
   48MOL   H32836142   0.837   3.050   1.572 -0.1301 -0.5426  3.4158
   48MOL   H32936143   0.826   3.183   1.456 -1.1738 -0.2051  1.1401
   48MOL   H33036144   0.720   3.323   1.642 -0.9617 -0.1784  0.0707
   48MOL   H33136145   0.488   3.228   1.635  0.0044 -0.2037  0.5042
   48MOL   H33236146   0.555   3.082   1.557  2.2483  0.4589 -1.9225
   48MOL   H33336147   0.700   3.059   1.792 -1.2999  0.7632 -1.2455
   48MOL   H33436148   0.621   3.196   1.845 -1.1242 -1.2732 -1.9700
   48MOL   H33536149   0.824   3.332   1.853  2.4808  1.0894 -0.9040
   48MOL   H33636150   0.828   3.201   1.959 -2.5731 -0.4879  0.4233
   48MOL   H33736151   0.985   3.073   1.796  1.0734 -0.6257 -5.4275
   48MOL   H33836152   1.090   3.225   1.954 -0.9432 -0.1005 -0.3522
   48MOL   H33936153   1.080   3.364   1.829  0.9869  0.0019 -1.1517
   48MOL   H34036154   1.394   3.013   1.786 -0.6883 -0.8234 -0.6519
   48MOL   H34136155   1.518   2.869   1.657  0.3449  0.6458 -0.5424
   48MOL   H34236156   1.557   3.168   1.346 -1.6463  0.7299 -1.3110
   48MOL   H34336157   1.407   3.307   1.463  2.6179  1.8297  2.4360
   48MOL   C34436158   1.326   3.031   0.956 -0.0983  0.3712  0.0190
   48MOL   C34536159   1.462   3.014   1.024 -0.4808 -0.1539  0.0070
   48MOL   C34636160   1.488   2.864   1.070  0.3773  0.2895  0.5708
   48MOL   C34736161   1.611   2.853   1.157  0.7367  0.2592  1.0719
   48MOL   C34836162   1.367   2.806   1.149  0.5640 -0.3142 -0.5939
   48MOL   C34936163   1.237   2.837   1.082  0.4535 -0.5263 -0.3229
   48MOL   C35036164   1.214   2.986   1.048 -0.4022 -0.4086  0.5368
   48MOL   C35136165   1.083   2.989   0.967 -0.0798  0.3128  0.0578
   48MOL   O35236166   0.960   2.942   1.024  0.3515 -0.5382  0.5791
   48MOL   C35336167   0.901   2.997   1.128 -0.4741 -0.8912 -0.0919
   48MOL   O35436168   0.936   3.099   1.193 -0.3299  0.1909  0.3981
   48MOL   C35536169   0.783   2.918   1.155 -0.5806  0.2778  0.2603
   48MOL   C35636170   0.694   2.972   1.246 -0.2269  1.5082  0.4906
   48MOL   C35736171   0.586   2.900   1.291  0.1835 -0.3008 -0.6789
   48MOL   C35836172   0.559   2.770   1.243  0.6885  0.0068 -0.0885
   48MOL   C35936173   0.439   2.692   1.284  0.4950  0.1221  0.0142
   48MOL   O36036174   0.421   2.570   1.259 -0.0437 -0.7346  0.0312
   48MOL   O36136175   0.347   2.770   1.347  0.5385 -0.7360 -0.0724
   48MOL   C36236176   0.655   2.712   1.165 -0.0297  0.7511  0.1693
   48MOL   C36336177   0.761   2.784   1.117 -0.4211  0.2810  0.2953
   48MOL   H36436178   1.327   2.961   0.872 -1.1377 -1.4870  1.4937
   48MOL   H36536179   1.303   3.131   0.919  1.3107  0.8125  0.3080
   48MOL   H36636180   1.455   3.080   1.110 -0.4822 -1.2038  0.8235
   48MOL   H36736181   1.538   3.050   0.955  0.0829 -1.8707 -0.2974
   48MOL   H36836182   1.494   2.810   0.976 -4.3022  0.3179  0.1091
   48MOL   H36936183   1.703   2.871   1.101 -0.8558 -0.6579 -1.9286
   48MOL   H37036184   1.619   2.748   1.182  0.6287 -0.2864 -1.0913
   48MOL   H37136185   1.368   2.840   1.253 -0.1705 -0.0331 -0.6765
   48MOL   H37236186   1.385   2.699   1.135  1.1555 -0.3154  0.1395
   48MOL   H37336187   1.242   2.772   0.995  0.8120 -0.7325 -0.1455
   48MOL   H37436188   1.147   2.809   1.138  1.5856  0.4348  2.0324
   48MOL   H37536189   1.213   3.052   1.134  0.1658 -0.0325  0.2533
   48MOL   H37636190   1.107   2.930   0.878  3.4020 -3.2028  3.1081
   48MOL   H37736191   1.055   3.086   0.927  0.7779  1.0872  1.3264
   48MOL   H37836192   0.706   3.075   1.278  0.7472  0.7240  2.7504
   48MOL   H37936193   0.520   2.943   1.364 -0.5276  0.1758 -1.5940
   48MOL   H38036194   0.629   2.611   1.136 -0.1157  0.8789 -0.2059
   48MOL   H38136195   0.836   2.733   1.058 -0.1521  0.5763  0.3806
   48MOL   C38236196   8.031   2.957   1.110  0.5003 -0.5201  0.1534
   48MOL   C38336197   0.090   2.917   1.235  0.3791 -0.7946  0.3760
   48MOL   C38436198   0.111   2.762   1.253  0.2686  0.0473 -0.0146
   48MOL   C38536199   0.210   2.721   1.372 -0.0177 -0.4211  0.1321
   48MOL   C38636200   8.008   2.693   1.252  0.2660 -0.2851  0.6430
   48MOL   C38736201   7.914   2.734   1.134  0.8325 -0.8116  0.2407
   48MOL   C38836202   7.891   2.883   1.124  0.1196  0.3535  0.2290
   48MOL   C38936203   7.806   2.923   1.003  0.0201 -0.0034  0.1657
   48MOL   O39036204   7.699   2.832   0.986  0.3605 -0.0157 -0.5154
   48MOL   C39136205   7.579   2.863   1.029 -0.1358  0.3529 -0.0172
   48MOL   O39236206   7.538   2.979   1.052  0.1616  0.3289 -0.2814
   48MOL   C39336207   7.487   2.752   1.021 -0.3152 -0.1916 -1.1551
   48MOL   C39436208   7.349   2.778   1.042 -0.4427 -0.1984  0.3654
   48MOL   C39536209   7.251   2.676   1.027 -0.0915 -0.6113  0.0559
   48MOL   C39636210   7.300   2.554   0.978 -0.3008  0.3990  0.0801
   48MOL   C39736211   7.200   2.451   0.925  0.1068 -0.0686 -0.0283
   48MOL   O39836212   7.233   2.342   0.877  0.3193  0.2697 -0.3487
   48MOL   O39936213   7.065   2.492   0.928 -0.1463 -0.3317  0.4805
   48MOL   C40036214   7.437   2.525   0.955 -0.3371 -0.4624  0.0688
   48MOL   C40136215   7.531   2.623   0.981  0.3478 -0.1862 -0.5581
   48MOL   H40236216   0.040   2.919   1.017  1.0905  0.5735 -0.0512
   48MOL   H40336217   8.028   3.066   1.099  0.1944 -0.4204  1.1744
   48MOL   H40436218   0.062   2.960   1.331  1.6179 -0.2286  0.4882
   48MOL   H40536219   0.186   2.966   1.220 -2.2576  3.9207 -2.2230
   48MOL   H40636220   0.152   2.724   1.159  0.6840  1.5736 -0.4824
   48MOL   H40736221   0.206   2.613   1.384 -0.6702 -0.4382 -0.1719
   48MOL   H40836222   0.169   2.767   1.462  0.8673  0.2787  0.1836
   48MOL   H40936223   7.973   2.707   1.355  0.6093  2.9537  0.3792
   48MOL   H41036224   8.027   2.586   1.257  0.3015 -0.4721 -2.5197
   48MOL   H41136225   7.958   2.687   1.045 -1.1491  0.2078 -1.3270
   48MOL   H41236226   7.819   2.679   1.137  1.9583 -3.4344 -5.5160
   48MOL   H41336227   7.837   2.906   1.216  1.0723 -0.6531  1.0624
   48MOL   H41436228   7.876   2.924   0.919  0.3947 -0.8736  0.4591
   48MOL   H41536229   7.765   3.022   1.023  0.6366  0.1562  0.6432
   48MOL   H41636230   7.313   2.872   1.083  0.5576 -0.6292  2.2610
   48MOL   H41736231   7.150   2.710   1.042 -1.5030 -4.9462  1.1702
   48MOL   H41836232   7.460   2.429   0.913 -0.6730  0.4969 -2.3644
   48MOL   H41936233   7.638   2.604   0.977  0.1372 -2.2543  2.0526
   48MOL   C42036234   6.656   2.579   1.022 -0.5563 -0.1672  0.3095
   48MOL   C42136235   6.785   2.502   1.020 -0.3228 -0.1364 -0.5296
   48MOL   C42236236   6.831   2.473   0.880 -0.3494  0.1344 -0.1218
   48MOL   C42336237   6.971   2.408   0.873  0.8774 -0.0553  0.6495
   48MOL   C42436238   6.724   2.399   0.800 -0.2299  0.4857 -0.7708
   48MOL   C42536239   6.585   2.456   0.818 -0.9268  0.5621 -0.1053
   48MOL   C42636240   6.548   2.485   0.962  0.4608 -0.3661  0.2040
   48MOL   C42736241   6.413   2.561   0.962 -0.2228  0.2684 -0.1585
   48MOL   O42836242   6.307   2.487   0.911  0.1819  0.5157  1.0042
   48MOL   C42936243   6.186   2.537   0.912  0.0009  0.3743 -0.8204
   48MOL   O43036244   6.156   2.641   0.970 -0.0767  0.0664  0.0351
   48MOL   C43136245   6.087   2.448   0.840  0.2318 -0.3930 -0.7266
   48MOL   C43236246   5.952   2.472   0.856  0.2440 -0.3485 -0.3306
   48MOL   C43336247   5.857   2.391   0.807 -0.2087 -0.2815  0.6936
   48MOL   C43436248   5.889   2.265   0.752  0.0501  0.0027  0.1788
   48MOL   C43536249   5.787   2.167   0.716  0.3528  0.5797  0.0476
   48MOL   O43636250   5.809   2.061   0.660 -0.0968 -0.0735 -0.1927
   48MOL   O43736251   5.665   2.209   0.755 -0.3646 -0.2303  0.5839
   48MOL   C43836252   6.025   2.239   0.733 -0.6493 -0.5200 -0.0268
   48MOL   C43936253   6.129   2.331   0.777  0.0097  0.6004  0.0763
   48MOL   H44036254   6.661   2.678   0.977  3.1041 -1.2899 -2.0402
   48MOL   H44136255   6.611   2.586   1.120 -0.0233 -1.5617  0.6711
   48MOL   H44236256   6.777   2.407   1.074  0.9970  0.3096  0.4808
   48MOL   H44336257   6.864   2.558   1.069  1.7592 -1.4741 -2.2704
   48MOL   H44436258   6.846   2.563   0.820  0.7583  0.0516  0.0295
   48MOL   H44536259   6.980   2.399   0.764  0.0208  2.9294  0.2967
   48MOL   H44636260   6.968   2.312   0.926 -0.2396  0.4054  1.4164
   48MOL   H44736261   6.719   2.296   0.834  1.5092  0.8165  0.5545
   48MOL   H44836262   6.744   2.393   0.693 -0.3765 -0.7520 -0.7350
   48MOL   H44936263   6.580   2.545   0.756  0.9443  0.5175 -0.3447
   48MOL   H45036264   6.505   2.395   0.777 -1.5207  2.6806 -2.1911
   48MOL   H45136265   6.542   2.393   1.020  1.1287  0.7825  2.1414
   48MOL   H45236266   6.415   2.657   0.911  0.8499 -0.3132 -1.2467
   48MOL   H45336267   6.395   2.591   1.065 -1.1485  2.6335 -0.9789
   48MOL   H45436268   5.920   2.564   0.903  0.7145  0.7946 -2.1599
   48MOL   H45536269   5.753   2.420   0.815  0.1463  0.7451  1.6885
   48MOL   H45636270   6.051   2.147   0.684 -1.3260 -0.0188 -1.3767
   48MOL   H45736271   6.232   2.309   0.754 -0.7620 -0.7056 -2.2715
   48MOL   C45836272   5.410   2.221   0.367  0.1907 -0.3950  0.3936
   48MOL   C45936273   5.514   2.196   0.478  0.7119  0.4866  0.2784
   48MOL   C46036274   5.443   2.163   0.610  0.7631 -0.0932  0.4969
   48MOL   C46136275   5.551   2.127   0.728  0.3789  0.7324  0.4508
   48MOL   C46236276   5.354   2.283   0.648 -0.2669  0.3271 -0.7066
   48MOL   C46336277   5.246   2.307   0.540  0.9415  0.1347  0.5703
   48MOL   C46436278   5.312   2.340   0.400 -0.3047 -0.0130 -0.5416
   48MOL   C46536279   5.215   2.372   0.278 -0.6752  0.8257 -0.2230
   48MOL   O46636280   5.304   2.404   0.174 -0.3200  0.6763 -0.4670
   48MOL   C46736281   5.255   2.452   0.064  0.2770  0.0393  0.2443
   48MOL   O46836282   5.134   2.460   0.036  0.0419  0.0191  0.7232
   48MOL   C46936283   5.355   2.518   8.006  0.0944  0.2696 -0.2103
   48MOL   C47036284   5.492   2.535   0.014  0.2768 -0.3910 -0.4281
   48MOL   C47136285   5.590   2.600   7.965  0.2108  0.5066 -0.1274
   48MOL   C47236286   5.554   2.649   7.836 -0.1359 -0.7627  0.0292
   48MOL   C47336287   5.650   2.734   7.756  0.2638  0.4192 -0.0780
   48MOL   O47436288   5.749   2.796   7.803  0.2840  0.2768 -0.4280
   48MOL   O47536289   5.621   2.730   7.628 -0.1907 -0.2496  0.1747
   48MOL   C47636290   5.424   2.624   7.793  0.2560  0.0283  0.8538
   48MOL   C47736291   5.327   2.557   7.871 -0.1757 -1.1810 -0.7854
   48MOL   H47836292   5.351   2.130   0.377 -0.6365  0.2315  1.3252
   48MOL   H47936293   5.450   2.230   0.266 -1.8844  1.7541 -0.2722
   48MOL   H48036294   5.579   2.283   0.480 -0.9259  1.7323  0.2330
   48MOL   H48136295   5.574   2.113   0.439 -0.6539 -0.0576 -0.7068
   48MOL   H48236296   5.379   2.075   0.604 -0.8796  0.9187  2.6996
   48MOL   H48336297   5.578   2.022   0.720 -1.5647  0.1848  0.9570
   48MOL   H48436298   5.493   2.131   0.820  1.2498 -2.5694  1.2013
   48MOL   H48536299   5.412   2.375   0.649 -1.6576  1.2060 -0.0074
   48MOL   H48636300   5.314   2.271   0.749  3.4699  1.3191  0.9920
   48MOL   H48736301   5.179   2.222   0.527  2.0462 -0.8308  1.0959
   48MOL   H48836302   5.189   2.393   0.576  0.0667 -0.5697  0.9105
   48MOL   H48936303   5.372   2.429   0.421 -0.7480  0.7167 -2.2852
   48MOL   H49036304   5.140   2.447   0.302 -0.5439  1.1878 -0.9362
   48MOL   H49136305   5.173   2.274   0.254  1.8758 -0.5611  0.7238
   48MOL   H49236306   5.525   2.508   0.114 -3.7779 -2.6529  0.3942
   48MOL   H49336307   5.692   2.614   7.998 -0.1100 -0.9702  1.5729
   48MOL   H49436308   5.388   2.652   7.695 -0.7991 -0.7247  1.0252
   48MOL   H49536309   5.225   2.550   7.837 -0.4523  2.0974 -0.7891
   48MOL   C49636310   5.865   2.985   7.250  0.1825 -0.1690  0.1629
   48MOL   C49736311   5.840   2.864   7.343  0.4899  0.7901  0.4369
   48MOL   C49836312   5.732   2.880   7.457 -0.2517 -0.9210  0.6828
   48MOL   C49936313   5.724   2.740   7.527 -0.6952  0.5623  0.0515
   48MOL   C50036314   5.780   2.999   7.549 -0.2985 -0.0354  0.4404
   48MOL   C50136315   5.827   3.125   7.463  0.3864 -0.5060 -0.1982
   48MOL   C50236316   5.914   3.103   7.341 -0.1364 -0.2399 -0.3100
   48MOL   C50336317   5.943   3.227   7.259 -0.9450  0.1844 -0.4008
   48MOL   O50436318   5.982   3.338   7.341 -0.7840 -0.3649 -0.1322
   48MOL   C50536319   6.120   3.370   7.344  0.6337 -0.5604  0.6098
   48MOL   O50636320   6.197   3.301   7.279  0.1643 -0.3057 -0.4816
   48MOL   C50736321   6.151   3.496   7.412  0.7546 -0.4153  0.4730
   48MOL   C50836322   6.286   3.554   7.392 -0.2056  0.1904 -0.0197
   48MOL   C50936323   6.326   3.674   7.453 -0.1505  0.6326 -0.1163
   48MOL   C51036324   6.231   3.746   7.534  0.2535 -0.2342 -1.1292
   48MOL   C51136325   6.261   3.887   7.587  0.3784  0.1355 -0.1603
   48MOL   O51236326   6.358   3.954   7.551 -0.1448 -0.5743  0.2353
   48MOL   O51336327   6.167   3.933   7.673  0.0957 -0.2008 -0.1166
   48MOL   C51436328   6.102   3.695   7.547 -0.6937 -0.4439 -0.0526
   48MOL   C51536329   6.063   3.570   7.494 -0.2233  0.7449  0.5027
   48MOL   H51636330   5.772   3.007   7.197  0.6102 -1.0755 -0.9947
   48MOL   H51736331   5.939   2.963   7.173  0.3112 -0.5199  0.3869
   48MOL   H51836332   5.940   2.827   7.364  1.2511  1.3723 -2.0861
   48MOL   H51936333   5.805   2.785   7.276  1.5528 -0.1334  0.9552
   48MOL   H52036334   5.635   2.907   7.417  0.3751  0.1812 -0.1253
   48MOL   H52136335   5.820   2.723   7.577 -1.3889 -2.5409  0.4041
   48MOL   H52236336   5.721   2.657   7.457  0.0936  2.6780 -2.5614
   48MOL   H52336337   5.867   2.960   7.603 -1.4326 -3.7675 -0.2503
   48MOL   H52436338   5.695   3.026   7.612 -0.0226 -0.5105  1.0208
   48MOL   H52536339   5.730   3.159   7.427  0.0290  0.2097  1.4127
   48MOL   H52636340   5.867   3.212   7.514  2.2144 -0.3843 -1.7790
   48MOL   H52736341   6.010   3.077   7.387  0.2949  0.4044 -0.8438
   48MOL   H52836342   5.853   3.274   7.218 -1.1750 -0.0377 -0.1540
   48MOL   H52936343   6.014   3.211   7.178  0.4684 -0.0746  0.8594
   48MOL   H53036344   6.360   3.503   7.331  0.6835  0.2331  1.0058
   48MOL   H53136345   6.429   3.699   7.434  1.0624 -3.9018 -0.0254
   48MOL   H53236346   6.034   3.754   7.607  2.3834  2.1221  1.0268
   48MOL   H53336347   5.964   3.526   7.500 -0.2751  0.3593 -2.5871
   48MOL   C53436348   5.874   4.143   7.951  0.0912  0.7026  0.3784
   48MOL   C53536349   5.953   4.118   7.822 -0.2321  0.3736 -0.3458
   48MOL   C53636350   6.101   4.079   7.855 -0.2374  0.2819  0.1111
   48MOL   C53736351   6.181   4.065   7.726  0.2131  0.3265  0.1480
   48MOL   C53836352   6.164   4.189   7.943 -0.2285 -0.4176 -0.1244
   48MOL   C53936353   6.086   4.214   0.036  0.1661  0.1079  0.4805
   48MOL   C54036354   5.936   4.260   8.029 -0.3113  0.5596 -0.8283
   48MOL   C54136355   5.860   4.308   0.121 -0.4740 -0.6592 -0.3968
   48MOL   O54236356   5.812   4.204   0.202  0.4075 -0.4117  0.0860
   48MOL   C54336357   5.860   4.169   0.325 -0.2341  0.0305  0.4643
   48MOL   O54436358   5.964   4.210   0.374  0.1433  0.4565 -0.0457
   48MOL   C54536359   5.780   4.067   0.403 -0.8375  0.3729  0.7240
   48MOL   C54636360   5.667   4.005   0.340  0.2868  0.0721  0.0518
   48MOL   C54736361   5.591   3.911   0.406  0.6097  0.6784  0.1970
   48MOL   C54836362   5.618   3.876   0.544 -0.0244  0.4178 -0.9316
   48MOL   C54936363   5.547   3.778   0.622 -0.1203 -0.6379 -0.5471
   48MOL   O55036364   5.579   3.735   0.735 -0.1912 -0.7259  0.2029
   48MOL   O55136365   5.441   3.735   0.550  0.6667  0.6692 -0.0256
   48MOL   C55236366   5.734   3.930   0.601 -0.5628 -0.5068 -0.2168
   48MOL   C55336367   5.808   4.032   0.535 -0.5037  0.7390  0.5067
   48MOL   H55436368   5.860   4.046   7.998  0.8079  0.0885 -0.6526
   48MOL   H55536369   5.767   4.153   7.932  0.4009 -0.9760 -2.4407
   48MOL   H55636370   5.944   4.202   7.753  0.4910  1.2079  0.5533
   48MOL   H55736371   5.920   4.031   7.765  0.1061  0.8799 -1.3139
   48MOL   H55836372   6.107   3.986   7.912 -1.9414 -0.4897 -0.9516
   48MOL   H55936373   6.288   4.081   7.737  0.7843 -0.7549 -3.2131
   48MOL   H56036374   6.139   4.144   7.664  1.1663  1.3999  0.8482
   48MOL   H56136375   6.182   4.284   7.891 -0.1704  1.0647  2.5487
   48MOL   H56236376   6.262   4.150   7.970  0.8348  1.3507 -1.2489
   48MOL   H56336377   6.093   4.119   0.090  2.2254 -0.0957 -0.1045
   48MOL   H56436378   6.142   4.292   0.089  1.9301  0.5445 -1.9455
   48MOL   H56536379   5.946   4.347   7.966 -0.4162  0.5202 -0.9012
   48MOL   H56636380   5.789   4.383   0.087  0.1111 -0.9661 -2.3332
   48MOL   H56736381   5.925   4.364   0.189 -1.0616 -1.5718  0.9398
   48MOL   H56836382   5.641   4.022   0.236 -0.5443 -0.3534  0.1877
   48MOL   H56936383   5.509   3.860   0.356  0.4690  2.3000 -1.2441
   48MOL   H57036384   5.760   3.908   0.704 -1.0268  2.1327  0.5220
   48MOL   H57136385   5.896   4.078   0.577  0.0972  0.9769 -0.9765
   48MOL   C57236386   5.177   3.560   0.247 -0.4210  0.6944 -0.4844
   48MOL   C57336387   5.292   3.550   0.355  0.5270 -0.2888  0.5868
   48MOL   C57436388   5.249   3.615   0.491  0.3042 -0.4733 -0.5365
   48MOL   C57536389   5.364   3.623   0.597  0.4112 -0.4373  0.1609
   48MOL   C57636390   5.170   3.745   0.476  0.1624  0.1200 -0.3323
   48MOL   C57736391   5.061   3.737   0.371 -0.3655 -0.1736 -0.1636
   48MOL   C57836392   5.119   3.700   0.229  0.3217 -0.1610 -0.2902
   48MOL   C57936393   5.024   3.722   0.107 -0.2510  0.3331  0.2514
   48MOL   O58036394   5.089   3.804   0.014  0.2801 -0.5915  0.9691
   48MOL   C58136395   5.168   3.748   7.956 -0.2122 -0.2274  0.1976
   48MOL   O58236396   5.188   3.626   7.942  0.7649  1.5039 -0.0531
   48MOL   C58336397   5.234   3.856   7.872  0.1167 -0.0018 -1.0016
   48MOL   C58436398   5.313   3.815   7.754  0.1924  0.2690  0.6527
   48MOL   C58536399   5.383   3.910   7.677  0.8101 -0.1228  0.0873
   48MOL   C58636400   5.382   4.048   7.713 -0.3256  0.1539 -0.1673
   48MOL   C58736401   5.453   4.146   7.633 -0.5969 -0.5146  0.6711
   48MOL   O58836402   5.470   4.268   7.659  0.3368 -0.1861 -0.0130
   48MOL   O58936403   5.507   4.093   7.519  0.5047  0.5561  0.1706
   48MOL   C59036404   5.300   4.092   7.820  0.3554  0.4048  0.0316
   48MOL   C59136405   5.231   3.993   7.900 -0.3489 -0.1164  0.0169
   48MOL   H59236406   5.104   3.483   0.270 -0.7193  1.7143  2.1740
   48MOL   H59336407   5.228   3.530   0.155 -2.5244 -0.6729 -1.2430
   48MOL   H59436408   5.374   3.611   0.320  0.1597  0.2511  0.6711
   48MOL   H59536409   5.322   3.449   0.385 -0.3382 -0.4920  0.7853
   48MOL   H59636410   5.188   3.536   0.537  2.4976 -1.2667  1.1079
   48MOL   H59736411   5.428   3.538   0.620  3.0864  1.6589  0.6906
   48MOL   H59836412   5.310   3.643   0.689 -0.4975  1.6207 -0.7754
   48MOL   H59936413   5.241   3.820   0.442  1.3560 -1.0909 -0.5463
   48MOL   H60036414   5.139   3.774   0.577 -0.3435 -0.3629 -0.3413
   48MOL   H60136415   5.008   3.647   0.404  1.2631  0.0403  3.2469
   48MOL   H60236416   4.995   3.823   0.375 -0.4439 -0.2816  1.5056
   48MOL   H60336417   5.200   3.771   0.215 -0.5557  0.8530 -0.2525
   48MOL   H60436418   4.933   3.778   0.132 -0.0131  1.1014 -0.5868
   48MOL   H60536419   4.988   3.633   0.055  0.0541 -0.7819  1.8813
   48MOL   H60636420   5.306   3.711   7.728  0.2844  0.4117  0.0487
   48MOL   H60736421   5.455   3.869   7.607  1.0334 -0.4623  0.5124
   48MOL   H60836422   5.295   4.198   7.843  1.2497  0.3020  0.7223
   48MOL   H60936423   5.176   4.019   7.989 -0.3815 -0.8655  0.2189
   48MOL   C61036424   5.923   3.986   7.389  0.3152  0.6862 -0.0805
   48MOL   C61136425   5.820   4.076   7.463 -0.8179  0.9688 -0.3045
   48MOL   C61236426   5.692   4.093   7.377 -0.4221  0.4586 -0.2656
   48MOL   C61336427   5.589   4.182   7.437  0.4690 -0.7520  0.4216
   48MOL   C61436428   5.735   4.148   7.235 -0.0288  0.4467  0.7502
   48MOL   C61536429   5.835   4.053   7.164  1.1975  0.3977 -0.5118
   48MOL   C61636430   5.961   4.033   7.245  0.4755 -0.6723  0.7458
   48MOL   C61736431   6.054   3.938   7.169 -0.2216  0.3713 -0.1225
   48MOL   O61836432   6.189   3.975   7.196 -0.6091  0.1537  0.0578
   48MOL   C61936433   6.250   4.066   7.123  1.1727  0.1301  0.5597
   48MOL   O62036434   6.199   4.140   7.038  0.4652  0.8263  0.6204
   48MOL   C62136435   6.397   4.062   7.134 -0.3138 -0.2253  0.3560
   48MOL   C62236436   6.476   4.162   7.065  0.4196  0.3899 -0.3918
   48MOL   C62336437   6.610   4.169   7.086 -0.7389  0.2710 -0.3667
   48MOL   C62436438   6.683   4.069   7.160 -0.3679  0.3285  0.4592
   48MOL   C62536439   6.828   4.090   7.181  0.4382 -0.0413  0.6578
   48MOL   O62636440   6.886   4.175   7.113  0.2480  0.2138  0.6204
   48MOL   O62736441   6.884   4.011   7.278  1.1232 -0.2344 -0.2097
   48MOL   C62836442   6.608   3.966   7.218  0.1326  0.0374  0.2920
   48MOL   C62936443   6.469   3.963   7.204 -0.6072  0.5593  0.2729
   48MOL   H63036444   5.887   3.883   7.389 -0.1661  0.8550 -1.0509
   48MOL   H63136445   6.018   3.976   7.442  1.0582  0.5850 -1.4243
   48MOL   H63236446   5.866   4.171   7.490  0.8330 -0.2661  1.4268
   48MOL   H63336447   5.804   4.035   7.563 -0.1643  2.4437  0.4188
   48MOL   H63436448   5.652   3.992   7.365  0.3524  0.2296 -0.8885
   48MOL   H63536449   5.535   4.223   7.352  0.4759 -1.6046 -0.0051
   48MOL   H63636450   5.625   4.262   7.500  0.4509 -1.3098  1.1439
   48MOL   H63736451   5.793   4.241   7.239  2.3192 -0.8691 -1.0332
   48MOL   H63836452   5.655   4.179   7.167  0.4612 -1.1130 -0.5641
   48MOL   H63936453   5.783   3.958   7.153 -0.5976  1.2875  0.1977
   48MOL   H64036454   5.857   4.095   7.066  1.4387  1.2896 -0.0836
   48MOL   H64136455   6.000   4.135   7.252 -2.1448  0.5302 -1.1872
   48MOL   H64236456   6.032   3.954   7.064 -1.4239  2.1475  0.3838
   48MOL   H64336457   6.038   3.833   7.195 -1.2515  0.4603 -0.3980
   48MOL   H64436458   6.429   4.242   7.010 -2.7420 -0.6607  0.6625
   48MOL   H64536459   6.668   4.246   7.037  1.1411 -1.0960 -0.3568
   48MOL   H64636460   6.660   3.900   7.285  0.1933  1.2749  1.4976
   48MOL   H64736461   6.425   3.882   7.260  1.7606 -0.1090  1.2415
   48MOL   C64836462   7.119   3.660   7.409  0.2537  0.2236  0.2439
   48MOL   C64936463   7.051   3.757   7.319 -0.4580 -0.1576  1.1182
   48MOL   C65036464   7.073   3.895   7.380 -0.1547 -0.4605 -0.6632
   48MOL   C65136465   7.025   4.009   7.288 -0.6903  0.0417  0.4150
   48MOL   C65236466   7.021   3.915   7.526 -0.0541 -0.3961 -0.3391
   48MOL   C65336467   7.090   3.808   7.607  0.2123  0.6805 -0.9600
   48MOL   C65436468   7.074   3.669   7.556  0.0754  0.4555  0.1441
   48MOL   C65536469   7.146   3.574   7.652 -0.2664 -0.2552  1.2054
   48MOL   O65636470   7.114   3.437   7.611 -0.1218 -0.1491  0.3736
   48MOL   C65736471   7.205   3.366   7.548 -0.3058  1.0758 -0.4112
   48MOL   O65836472   7.320   3.409   7.520 -0.2169  0.1157  0.5405
   48MOL   C65936473   7.150   3.229   7.504 -0.3682 -0.3925  1.1299
   48MOL   C66036474   7.233   3.115   7.496  0.3641  0.0840 -0.3911
   48MOL   C66136475   7.175   2.995   7.446  0.5113 -0.8351 -0.1750
   48MOL   C66236476   7.036   2.988   7.416 -0.9555  0.5147  0.7991
   48MOL   C66336477   6.978   2.850   7.396 -0.2173 -0.1812 -0.2802
   48MOL   O66436478   7.046   2.745   7.380 -0.7390 -0.4721  0.7402
   48MOL   O66536479   6.850   2.842   7.393 -0.3329 -0.2742 -0.3734
   48MOL   C66636480   6.953   3.102   7.434 -0.1855 -0.9322 -0.6110
   48MOL   C66736481   7.016   3.224   7.472  0.0951  0.2116 -0.0078
   48MOL   H66836482   7.227   3.659   7.399  0.0539  0.5322 -2.2864
   48MOL   H66936483   7.089   3.561   7.375  0.0170  0.8562 -1.4875
   48MOL   H67036484   6.944   3.735   7.326 -0.7881  1.4127  1.1527
   48MOL   H67136485   7.057   3.742   7.211  3.2200 -1.3925  1.4452
   48MOL   H67236486   7.181   3.902   7.395 -0.2313  1.4596 -0.9587
   48MOL   H67336487   7.065   3.984   7.190 -1.6029  4.3570 -1.1695
   48MOL   H67436488   7.065   4.109   7.309 -2.4277  1.1221 -1.3444
   48MOL   H67536489   6.913   3.904   7.523 -0.1644  1.0664 -2.3272
   48MOL   H67636490   7.047   4.016   7.555 -0.1058 -0.3388 -0.4899
   48MOL   H67736491   7.197   3.828   7.607  0.6982 -1.7258 -1.2562
   48MOL   H67836492   7.050   3.813   7.709  0.7941  1.1989 -0.7566
   48MOL   H67936493   6.969   3.643   7.563  0.1453  0.0865 -0.2145
   48MOL   H68036494   7.107   3.589   7.752 -0.1365 -0.3114  1.2644
   48MOL   H68136495   7.252   3.598   7.665  0.0810  0.0213 -1.7931
   48MOL   H68236496   7.338   3.110   7.519  0.1670  0.0606  0.5176
   48MOL   H68336497   7.241   2.911   7.427  0.0521 -0.7606 -2.1132
   48MOL   H68436498   6.846   3.089   7.423 -0.5797  0.6112  1.0838
   48MOL   H68536499   6.953   3.309   7.490 -0.1028 -0.4129  2.3549
   48MOL   C68636500   6.407   2.637   7.400 -0.1302  0.2987  0.4853
   48MOL   C68736501   6.549   2.633   7.354  0.1933  0.6234 -0.2609
   48MOL   C68836502   6.628   2.754   7.397  0.6529  0.4981  0.2155
   48MOL   C68936503   6.781   2.733   7.358 -0.1575  0.6043  0.0481
   48MOL   C69036504   6.561   2.887   7.356  0.5435 -0.7316 -0.0565
   48MOL   C69136505   6.418   2.896   7.403  0.4093  0.2591  0.3936
   48MOL   C69236506   6.331   2.770   7.364 -0.3871  0.2306 -0.0920
   48MOL   C69336507   6.195   2.775   7.427  0.0444 -0.4226  0.6505
   48MOL   O69436508   6.197   2.772   7.566  0.8377 -0.1743 -0.0163
   48MOL   C69536509   6.118   2.684   7.633 -0.0354 -0.2693  0.1730
   48MOL   O69636510   6.039   2.597   7.581  0.1230 -0.0135  0.6818
   48MOL   C69736511   6.148   2.694   7.778  0.4176 -0.0140  0.0613
   48MOL   C69836512   6.048   2.658   7.872 -0.2925 -0.1822  0.1677
   48MOL   C69936513   6.075   2.686   8.008  0.8537 -0.2698  0.5927
   48MOL   C70036514   6.205   2.736   0.020 -0.1891  0.5778  0.0654
   48MOL   C70136515   6.229   2.765   0.166 -0.1849  0.3970  0.5407
   48MOL   O70236516   6.168   2.724   0.255  0.5298 -0.4329 -0.6471
   48MOL   O70336517   6.305   2.865   0.178  0.2874 -0.7225 -0.3742
   48MOL   C70436518   6.299   2.773   7.956 -1.0868  0.3404  0.4754
   48MOL   C70536519   6.271   2.747   7.821 -0.6871  0.1659  0.3059
   48MOL   H70636520   6.400   2.620   7.507  0.0089 -0.6746  0.3432
   48MOL   H70736521   6.353   2.550   7.362 -2.8256  1.7169  0.9762
   48MOL   H70836522   6.549   2.637   7.245 -1.7336 -0.4587 -0.3256
   48MOL   H70936523   6.601   2.542   7.383  0.3239  1.2401  1.4910
   48MOL   H71036524   6.635   2.758   7.506  0.1214 -1.7550  0.3438
   48MOL   H71136525   6.790   2.712   7.252 -0.9201 -0.5950  0.2117
   48MOL   H71236526   6.824   2.653   7.418 -0.8013  1.4636  1.7020
   48MOL   H71336527   6.559   2.896   7.247  0.5664 -1.4566 -0.1211
   48MOL   H71436528   6.615   2.973   7.397  2.7303 -3.2511  2.5320
   48MOL   H71536529   6.415   2.926   7.507  0.1299  1.1735  0.1293
   48MOL   H71636530   6.373   2.988   7.366  0.1478  0.0906  0.2914
   48MOL   H71736531   6.313   2.755   7.258 -1.2963  0.6962 -0.0016
   48MOL   H71836532   6.136   2.690   7.392 -0.1357  0.4489 -1.2277
   48MOL   H71936533   6.145   2.858   7.379 -0.1291  0.0357  1.6146
   48MOL   H72036534   5.952   2.619   7.841 -0.4801  0.6468 -0.3021
   48MOL   H72136535   5.994   2.667   0.044  0.8734  2.1441  1.3376
   48MOL   H72236536   6.398   2.804   7.985  0.9130 -5.6265  0.7500
   48MOL   H72336537   6.347   2.768   7.747 -2.1255  0.0837 -1.2479
   48MOL   C72436538   6.211   3.291   0.291 -0.9261 -0.2024  0.0823
   48MOL   C72536539   6.220   3.144   0.304  0.9610  0.8280  0.3714
   48MOL   C72636540   6.355   3.078   0.288 -0.2880 -0.1261 -0.0083
   48MOL   C72736541   6.342   2.921   0.301  0.1734 -0.4353  0.0010
   48MOL   C72836542   6.428   3.129   0.167 -0.0088  0.7805 -0.0550
   48MOL   C72936543   6.431   3.276   0.160 -0.2363 -0.1234  0.6575
   48MOL   C73036544   6.286   3.336   0.161  0.9082  0.0239 -0.0880
   48MOL   C73136545   6.283   3.492   0.149 -0.2820 -0.3381  0.3712
   48MOL   O73236546   6.145   3.521   0.120 -0.0572  0.0820  0.0174
   48MOL   C73336547   6.116   3.562   0.002 -0.2451 -1.1093  0.2275
   48MOL   O73436548   6.194   3.553   7.934  0.3387  0.2145 -0.0698
   48MOL   C73536549   5.975   3.622   8.022 -0.0129  0.0071 -0.7094
   48MOL   C73636550   5.940   3.706   7.910 -0.3139  0.2406 -0.9052
   48MOL   C73736551   5.822   3.782   7.903  0.2342 -0.2319 -0.4918
   48MOL   C73836552   5.725   3.769   8.012  0.6844  0.2737  0.3920
   48MOL   C73936553   5.600   3.853   8.016  0.5691  0.1899  0.0195
   48MOL   O74036554   5.501   3.821   0.048  0.0410  0.5018  0.9146
   48MOL   O74136555   5.605   3.970   7.946  0.2957 -0.3946 -0.1261
   48MOL   C74236556   5.753   3.674   0.081 -0.1753 -0.3628  0.3773
   48MOL   C74336557   5.880   3.607   0.089 -0.6323 -0.0151 -0.4391
   48MOL   H74436558   6.262   3.347   0.369  1.9289 -1.2850 -0.9371
   48MOL   H74536559   6.109   3.331   0.286  0.0452  2.5335  1.7181
   48MOL   H74636560   6.149   3.092   0.240  1.1262  0.6853  0.3041
   48MOL   H74736561   6.191   3.127   0.408 -3.0548 -0.5416 -0.8769
   48MOL   H74836562   6.415   3.102   0.375 -1.3013  2.6804 -0.0383
   48MOL   H74936563   6.272   2.891   0.379 -0.2892 -1.7619 -0.8988
   48MOL   H75036564   6.439   2.882   0.333  0.3025  0.5947  0.9045
   48MOL   H75136565   6.381   3.093   0.077  0.0026 -0.1686  0.3168
   48MOL   H75236566   6.529   3.087   0.171  1.0584  3.2799  0.4276
   48MOL   H75336567   6.468   3.318   0.253 -0.1971  1.4274 -0.0524
   48MOL   H75436568   6.488   3.312   0.075 -0.1133  1.7068  1.5037
   48MOL   H75536569   6.222   3.302   0.079 -0.0746  3.2797 -0.7469
   48MOL   H75636570   6.353   3.527   0.072 -2.3341  2.2002 -0.4028
   48MOL   H75736571   6.317   3.544   0.238  2.4862 -3.0714  1.0021
   48MOL   H75836572   6.004   3.702   7.824  0.8631  2.9001 -0.1978
   48MOL   H75936573   5.812   3.859   7.827 -2.3409 -0.5146 -0.4920
   48MOL   H76036574   5.685   3.658   0.163  0.8020 -1.2607  1.0302
   48MOL   H76136575   5.893   3.533   0.166  2.4169  1.1219  0.2047
   48MOL   H76236576   5.530   4.023   7.967  0.8404  0.8191 -1.1983
   49MOL     C136577   2.483   4.271   1.332 -0.1517 -0.3733 -0.0239
   49MOL     C236578   2.353   4.307   1.402 -0.3701 -0.1293 -0.1441
   49MOL     C336579   2.252   4.358   1.301 -0.0096  0.7413 -0.1244
   49MOL     C436580   2.132   4.407   1.366 -0.2822  0.8453 -0.2607
   49MOL     C536581   2.308   4.466   1.206 -0.4231  0.3475 -0.1121
   49MOL     C636582   2.442   4.423   1.138  0.0225 -0.4012 -0.0129
   49MOL     C736583   2.542   4.386   1.254  0.3743 -0.0689 -0.3609
   49MOL     C836584   2.685   4.364   1.204 -0.7165 -0.1403 -0.0614
   49MOL     O936585   2.770   4.482   1.201 -0.4934  0.9061 -0.0194
   49MOL    C1036586   2.834   4.527   1.305  0.1748 -0.8340  0.6753
   49MOL    O1136587   2.806   4.491   1.422  0.5328 -0.4382  0.3724
   49MOL    C1236588   2.940   4.627   1.271  0.0853  0.5376  0.4021
   49MOL    C1336589   3.029   4.618   1.163 -0.8843  0.3832  0.0754
   49MOL    C1436590   3.119   4.726   1.132 -0.8323  0.1271 -0.5616
   49MOL    C1536591   3.121   4.834   1.218 -0.1744 -0.0476 -0.1428
   49MOL    C1636592   3.202   4.953   1.185  0.9212 -0.1729  0.8470
   49MOL    O1736593   3.295   4.950   1.101  0.1302  0.0283 -0.1463
   49MOL    O1836594   3.152   5.064   1.245  0.4912 -0.3617 -0.1875
   49MOL    C1936595   3.038   4.839   1.326  0.8236 -0.4713 -0.2334
   49MOL    C2036596   2.948   4.735   1.355 -0.1036 -0.6069  0.6305
   49MOL    H2136597   2.466   4.186   1.266 -2.1201  1.9733 -2.6444
   49MOL    H2236598   2.552   4.240   1.411  0.3483 -2.7395 -1.3550
   49MOL    H2336599   2.384   4.383   1.475 -1.0255  0.5964 -0.6130
   49MOL    H2436600   2.313   4.224   1.460  0.4925 -1.4686 -1.4277
   49MOL    H2536601   2.221   4.276   1.235  0.0684 -1.3449  2.3413
   49MOL    H2636602   2.076   4.328   1.415 -0.2451 -0.1893 -1.8534
   49MOL    H2736603   2.063   4.443   1.289 -2.0410 -0.6092  0.5998
   49MOL    H2836604   2.325   4.562   1.255 -0.0286  0.3795 -0.3087
   49MOL    H2936605   2.235   4.495   1.130  0.0248 -0.5604 -0.8903
   49MOL    H3036606   2.430   4.344   1.064 -1.1810 -0.6397  0.4310
   49MOL    H3136607   2.472   4.517   1.093 -0.1481  1.0045  2.6767
   49MOL    H3236608   2.546   4.475   1.316  1.7407  0.3371 -0.9979
   49MOL    H3336609   2.685   4.323   1.103 -0.9127 -0.5532  0.1029
   49MOL    H3436610   2.739   4.286   1.259 -2.0562 -1.6732 -0.8600
   49MOL    H3536611   3.018   4.530   1.102 -2.6101  1.6088 -1.4422
   49MOL    H3636612   3.189   4.719   1.050  0.0468 -4.6708  0.4821
   49MOL    H3736613   3.043   4.921   1.397  1.0112 -0.4033 -0.3234
   49MOL    H3836614   2.886   4.749   1.442 -0.1186  2.5745  0.1672
   49MOL    H3936615   2.169   4.484   1.433 -0.4433  0.0368  0.7608
   49MOL    C4036616   2.941   5.364   1.009  0.6123 -0.0973  0.1942
   49MOL    C4136617   3.015   5.300   1.128 -0.5176 -0.4290  0.7738
   49MOL    C4236618   3.164   5.276   1.124  0.3428  0.0487  0.6262
   49MOL    C4336619   3.215   5.187   1.240 -0.0350  0.7241  0.3300
   49MOL    C4436620   3.199   5.227   0.982 -0.0122 -0.1293  0.0537
   49MOL    C4536621   3.138   5.297   0.866  0.5878  0.4659  0.1580
   49MOL    C4636622   2.983   5.305   0.875 -0.4461 -0.4647 -0.8247
   49MOL    C4736623   2.923   5.396   0.757 -0.2472 -0.2667  0.7379
   49MOL    O4836624   2.964   5.352   0.630 -0.2619  0.0480  0.4875
   49MOL    C4936625   3.036   5.428   0.543  0.1127  0.1117  0.1100
   49MOL    O5036626   3.063   5.548   0.565  0.9512  0.3974  0.1638
   49MOL    C5136627   3.100   5.351   0.429  0.1868  0.1211  0.4910
   49MOL    C5236628   3.204   5.410   0.354 -0.6997  0.1992  0.3279
   49MOL    C5336629   3.281   5.339   0.260 -0.4270  0.9434  0.1218
   49MOL    C5436630   3.252   5.203   0.226  0.3865 -0.8850  0.2293
   49MOL    C5536631   3.353   5.122   0.145  0.0479  0.1033 -0.5918
   49MOL    O5636632   3.328   5.003   0.112 -0.6353 -0.1195 -0.3190
   49MOL    O5736633   3.467   5.189   0.110 -0.2711 -0.1394 -0.2061
   49MOL    C5836634   3.138   5.150   0.294 -0.0051 -0.1569  0.1858
   49MOL    C5936635   3.067   5.220   0.390  1.0610  0.5921 -1.2348
   49MOL    H6036636   2.969   5.470   1.005 -1.2305  0.4017 -0.0451
   49MOL    H6136637   2.832   5.361   1.014  0.4590  1.6306 -1.4893
   49MOL    H6236638   2.959   5.215   1.166 -2.0191 -0.1693 -0.8004
   49MOL    H6336639   2.995   5.374   1.207 -1.5247 -1.0346  1.0930
   49MOL    H6436640   3.215   5.372   1.134 -0.6764  0.5762  0.8431
   49MOL    H6536641   3.188   5.234   1.335 -0.7484 -1.2652  1.1381
   49MOL    H6636642   3.321   5.168   1.229 -0.3958  0.0823 -2.3824
   49MOL    H6736643   3.172   5.123   0.965  0.4728 -0.3469  0.6253
   49MOL    H6836644   3.305   5.213   0.961  0.4338  1.6188  0.9865
   49MOL    H6936645   3.190   5.389   0.839 -0.6131  0.8717 -0.8103
   49MOL    H7036646   3.168   5.235   0.781  2.5200 -0.4870  1.5104
   49MOL    H7136647   2.948   5.202   0.870  0.0341 -0.7414  0.9030
   49MOL    H7236648   2.949   5.499   0.777  1.0520 -0.2515 -0.9508
   49MOL    H7336649   2.814   5.388   0.759 -0.3709  0.9399 -0.5284
   49MOL    H7436650   3.228   5.511   0.383  1.2431  0.2699 -1.4442
   49MOL    H7536651   3.363   5.393   0.215  0.0756  1.1045  1.2243
   49MOL    H7636652   3.107   5.050   0.265 -1.6695  0.7441 -1.2569
   49MOL    H7736653   2.983   5.168   0.435  0.5142  1.9097 -0.7221
   49MOL    C7836654   3.405   5.337   7.733 -1.0224 -0.1753  0.3931
   49MOL    C7936655   3.413   5.263   7.867 -0.5839 -0.3156  0.4223
   49MOL    C8036656   3.554   5.218   7.916 -0.2480  0.5240  0.1890
   49MOL    C8136657   3.553   5.128   0.009  0.4097 -0.2042 -0.0365
   49MOL    C8236658   3.646   5.163   7.805  0.4592  0.0188  0.3278
   49MOL    C8336659   3.649   5.258   7.690  0.1069  0.4159  0.2902
   49MOL    C8436660   3.506   5.274   7.632 -0.0958  0.5269  0.0380
   49MOL    C8536661   3.524   5.357   7.497  0.4356 -0.1322 -0.2657
   49MOL    O8636662   3.400   5.399   7.445  0.0909  0.6381 -0.6249
   49MOL    C8736663   3.309   5.304   7.391 -0.4516  0.0991  0.6363
   49MOL    O8836664   3.334   5.185   7.379  0.3628  0.0961  0.2622
   49MOL    C8936665   3.183   5.360   7.337  0.1660  0.6116 -0.8827
   49MOL    C9036666   3.102   5.279   7.260 -0.1619 -0.6458 -0.5996
   49MOL    C9136667   2.984   5.331   7.205  0.1237 -0.5580  0.3937
   49MOL    C9236668   2.945   5.461   7.230 -0.3770 -0.4074 -0.9317
   49MOL    C9336669   2.814   5.521   7.182  0.5084  0.5866 -1.1853
   49MOL    O9436670   2.771   5.633   7.218 -1.0793  0.0966 -0.0390
   49MOL    O9536671   2.747   5.440   7.096 -0.3657  0.1695  0.1626
   49MOL    C9636672   3.026   5.543   7.317 -0.0256  0.0428  0.5985
   49MOL    C9736673   3.144   5.492   7.373 -0.7086  0.0843  0.2958
   49MOL    H9836674   3.440   5.441   7.737  0.0200 -0.5553  1.7070
   49MOL    H9936675   3.308   5.334   7.683 -1.2318 -1.0858  0.8447
   49MOL   H10036676   3.353   5.172   7.874  1.2159 -1.6995 -1.4722
   49MOL   H10136677   3.374   5.324   7.949 -0.8623 -1.1110  0.8954
   49MOL   H10236678   3.612   5.303   7.951  0.2028  0.2705  0.0689
   49MOL   H10336679   3.648   5.090   0.047  0.5215 -0.7953 -0.8977
   49MOL   H10436680   3.507   5.036   8.005 -0.9156 -0.0615  1.2131
   49MOL   H10536681   3.621   5.064   7.767 -0.2891  0.0005  0.8417
   49MOL   H10636682   3.745   5.151   7.848  0.5484 -1.6131 -0.3009
   49MOL   H10736683   3.688   5.358   7.711  0.1542  0.5026 -0.2189
   49MOL   H10836684   3.716   5.219   7.614 -0.4984 -1.9254  0.9097
   49MOL   H10936685   3.475   5.172   7.610 -0.6986  0.6492  0.3283
   49MOL   H11036686   3.571   5.305   7.413  0.6090 -2.5132  1.2560
   49MOL   H11136687   3.577   5.449   7.522 -1.3419  0.8240  0.0798
   49MOL   H11236688   3.130   5.177   7.239 -0.9328 -1.0853  0.4394
   49MOL   H11336689   2.923   5.268   7.142 -1.1266  0.1977  0.8128
   49MOL   H11436690   3.003   5.646   7.340 -1.2734 -0.1212  0.1283
   49MOL   H11536691   3.194   5.557   7.443 -1.2473 -0.0098  0.7639
   49MOL   C11636692   2.322   5.395   7.278 -0.5572 -0.2982 -0.6841
   49MOL   C11736693   2.459   5.452   7.238  0.2484 -0.1982  0.5133
   49MOL   C11836694   2.499   5.418   7.096  0.2465 -0.1849  0.8110
   49MOL   C11936695   2.626   5.487   7.033 -0.0717 -0.5816  0.5452
   49MOL   C12036696   2.495   5.273   7.066  0.4312  0.4831  0.6533
   49MOL   C12136697   2.352   5.215   7.106 -0.1339 -0.1547 -0.5413
   49MOL   C12236698   2.322   5.244   7.254  0.1221  0.8053 -0.5091
   49MOL   C12336699   2.178   5.188   7.292 -0.0220 -0.1975  0.1081
   49MOL   O12436700   2.148   5.217   7.426  0.1454 -0.5352  0.2273
   49MOL   C12536701   2.035   5.185   7.485  0.5640  0.2795 -0.2991
   49MOL   O12636702   1.942   5.134   7.419  0.3666 -0.1732  0.6106
   49MOL   C12736703   2.035   5.235   7.627  0.2580  0.8228 -0.8695
   49MOL   C12836704   2.150   5.293   7.685 -0.7776 -0.4481  0.0623
   49MOL   C12936705   2.151   5.343   7.813  0.2820 -0.2508  0.1926
   49MOL   C13036706   2.028   5.354   7.886  0.2430  0.6085 -1.0163
   49MOL   C13136707   2.021   5.417   8.027  0.4740 -0.3522  0.1423
   49MOL   O13236708   1.910   5.436   0.045  0.1713 -0.6629  0.0306
   49MOL   O13336709   2.143   5.444   0.055 -0.7123  0.5633  0.0507
   49MOL   C13436710   1.911   5.319   7.820 -0.3857  0.6395 -0.2017
   49MOL   C13536711   1.909   5.258   7.691 -0.2377  0.8041  0.2266
   49MOL   H13636712   2.250   5.431   7.205 -2.5692 -1.5099  0.6229
   49MOL   H13736713   2.301   5.419   7.382  0.4776 -1.1783 -0.2564
   49MOL   H13836714   2.536   5.410   7.302  0.0375 -2.2153 -0.5011
   49MOL   H13936715   2.452   5.561   7.237  0.5432 -0.1776 -0.8314
   49MOL   H14036716   2.410   5.459   7.048 -0.5656 -1.9275  0.8042
   49MOL   H14136717   2.619   5.596   7.040 -0.1079 -0.6469  1.5728
   49MOL   H14236718   2.626   5.484   6.924 -0.2604  2.1593  0.4348
   49MOL   H14336719   2.574   5.213   7.111  0.3411 -0.4022 -0.3519
   49MOL   H14436720   2.500   5.262   6.958 -0.0602 -0.0795  0.6826
   49MOL   H14536721   2.271   5.259   7.047  0.2748  0.1816 -0.8578
   49MOL   H14636722   2.343   5.108   7.091 -1.1671 -0.2784  0.9052
   49MOL   H14736723   2.394   5.193   7.319 -0.8515  0.7987  0.5673
   49MOL   H14836724   2.168   5.083   7.268  1.0288 -0.0792 -0.8632
   49MOL   H14936725   2.107   5.240   7.228  2.1860 -0.0268 -2.2555
   49MOL   H15036726   2.239   5.280   7.625  0.0040  0.0969  1.0758
   49MOL   H15136727   2.241   5.386   7.854 -0.9749  0.2678  2.5208
   49MOL   H15236728   1.818   5.333   7.874 -0.9860 -0.3902 -0.9347
   49MOL   H15336729   1.821   5.228   7.636  0.2255 -0.1745  0.0146
   49MOL   C15436730   2.467   5.342   0.361  0.0025  0.1957 -0.2094
   49MOL   C15536731   2.338   5.336   0.274 -0.5217  0.5549  0.6118
   49MOL   C15636732   2.286   5.475   0.250  0.0200  0.9706 -0.0408
   49MOL   C15736733   2.142   5.458   0.191 -0.8695  0.3886  0.6913
   49MOL   C15836734   2.274   5.544   0.389 -0.3216 -1.0197  0.2844
   49MOL   C15936735   2.398   5.540   0.477  0.7320  0.5135  0.2539
   49MOL   C16036736   2.440   5.399   0.498  0.1077  0.1978  0.0851
   49MOL   C16136737   2.577   5.397   0.569  0.2062  0.5397 -0.5512
   49MOL   O16236738   2.572   5.435   0.706  0.2703  0.1424  0.4023
   49MOL   C16336739   2.538   5.355   0.806 -0.3951 -0.3206 -0.3706
   49MOL   O16436740   2.507   5.238   0.792  0.6231 -0.3701 -0.6176
   49MOL   C16536741   2.559   5.413   0.944  0.0595 -0.0084  0.5225
   49MOL   C16636742   2.511   5.339   1.055 -0.3082 -0.4299 -0.7208
   49MOL   C16736743   2.521   5.399   1.186  0.2761 -0.5285  0.1518
   49MOL   C16836744   2.584   5.521   1.197  0.5453  0.2092  0.1106
   49MOL   C16936745   2.593   5.575   1.332  0.2077 -0.3301  0.3236
   49MOL   O17036746   2.530   5.538   1.431 -0.1450 -0.5587  0.0332
   49MOL   O17136747   2.675   5.674   1.337 -0.1991 -0.2031 -0.0786
   49MOL   C17236748   2.640   5.589   1.083  0.1718  0.2722 -0.4343
   49MOL   C17336749   2.619   5.539   0.955 -0.2907  0.2689 -0.1675
   49MOL   H17436750   2.549   5.393   0.310  0.8472  0.5344  1.4438
   49MOL   H17536751   2.496   5.238   0.379 -1.6179 -0.4425 -1.1909
   49MOL   H17636752   2.261   5.271   0.314 -1.2069  1.3520  0.5948
   49MOL   H17736753   2.364   5.289   0.179  0.4789 -0.2472  1.2829
   49MOL   H17836754   2.356   5.533   0.189 -0.1126  0.1439 -1.0015
   49MOL   H17936755   2.084   5.547   0.216  1.2669  2.4988 -1.4315
   49MOL   H18036756   2.088   5.375   0.236  0.4847 -0.6549  0.4424
   49MOL   H18136757   2.196   5.498   0.450  1.2434 -3.8002  0.2529
   49MOL   H18236758   2.252   5.649   0.373 -0.6926 -1.2314 -0.7035
   49MOL   H18336759   2.485   5.591   0.435  1.4086 -0.1570  0.8230
   49MOL   H18436760   2.374   5.598   0.566  1.9738  2.8078 -0.8632
   49MOL   H18536761   2.362   5.352   0.558  0.0575  0.3456  0.1357
   49MOL   H18636762   2.655   5.453   0.518  0.7426 -1.2072 -1.7096
   49MOL   H18736763   2.617   5.295   0.571  0.2104  0.5439 -0.3939
   49MOL   H18836764   2.469   5.241   1.035 -0.3381 -0.3640 -0.9874
   49MOL   H18936765   2.484   5.342   1.270 -0.6133  1.3769  1.0954
   49MOL   H19036766   2.685   5.686   1.100 -1.3110  0.6921  1.2297
   49MOL   H19136767   2.657   5.592   0.869  2.6520  1.0648  1.5343
   49MOL   C19236768   2.920   6.035   1.295 -0.5065 -0.2990  0.4308
   49MOL   C19336769   2.804   5.930   1.303 -0.1019  0.3458  0.4635
   49MOL   C19436770   2.805   5.852   1.437 -0.1642  0.2395  0.3729
   49MOL   C19536771   2.683   5.758   1.446 -0.0013 -0.6228  0.4229
   49MOL   C19636772   2.942   5.784   1.449 -0.0664  0.7436 -0.6165
   49MOL   C19736773   3.061   5.883   1.451  0.2762 -0.4147 -0.0433
   49MOL   C19836774   3.056   5.974   1.328 -0.4541  0.0071  0.2577
   49MOL   C19936775   3.160   6.075   1.347  0.7245  0.0034  0.7615
   49MOL   O20036776   3.222   6.103   1.220  0.6540 -0.0915 -0.2817
   49MOL   C20136777   3.309   6.204   1.206  0.7985  0.1827 -0.5292
   49MOL   O20236778   3.359   6.268   1.299 -0.5220  0.0303  0.1860
   49MOL   C20336779   3.349   6.222   1.063 -0.0456  0.2679 -0.6398
   49MOL   C20436780   3.395   6.349   1.021 -0.2249  0.0349  0.1019
   49MOL   C20536781   3.424   6.376   0.885  0.2103  0.0824 -0.2639
   49MOL   C20636782   3.410   6.266   0.794 -0.6213  0.0387 -0.2971
   49MOL   C20736783   3.437   6.295   0.649  0.0020 -0.1350  0.6061
   49MOL   O20836784   3.473   6.407   0.606 -0.6308  0.0190  0.1185
   49MOL   O20936785   3.413   6.187   0.571 -0.3275  0.1658  0.2776
   49MOL   C21036786   3.363   6.137   0.829  0.5744  0.1970 -0.2709
   49MOL   C21136787   3.331   6.121   0.963  0.2526 -1.0261 -0.5708
   49MOL   H21236788   2.892   6.107   1.372  0.0407  0.9779 -0.5411
   49MOL   H21336789   2.935   6.091   1.203 -1.0314 -0.4364  0.2596
   49MOL   H21436790   2.808   5.857   1.222 -1.0015  0.1737  0.5680
   49MOL   H21536791   2.709   5.984   1.303 -0.3448 -0.0542 -0.6485
   49MOL   H21636792   2.788   5.924   1.517 -1.5261  0.4692 -0.1061
   49MOL   H21736793   2.598   5.824   1.463  1.0241  0.6724  0.6181
   49MOL   H21836794   2.701   5.703   1.539  0.2142  0.1154  0.8254
   49MOL   H21936795   2.954   5.705   1.374  0.3988  0.1627  0.0723
   49MOL   H22036796   2.937   5.729   1.543  2.3327  1.0110 -0.2966
   49MOL   H22136797   3.045   5.952   1.535 -0.1579 -0.4480 -0.0947
   49MOL   H22236798   3.149   5.821   1.462  1.6356  1.6367  1.1100
   49MOL   H22336799   3.083   5.903   1.249  0.4754  0.3756  0.2445
   49MOL   H22436800   3.232   6.029   1.415  0.7406 -0.5551  0.3667
   49MOL   H22536801   3.130   6.174   1.382 -3.0754 -0.7353 -0.1888
   49MOL   H22636802   3.415   6.419   1.101 -0.5379 -0.2460  0.4260
   49MOL   H22736803   3.451   6.476   0.853 -0.8793  0.4458 -0.0771
   49MOL   H22836804   3.358   6.056   0.758  0.6807  0.5880 -0.7265
   49MOL   H22936805   3.301   6.021   0.992  0.4270 -1.0344 -0.4168
   49MOL   C23036806   3.440   5.902   0.166 -0.3979 -0.1129  0.3313
   49MOL   C23136807   3.461   6.041   0.229  0.1283  0.4922 -0.1168
   49MOL   C23236808   3.443   6.038   0.384 -0.0216  0.1270 -0.0779
   49MOL   C23336809   3.445   6.185   0.434 -0.1480 -0.1009 -0.4995
   49MOL   C23436810   3.314   5.967   0.425 -0.7526 -0.7166 -0.1950
   49MOL   C23536811   3.300   5.826   0.361 -0.5629  0.1185  0.6883
   49MOL   C23636812   3.315   5.822   0.209 -0.4251  0.4914  0.4927
   49MOL   C23736813   3.304   5.682   0.149 -1.0062  0.4576 -0.1064
   49MOL   O23836814   3.324   5.683   0.017 -0.1252 -0.1575  0.3366
   49MOL   C23936815   3.448   5.663   7.987 -0.5980 -0.2343  0.0585
   49MOL   O24036816   3.543   5.618   0.029  0.7154  0.5139 -0.0679
   49MOL   C24136817   3.453   5.689   7.841 -0.4519 -0.3539 -0.8823
   49MOL   C24236818   3.348   5.745   7.761  0.1930 -0.1865 -0.5755
   49MOL   C24336819   3.368   5.767   7.625 -0.4294  0.3742 -0.1975
   49MOL   C24436820   3.496   5.736   7.565  0.5076 -0.1464  0.4081
   49MOL   C24536821   3.515   5.780   7.424  0.0115 -0.2596  0.3240
   49MOL   O24636822   3.626   5.768   7.375  0.3349 -0.8397  0.0161
   49MOL   O24736823   3.408   5.823   7.359  0.6795  0.0588 -0.7289
   49MOL   C24836824   3.600   5.689   7.639 -0.8130 -0.3916 -0.2153
   49MOL   C24936825   3.585   5.674   7.778 -0.2248  0.5528 -0.1169
   49MOL   H25036826   3.528   5.841   0.188  1.1069  0.9190 -2.5699
   49MOL   H25136827   3.452   5.932   0.062  1.6432  0.0269  0.5861
   49MOL   H25236828   3.389   6.106   0.178 -1.5364  0.3440  1.9821
   49MOL   H25336829   3.561   6.069   0.195  0.7172 -0.5301  0.7585
   49MOL   H25436830   3.530   5.991   0.427 -0.7272 -2.5149 -1.4191
   49MOL   H25536831   3.367   6.247   0.391  0.0255 -1.2035 -2.5026
   49MOL   H25636832   3.542   6.232   0.418  0.5018 -1.5566 -0.9532
   49MOL   H25736833   3.229   6.030   0.400 -0.1013  0.8883  1.5666
   49MOL   H25836834   3.311   5.948   0.532  1.5247  3.1161  0.6439
   49MOL   H25936835   3.382   5.764   0.399  0.4600 -0.1627 -1.8689
   49MOL   H26036836   3.204   5.785   0.391 -1.2681  0.0274 -1.6287
   49MOL   H26136837   3.227   5.871   0.167 -0.6195  0.8989  1.3620
   49MOL   H26236838   3.200   5.661   0.171 -0.6378  0.0018  1.2820
   49MOL   H26336839   3.379   5.618   0.198 -1.5627  0.9850  1.4581
   49MOL   H26436840   3.248   5.758   7.800  0.1369  1.8381 -1.2898
   49MOL   H26536841   3.287   5.818   7.575  0.4536  1.4468 -0.5563
   49MOL   H26636842   3.696   5.662   7.598  1.6763  1.4277  4.0918
   49MOL   H26736843   3.662   5.626   7.837 -0.8178  1.8699  1.7586
   49MOL   C26836844   3.196   5.678   6.981  0.3661  0.2770 -0.6207
   49MOL   C26936845   3.229   5.771   7.101 -1.1120  0.1481 -0.9587
   49MOL   C27036846   3.378   5.792   7.112 -0.0634 -0.2733 -0.3787
   49MOL   C27136847   3.419   5.887   7.231  0.7920 -0.2440  1.0501
   49MOL   C27236848   3.455   5.658   7.125 -0.3848  0.4935 -0.1374
   49MOL   C27336849   3.420   5.562   7.013  0.1213 -0.1594 -0.3695
   49MOL   C27436850   3.260   5.546   7.007  0.1249  0.6222  0.0293
   49MOL   C27536851   3.217   5.425   6.919  0.8599  0.5051 -0.3136
   49MOL   O27636852   3.284   5.429   6.797  0.2036 -0.0082  0.0667
   49MOL   C27736853   3.244   5.499   6.690  0.4263  0.2462 -0.1821
   49MOL   O27836854   3.143   5.573   6.689 -0.7949  0.1848  0.7913
   49MOL   C27936855   3.334   5.473   6.572 -0.0914  0.3153 -0.2142
   49MOL   C28036856   3.461   5.395   6.574  0.4021 -0.4048  0.4833
   49MOL   C28136857   3.536   5.381   6.452 -0.5304  0.7710 -0.2922
   49MOL   C28236858   3.486   5.442   6.334 -0.5786 -0.1487  0.2429
   49MOL   C28336859   3.561   5.437   6.206 -0.2713 -0.6658  0.2351
   49MOL   O28436860   3.519   5.490   6.103  0.2769 -0.2664  0.0449
   49MOL   O28536861   3.685   5.378   6.219 -0.3912  0.2141 -0.1444
   49MOL   C28636862   3.364   5.510   6.334  0.1993  0.0937 -0.6578
   49MOL   C28736863   3.284   5.522   6.450 -0.2212 -0.1785  0.2004
   49MOL   H28836864   3.240   5.718   6.890  1.0809 -3.1117 -1.8588
   49MOL   H28936865   3.088   5.664   6.971  0.2567  0.5727  0.1379
   49MOL   H29036866   3.194   5.726   7.194 -1.0948  0.5996 -0.7310
   49MOL   H29136867   3.160   5.853   7.080 -2.6513 -0.5430  1.1385
   49MOL   H29236868   3.398   5.831   7.012  0.9325  0.0144 -0.0775
   49MOL   H29336869   3.350   5.971   7.232  0.3821 -0.5841  1.1299
   49MOL   H29436870   3.510   5.946   7.219  0.9548 -0.8195 -0.5387
   49MOL   H29536871   3.424   5.613   7.220 -1.1895  2.0413  0.3528
   49MOL   H29636872   3.562   5.676   7.127 -0.2419 -0.0291 -2.1002
   49MOL   H29736873   3.456   5.600   6.917  1.2216 -0.4375 -0.0678
   49MOL   H29836874   3.466   5.466   7.033 -0.9013 -0.4738  0.5599
   49MOL   H29936875   3.225   5.516   7.106  2.5761 -1.3481  0.3293
   49MOL   H30036876   3.108   5.423   6.913  0.9050  1.4790 -1.7754
   49MOL   H30136877   3.238   5.327   6.962 -0.1209 -0.2686 -1.5680
   49MOL   H30236878   3.493   5.348   6.665 -0.2668  0.8803  1.3913
   49MOL   H30336879   3.624   5.319   6.448 -0.0203  1.4091  1.1281
   49MOL   H30436880   3.325   5.557   6.245  3.2172  0.9074 -1.6023
   49MOL   H30536881   3.189   5.573   6.453  0.6644  1.7065 -2.1830
   49MOL   C30636882   4.068   5.148   6.200  0.2519 -0.5494  0.7406
   49MOL   C30736883   3.923   5.201   6.197  0.6583 -0.1026 -0.0381
   49MOL   C30836884   3.929   5.350   6.153 -0.1710  0.6651  0.2805
   49MOL   C30936885   3.782   5.402   6.113 -0.0950  0.1779  0.4263
   49MOL   C31036886   4.004   5.429   6.262  0.0484  0.3154  0.9038
   49MOL   C31136887   4.150   5.383   6.265 -0.3401 -0.1404 -0.0659
   49MOL   C31236888   4.162   5.230   6.296  1.0294 -0.4699  0.1925
   49MOL   C31336889   4.307   5.180   6.299 -0.4164 -0.1068  0.2283
   49MOL   O31436890   4.309   5.043   6.329  0.3197 -0.1206 -0.1432
   49MOL   C31536891   4.402   4.987   6.404  0.3106  0.4472  0.9431
   49MOL   O31636892   4.494   5.041   6.466  0.3089  0.5589 -0.1826
   49MOL   C31736893   4.375   4.837   6.407  0.0211  0.0055 -0.7396
   49MOL   C31836894   4.278   4.770   6.323 -0.1212  0.2277  1.0032
   49MOL   C31936895   4.261   4.631   6.338  0.6104  0.1654  0.6357
   49MOL   C32036896   4.338   4.556   6.428 -0.7173  0.6322  0.3225
   49MOL   C32136897   4.319   4.407   6.417 -0.6155  0.1600 -0.4727
   49MOL   O32236898   4.278   4.344   6.324 -0.1042  0.0708  0.3210
   49MOL   O32336899   4.368   4.349   6.527  0.5182 -0.3048  0.0060
   49MOL   C32436900   4.422   4.624   6.520 -0.6724 -0.2187  0.0809
   49MOL   C32536901   4.439   4.762   6.507  0.2846 -0.8457  0.0711
   49MOL   H32636902   4.109   5.164   6.101  0.7896  1.8751  1.3156
   49MOL   H32736903   4.072   5.043   6.232  1.5525 -0.5418  0.6189
   49MOL   H32836904   3.886   5.195   6.299 -1.5827 -0.5861 -0.8480
   49MOL   H32936905   3.851   5.145   6.137 -1.3229  0.8605  1.3747
   49MOL   H33036906   3.979   5.346   6.056 -0.8263 -1.7976  0.0316
   49MOL   H33136907   3.749   5.346   6.026 -3.0730  0.4582  1.3219
   49MOL   H33236908   3.774   5.505   6.078 -2.4031 -0.8604 -2.3123
   49MOL   H33336909   3.952   5.418   6.358 -0.3420 -1.6462  0.4915
   49MOL   H33436910   3.993   5.535   6.238 -0.5080  0.1647  0.4867
   49MOL   H33536911   4.189   5.407   6.166 -0.7485 -0.5462 -0.3310
   49MOL   H33636912   4.203   5.441   6.341  2.3384 -0.4477 -1.6270
   49MOL   H33736913   4.136   5.211   6.400  1.2051 -1.8595 -0.0165
   49MOL   H33836914   4.355   5.230   6.383  0.0457 -0.6804  0.3084
   49MOL   H33936915   4.357   5.204   6.205 -3.4616  3.1119 -0.6939
   49MOL   H34036916   4.227   4.824   6.244  1.3758 -1.0934 -0.9315
   49MOL   H34136917   4.203   4.576   6.266  2.5077 -1.2047  0.0994
   49MOL   H34236918   4.488   4.559   6.575 -2.8293 -2.1635  0.4860
   49MOL   H34336919   4.518   4.804   6.569  0.8040 -0.7501 -0.6500
   49MOL   C34436920   4.685   4.057   6.774 -0.1614 -0.0630 -0.1340
   49MOL   C34536921   4.577   4.073   6.659 -0.0434  0.2173  0.9385
   49MOL   C34636922   4.491   4.206   6.663 -0.1421 -0.2719 -0.3144
   49MOL   C34736923   4.387   4.212   6.549 -0.1864 -0.2582  0.1667
   49MOL   C34836924   4.434   4.226   6.806  0.3378 -0.4465  0.2190
   49MOL   C34936925   4.536   4.192   6.928  0.2837  0.8200  0.4103
   49MOL   C35036926   4.606   4.060   6.907 -0.8306 -0.2685  0.0698
   49MOL   C35136927   4.695   4.008   7.022  0.1889 -0.2758  0.4864
   49MOL   O35236928   4.725   3.870   6.987 -0.2193 -0.1673  0.4360
   49MOL   C35336929   4.764   3.780   7.079  0.5456  0.1908 -0.3654
   49MOL   O35436930   4.791   3.804   7.196 -0.0903  0.0376  0.0095
   49MOL   C35536931   4.760   3.637   7.030 -0.0486 -0.3295 -0.1935
   49MOL   C35636932   4.752   3.609   6.890  0.1137  0.2932  0.0937
   49MOL   C35736933   4.768   3.480   6.847 -0.1549 -0.3258  0.3070
   49MOL   C35836934   4.774   3.371   6.930 -0.0674  0.1035 -0.1838
   49MOL   C35936935   4.770   3.234   6.873  0.1130  0.2016 -0.3583
   49MOL   O36036936   4.772   3.216   6.752 -0.0629  0.3114  0.8244
   49MOL   O36136937   4.764   3.137   6.971 -0.1881  0.6940  0.1899
   49MOL   C36236938   4.774   3.395   7.070  0.4644  0.0120  0.3418
   49MOL   C36336939   4.774   3.527   7.121  0.0199 -0.0942  0.2472
   49MOL   H36436940   4.755   4.141   6.777  0.2166 -0.3784 -0.0396
   49MOL   H36536941   4.742   3.965   6.763  0.6249  0.0544  2.6392
   49MOL   H36636942   4.516   3.984   6.672 -0.0066 -0.1218 -1.0378
   49MOL   H36736943   4.620   4.080   6.559 -1.2299  0.6440  0.4522
   49MOL   H36836944   4.558   4.289   6.643  1.5069 -1.8043 -1.3821
   49MOL   H36936945   4.293   4.157   6.561  0.4025 -1.4267 -0.4815
   49MOL   H37036946   4.426   4.162   6.460 -0.9128  0.8513 -0.7929
   49MOL   H37136947   4.349   4.158   6.811  0.1074 -0.2381 -0.8132
   49MOL   H37236948   4.386   4.322   6.823  2.5595  0.8681 -0.8218
   49MOL   H37336949   4.610   4.269   6.951  1.6117 -0.2372 -0.2473
   49MOL   H37436950   4.478   4.185   7.020  0.6020 -1.6594  0.4394
   49MOL   H37536951   4.534   3.979   6.892  0.2223 -0.9650 -1.4346
   49MOL   H37636952   4.655   4.014   7.123 -1.4998  1.1988 -0.2407
   49MOL   H37736953   4.790   4.062   7.024 -0.2225  0.4178  1.4337
   49MOL   H37836954   4.750   3.689   6.817 -0.9974 -1.3713 -1.7267
   49MOL   H37936955   4.759   3.473   6.740  0.3089  0.6125  0.1992
   49MOL   H38036956   4.782   3.311   7.137 -0.3255 -1.3324 -1.2095
   49MOL   H38136957   4.780   3.549   7.226  1.7729 -0.6042  0.2750
   49MOL   C38236958   4.591   2.734   7.159 -0.6280 -0.4066 -0.0687
   49MOL   C38336959   4.653   2.792   7.028 -0.4860 -0.7162  0.4310
   49MOL   C38436960   4.676   2.941   7.047 -0.2177  0.3943  0.4308
   49MOL   C38536961   4.753   3.002   6.929  0.7445 -0.2380  0.7191
   49MOL   C38636962   4.539   3.005   7.087 -0.1128  0.5486 -0.2558
   49MOL   C38736963   4.476   2.958   7.213  0.0195 -0.4542  0.5742
   49MOL   C38836964   4.456   2.805   7.195  0.0464  0.6171  0.1661
   49MOL   C38936965   4.398   2.737   7.316  0.0617  0.3582 -0.9475
   49MOL   O39036966   4.280   2.801   7.349 -0.4598 -0.2600  0.1464
   49MOL   C39136967   4.209   2.762   7.444 -0.2723 -0.2312 -0.7001
   49MOL   O39236968   4.223   2.652   7.496 -0.2970  0.3927  0.0035
   49MOL   C39336969   4.103   2.855   7.488 -0.1232  0.0113 -0.1056
   49MOL   C39436970   4.012   2.819   7.596 -0.3483 -0.1194  0.8769
   49MOL   C39536971   3.890   2.885   7.614  0.2875  0.2064  1.2546
   49MOL   C39636972   3.856   2.995   7.531  0.0988 -0.6538 -0.1703
   49MOL   C39736973   3.733   3.071   7.555 -1.0265 -0.1918 -0.9557
   49MOL   O39836974   3.674   3.129   7.469 -0.0978 -0.6247  0.4619
   49MOL   O39936975   3.683   3.040   7.675  0.2345  0.2377 -0.3590
   49MOL   C40036976   3.947   3.041   7.430  0.0970  0.0705  0.0574
   49MOL   C40136977   4.068   2.976   7.412 -0.3284  0.3928  0.1033
   49MOL   H40236978   4.663   2.740   7.241 -0.6574 -0.9814  0.0024
   49MOL   H40336979   4.574   2.628   7.140  0.3021 -0.6151  0.2331
   49MOL   H40436980   4.581   2.772   6.948 -2.1232  0.6333  1.5164
   49MOL   H40536981   4.748   2.747   6.999 -1.0048 -1.5460 -0.0138
   49MOL   H40636982   4.744   2.947   7.132  0.4355  1.1879 -0.1319
   49MOL   H40736983   4.690   2.984   6.843  0.1677 -0.5802  1.2050
   49MOL   H40836984   4.853   2.961   6.913 -0.0450 -1.7954 -0.3220
   49MOL   H40936985   4.474   3.011   7.000  1.2339  1.4683 -1.2322
   49MOL   H41036986   4.552   3.111   7.110 -2.8317  0.9000 -0.2364
   49MOL   H41136987   4.547   2.977   7.294 -1.4726 -0.3847  1.8752
   49MOL   H41236988   4.384   3.015   7.220  0.6048  0.9460 -2.4476
   49MOL   H41336989   4.379   2.798   7.118 -1.3667  0.5774  1.5650
   49MOL   H41436990   4.459   2.729   7.407 -0.8112 -1.7886 -0.5301
   49MOL   H41536991   4.367   2.634   7.301 -0.6343  0.0750  2.0598
   49MOL   H41636992   4.021   2.728   7.654 -2.1649 -1.6016 -1.0567
   49MOL   H41736993   3.826   2.847   7.692 -1.7112  0.3471 -0.2703
   49MOL   H41836994   3.922   3.125   7.367  0.7086  2.4324  2.8709
   49MOL   H41936995   4.133   3.004   7.331 -1.8321  0.2877 -1.1479
   49MOL   C42036996   3.240   2.816   7.666 -0.4614  0.3173  0.6186
   49MOL   C42136997   3.312   2.953   7.692  0.0919 -0.1547  0.1820
   49MOL   C42236998   3.464   2.932   7.656 -0.2199  0.0853  0.4617
   49MOL   C42336999   3.545   3.058   7.705 -0.4865 -0.1075 -0.1062
   49MOL   C42437000   3.519   2.801   7.721 -0.0247  0.3014 -0.0827
   49MOL   C42537001   3.438   2.670   7.694 -0.1050  0.4015  0.2292
   49MOL   C42637002   3.298   2.695   7.745  0.0970  0.0749  0.0625
   49MOL   C42737003   3.207   2.576   7.729 -0.4402  0.4863  0.8257
   49MOL   O42837004   3.259   2.456   7.787  0.6127  0.0589 -0.2496
   49MOL   C42937005   3.185   2.345   7.774  0.0656  0.2049 -0.4282
   49MOL   O43037006   3.071   2.345   7.735  0.1628  0.0355 -0.2040
   49MOL   C43137007   3.268   2.221   7.817  0.7265  0.4166 -0.2090
   49MOL   C43237008   3.411   2.227   7.826 -0.8842  0.4842 -0.2000
   49MOL   C43337009   3.482   2.110   7.844 -0.8996  0.4055 -0.0498
   49MOL   C43437010   3.423   1.986   7.863  0.0797 -0.0404  0.0385
   49MOL   C43537011   3.506   1.865   7.871 -0.4790  0.0392  0.1312
   49MOL   O43637012   3.457   1.751   7.858 -0.4984 -0.2719 -0.1470
   49MOL   O43737013   3.640   1.892   7.890  0.2477 -0.0141  0.2395
   49MOL   C43837014   3.276   1.982   7.871 -0.0981 -0.3323 -0.2280
   49MOL   C43937015   3.200   2.099   7.840  0.2341  0.3697  0.5119
   49MOL   H44037016   3.223   2.791   7.561  0.5652 -1.5855  0.8990
   49MOL   H44137017   3.137   2.825   7.702 -0.9282  2.2845 -1.0550
   49MOL   H44237018   3.302   2.979   7.797  2.8383 -1.3242  0.7781
   49MOL   H44337019   3.275   3.041   7.640  0.7392  0.5411  0.8800
   49MOL   H44437020   3.473   2.931   7.547 -0.6464  0.4312  0.4208
   49MOL   H44537021   3.535   3.070   7.813  0.7632 -1.2000  0.1474
   49MOL   H44637022   3.509   3.150   7.659  3.0455  0.2464 -2.3786
   49MOL   H44737023   3.541   2.802   7.828 -1.1677 -0.3412  0.1647
   49MOL   H44837024   3.616   2.781   7.675  0.7203 -0.3184  1.7034
   49MOL   H44937025   3.443   2.649   7.587 -0.3709  0.3642  0.2220
   49MOL   H45037026   3.474   2.583   7.748  2.2073  0.3599 -1.3223
   49MOL   H45137027   3.295   2.704   7.853 -0.4500 -2.7065  0.3125
   49MOL   H45237028   3.181   2.548   7.626  0.1518 -2.3932  1.4015
   49MOL   H45337029   3.110   2.607   7.767 -0.2472  0.5823  1.2449
   49MOL   H45437030   3.464   2.316   7.798  0.7355 -0.3737  0.1021
   49MOL   H45537031   3.590   2.118   7.844 -0.8701  0.0004 -0.3302
   49MOL   H45637032   3.222   1.891   7.891 -1.3184  0.6730  1.1332
   49MOL   H45737033   3.092   2.098   7.839  0.2109  1.6164  0.7646
   49MOL   C45837034   3.883   1.913   7.526 -0.1505 -0.3319  0.1058
   49MOL   C45937035   3.827   1.928   7.669  0.0558 -0.1544  0.0437
   49MOL   C46037036   3.796   1.794   7.740  0.2835  0.1137  0.3303
   49MOL   C46137037   3.739   1.795   7.887  0.1775  0.1545 -0.0499
   49MOL   C46237038   3.711   1.693   7.645  0.6477  0.0085  0.6997
   49MOL   C46337039   3.783   1.682   7.508 -0.1124  0.3637 -0.5680
   49MOL   C46437040   3.796   1.819   7.434 -0.0205 -0.6389 -0.4434
   49MOL   C46537041   3.851   1.794   7.298  0.3676 -0.0426  0.7439
   49MOL   O46637042   3.896   1.911   7.243  0.0827  0.2184 -0.0856
   49MOL   C46737043   3.932   1.921   7.119  0.3651 -0.3487  0.2277
   49MOL   O46837044   3.915   1.836   7.033 -0.2346  0.1796 -0.5666
   49MOL   C46937045   4.001   2.048   7.086  0.5698 -0.5679 -0.1692
   49MOL   C47037046   4.004   2.091   6.957 -1.0866  0.6540  0.3627
   49MOL   C47137047   4.069   2.210   6.927 -0.5221 -0.1709 -0.0255
   49MOL   C47237048   4.127   2.287   7.030  0.4329 -0.1759 -0.3897
   49MOL   C47337049   4.168   2.428   7.001  0.0946 -0.2039 -0.1888
   49MOL   O47437050   4.237   2.493   7.081  0.6829  0.2370  0.5675
   49MOL   O47537051   4.132   2.468   6.881  0.3581  0.1084 -0.0697
   49MOL   C47637052   4.122   2.243   7.166 -0.3221  0.0297  0.1633
   49MOL   C47737053   4.069   2.113   7.190 -0.2857  0.1772  0.0318
   49MOL   H47837054   3.984   1.871   7.528 -0.4652 -1.0854  0.3849
   49MOL   H47937055   3.906   2.009   7.479 -1.0226  1.0641  2.4543
   49MOL   H48037056   3.733   1.984   7.666 -0.7716 -1.3797  2.1673
   49MOL   H48137057   3.895   1.988   7.728 -1.5451  0.8081  0.9508
   49MOL   H48237058   3.891   1.741   7.744  0.7348  0.7976 -1.1914
   49MOL   H48337059   3.815   1.811   7.963  0.7912 -0.0422 -0.6198
   49MOL   H48437060   3.692   1.697   7.897  3.9032 -1.9289 -2.0628
   49MOL   H48537061   3.608   1.726   7.634 -1.0941 -4.4943  2.4451
   49MOL   H48637062   3.714   1.595   7.691 -0.6794 -1.1481 -1.6000
   49MOL   H48737063   3.877   1.628   7.519  1.6189  3.2894 -0.6180
   49MOL   H48837064   3.722   1.621   7.441 -0.2794  0.3968 -0.4449
   49MOL   H48937065   3.699   1.868   7.425 -0.0175 -0.1709  1.7017
   49MOL   H49037066   3.776   1.753   7.230  0.4356  0.0036  0.6404
   49MOL   H49137067   3.937   1.727   7.298 -0.1789 -0.8212 -2.3574
   49MOL   H49237068   3.954   2.026   6.887 -0.0061 -0.8086  0.9294
   49MOL   H49337069   4.064   2.240   6.824  3.3755 -0.3009 -0.3267
   49MOL   H49437070   4.164   2.297   7.250 -0.3992  1.9469 -0.9769
   49MOL   H49537071   4.064   2.069   7.289 -1.2257 -0.8530 -0.4607
   49MOL   C49637072   3.775   2.706   6.901 -0.2083 -0.0973  0.4944
   49MOL   C49737073   3.907   2.642   6.927 -0.4097 -0.4952  0.0172
   49MOL   C49837074   4.007   2.657   6.810 -0.9871  0.6129 -0.1698
   49MOL   C49937075   4.150   2.605   6.852  0.0965  0.1904 -0.2345
   49MOL   C50037076   3.944   2.589   6.691  0.4462  0.0803  0.3245
   49MOL   C50137077   3.809   2.649   6.656 -0.1831  0.1850 -0.4303
   49MOL   C50237078   3.711   2.652   6.770  1.6166  0.6131  0.8171
   49MOL   C50337079   3.590   2.725   6.719 -0.2787 -0.0740  0.2644
   49MOL   O50437080   3.475   2.712   6.807  0.0767 -0.1708 -0.1574
   49MOL   C50537081   3.369   2.784   6.769 -0.0101  0.1820 -0.7643
   49MOL   O50637082   3.374   2.880   6.694  0.2787 -0.7110 -0.4009
   49MOL   C50737083   3.239   2.725   6.811  0.3709 -0.4345  0.7878
   49MOL   C50837084   3.120   2.754   6.746 -1.0817 -0.2174  0.0852
   49MOL   C50937085   3.000   2.691   6.762 -0.5456 -0.3459  0.5321
   49MOL   C51037086   2.986   2.596   6.865 -0.3333  0.2055 -0.6102
   49MOL   C51137087   2.867   2.517   6.887  0.3346 -0.1828 -0.2234
   49MOL   O51237088   2.764   2.541   6.820  0.2449  0.1670  0.1515
   49MOL   O51337089   2.874   2.421   6.978  0.5694 -0.0086 -0.1233
   49MOL   C51437090   3.100   2.583   6.951  0.4787  1.1112  0.0190
   49MOL   C51537091   3.224   2.639   6.924  0.7784 -1.1061 -0.0288
   49MOL   H51637092   3.791   2.814   6.904  1.3288 -0.2849 -0.4303
   49MOL   H51737093   3.714   2.684   6.988  2.0400  0.1275  2.1701
   49MOL   H51837094   3.872   2.541   6.948 -2.5948 -0.1721 -1.8483
   49MOL   H51937095   3.955   2.686   7.014 -0.2595 -2.2031  0.8129
   49MOL   H52037096   4.022   2.765   6.800  0.8304  0.2831 -1.3348
   49MOL   H52137097   4.183   2.661   6.940  1.0351 -1.7928  0.6981
   49MOL   H52237098   4.226   2.620   6.775 -0.2437  0.1746 -0.5724
   49MOL   H52337099   3.914   2.488   6.719  1.1111 -0.2973 -0.3009
   49MOL   H52437100   4.012   2.592   6.606 -0.8311  2.0729 -0.6669
   49MOL   H52537101   3.829   2.749   6.618  0.8005  2.0460  4.5365
   49MOL   H52637102   3.771   2.586   6.576 -0.2867  0.5709 -0.6859
   49MOL   H52737103   3.684   2.547   6.777  0.0008  0.7577 -2.2109
   49MOL   H52837104   3.566   2.696   6.616 -2.5427  1.7486  0.2407
   49MOL   H52937105   3.624   2.828   6.711  2.0004 -0.7718  0.7580
   49MOL   H53037106   3.132   2.826   6.666  1.3790 -0.6951 -0.0141
   49MOL   H53137107   2.920   2.706   6.690  2.3493  1.9701 -2.3412
   49MOL   H53237108   3.085   2.526   7.042  2.7496  1.3928  0.6127
   49MOL   H53337109   3.312   2.621   6.983  0.4086 -1.2163  0.4881
   49MOL   C53437110   2.594   2.047   6.795  0.3484  0.0681 -0.3380
   49MOL   C53537111   2.618   2.159   6.896  0.3478 -0.6797  0.4592
   49MOL   C53637112   2.764   2.213   6.893  0.3719 -0.8398 -0.1271
   49MOL   C53737113   2.765   2.335   6.987  0.5133  0.3715 -0.4015
   49MOL   C53837114   2.866   2.100   6.919 -0.5225 -0.0233  0.3508
   49MOL   C53937115   2.848   1.982   6.819 -0.0153 -0.6845 -1.3596
   49MOL   C54037116   2.702   1.937   6.806 -0.9196  0.0004  0.0659
   49MOL   C54137117   2.692   1.846   6.689 -0.3649  0.2297  0.7012
   49MOL   O54237118   2.730   1.900   6.557 -0.0041 -0.0279  0.0885
   49MOL   C54337119   2.851   1.868   6.507 -0.6447 -0.6665 -0.2418
   49MOL   O54437120   2.931   1.792   6.563 -0.2489 -0.3410 -0.0993
   49MOL   C54537121   2.887   1.935   6.373  0.1824 -0.2923 -0.4841
   49MOL   C54637122   2.783   1.981   6.287  0.1930  0.4554 -0.0990
   49MOL   C54737123   2.811   2.039   6.163 -0.2734 -0.0550 -0.4409
   49MOL   C54837124   2.943   2.067   6.121 -0.3713  0.4200 -0.6438
   49MOL   C54937125   2.967   2.123   5.989  1.1075  0.5836  0.3429
   49MOL   O55037126   2.884   2.117   5.895  0.3361 -0.0570  0.8894
   49MOL   O55137127   3.080   2.202   5.984  0.5272 -0.0522 -0.4277
   49MOL   C55237128   3.044   2.029   6.217 -0.5088 -0.3159 -0.0684
   49MOL   C55337129   3.020   1.967   6.341  0.1533 -0.2053  0.1207
   49MOL   H55437130   2.607   2.100   6.701  2.7191 -1.5460 -0.9730
   49MOL   H55537131   2.491   2.010   6.802  0.8028 -0.7509  2.6137
   49MOL   H55637132   2.597   2.135   7.000  0.3061  1.5727  0.9872
   49MOL   H55737133   2.557   2.247   6.873  0.0327 -1.0734 -0.2197
   49MOL   H55837134   2.773   2.254   6.793 -0.6370 -2.4490 -0.9068
   49MOL   H55937135   2.763   2.302   7.091 -3.6441  0.4758 -0.3332
   49MOL   H56037136   2.672   2.392   6.988 -0.3511 -1.0047  1.5601
   49MOL   H56137137   2.863   2.064   7.022 -0.3445  3.2065  1.5575
   49MOL   H56237138   2.968   2.138   6.909 -0.6515  0.2699  0.1131
   49MOL   H56337139   2.885   2.030   6.729  1.1090 -0.3961 -0.7546
   49MOL   H56437140   2.912   1.904   6.860 -0.7190 -0.8715 -0.5981
   49MOL   H56537141   2.685   1.877   6.896  0.1583  1.2612  1.1347
   49MOL   H56637142   2.589   1.809   6.684 -0.6479  1.1395 -0.5109
   49MOL   H56737143   2.754   1.757   6.699 -0.4000  0.1168 -0.0394
   49MOL   H56837144   2.678   1.971   6.310  0.0716 -2.6544 -1.7282
   49MOL   H56937145   2.732   2.076   6.101 -1.1520 -0.0786  0.6435
   49MOL   H57037146   3.146   2.039   6.182 -0.6712  0.3023 -0.3855
   49MOL   H57137147   3.104   1.947   6.406  1.0467 -0.2117 -1.0260
   49MOL   C57237148   3.415   2.149   5.673 -0.0949  0.7917 -0.5444
   49MOL   C57337149   3.324   2.192   5.790 -0.6433 -0.3556  0.3710
   49MOL   C57437150   3.177   2.209   5.753  0.3720  0.2776  0.6402
   49MOL   C57537151   3.102   2.279   5.868  0.1225  0.1465  0.1636
   49MOL   C57637152   3.170   2.301   5.625 -0.5345 -0.3767 -0.1396
   49MOL   C57737153   3.253   2.258   5.507 -0.8542  0.4933  0.3512
   49MOL   C57837154   3.405   2.247   5.556  0.1946  0.0808  0.4350
   49MOL   C57937155   3.502   2.215   5.432 -0.3373 -0.2791  0.3900
   49MOL   O58037156   3.634   2.228   5.474 -0.0282 -0.0063  0.6888
   49MOL   C58137157   3.734   2.241   5.388 -0.0158 -0.2482 -0.0667
   49MOL   O58237158   3.728   2.231   5.266 -0.3327  0.1474 -0.1014
   49MOL   C58337159   3.866   2.265   5.459  0.0028 -0.5931  0.4446
   49MOL   C58437160   3.873   2.253   5.601 -0.1746 -0.7223 -0.4754
   49MOL   C58537161   3.996   2.274   5.664 -0.1532  0.3387 -0.4492
   49MOL   C58637162   4.107   2.329   5.593  0.1425  0.1441  1.3118
   49MOL   C58737163   4.228   2.370   5.671 -0.8443 -0.0685  0.7149
   49MOL   O58837164   4.231   2.367   5.794 -0.7764 -0.1244 -0.0551
   49MOL   O58937165   4.321   2.421   5.589  0.0118 -0.1040 -0.0470
   49MOL   C59037166   4.093   2.345   5.451  0.3921  1.1429 -0.4911
   49MOL   C59137167   3.974   2.305   5.387 -0.5444 -0.7873  0.2683
   49MOL   H59237168   3.401   2.045   5.644 -3.0181  1.3490 -1.2332
   49MOL   H59337169   3.518   2.149   5.710  0.2242 -1.4401 -1.3545
   49MOL   H59437170   3.366   2.278   5.841 -1.6849  0.2837  0.1669
   49MOL   H59537171   3.329   2.110   5.861  0.5889 -0.0701  0.6327
   49MOL   H59637172   3.133   2.110   5.737  0.7723  0.4773 -1.9630
   49MOL   H59737173   3.005   2.314   5.833  0.3195  0.6942  0.1494
   49MOL   H59837174   3.148   2.373   5.899 -1.6843  1.4009 -0.8455
   49MOL   H59937175   3.199   2.401   5.656  0.2778 -0.8951  0.8144
   49MOL   H60037176   3.068   2.314   5.589  0.1583 -1.3789 -2.5679
   49MOL   H60137177   3.218   2.161   5.471  0.1933 -0.4892  1.8950
   49MOL   H60237178   3.242   2.325   5.421  1.3979  0.8610  0.3093
   49MOL   H60337179   3.427   2.348   5.590 -1.9455  0.5727  0.4074
   49MOL   H60437180   3.481   2.284   5.350 -0.4719 -0.9734 -0.1749
   49MOL   H60537181   3.499   2.113   5.394 -1.9330 -0.4665  0.9554
   49MOL   H60637182   3.784   2.238   5.660  0.1365  1.3588  0.5754
   49MOL   H60737183   4.008   2.265   5.771  2.2694  1.9501 -0.5478
   49MOL   H60837184   4.168   2.387   5.387 -0.7297  2.0349 -1.2442
   49MOL   H60937185   3.967   2.317   5.279 -0.9899 -1.3750  0.2293
   49MOL   C61037186   4.743   2.474   5.408  0.1091  0.7737  0.4407
   49MOL   C61137187   4.639   2.427   5.516  0.3787 -0.5405 -0.1792
   49MOL   C61237188   4.529   2.530   5.537 -0.2771  0.4146  0.3194
   49MOL   C61337189   4.434   2.477   5.646 -0.3471  0.7411  0.1599
   49MOL   C61437190   4.575   2.679   5.550 -0.1637  0.5228 -0.0741
   49MOL   C61537191   4.689   2.716   5.443 -0.3014 -0.2944  0.2787
   49MOL   C61637192   4.802   2.613   5.441 -0.4431 -0.8768 -0.3178
   49MOL   C61737193   4.921   2.645   5.355  0.9267 -0.2160  0.0792
   49MOL   O61837194   5.032   2.571   5.405 -0.1846 -0.2647  0.0985
   49MOL   C61937195   5.087   2.476   5.324  0.0655  0.0679 -0.0018
   49MOL   O62037196   5.057   2.460   5.202 -0.3696  0.8554  0.1573
   49MOL   C62137197   5.191   2.396   5.394  0.5360 -0.2005 -0.0303
   49MOL   C62237198   5.250   2.433   5.515 -0.6126  0.8256  0.0967
   49MOL   C62337199   5.351   2.357   5.572  0.3639 -0.8486 -0.0665
   49MOL   C62437200   5.393   2.236   5.519  0.5508  0.4322  0.8239
   49MOL   C62537201   5.491   2.143   5.602  0.5604 -0.1261  0.1096
   49MOL   O62637202   5.519   2.026   5.569  0.2569 -0.3953 -0.2355
   49MOL   O62737203   5.538   2.195   5.710  0.1407  0.5771  0.8872
   49MOL   C62837204   5.331   2.194   5.396  0.2874 -0.4336 -0.0424
   49MOL   C62937205   5.238   2.275   5.331  0.2248 -0.1768 -0.1607
   49MOL   H63037206   4.683   2.478   5.317  0.2364 -1.8911  0.2041
   49MOL   H63137207   4.818   2.396   5.397 -1.3034 -0.6809  0.8819
   49MOL   H63237208   4.688   2.399   5.610 -0.3721 -0.7277  0.1639
   49MOL   H63337209   4.596   2.333   5.482  0.2407 -0.7495  0.5587
   49MOL   H63437210   4.476   2.513   5.443  0.8807  0.6687 -0.3801
   49MOL   H63537211   4.407   2.558   5.714  0.8542 -0.6203  2.3100
   49MOL   H63637212   4.479   2.393   5.699  1.2203 -0.0002 -2.2511
   49MOL   H63737213   4.608   2.679   5.653  0.4007 -0.1464 -0.2486
   49MOL   H63837214   4.493   2.750   5.539 -0.2143  0.6068  0.8669
   49MOL   H63937215   4.642   2.723   5.345 -1.5829 -1.3240  0.8077
   49MOL   H64037216   4.726   2.816   5.463 -2.2888  1.1726 -2.8870
   49MOL   H64137217   4.843   2.602   5.541  0.5440 -0.4604 -0.6671
   49MOL   H64237218   4.945   2.752   5.356 -1.5947  0.3983  2.3725
   49MOL   H64337219   4.900   2.629   5.250 -1.0076  0.7965  0.2925
   49MOL   H64437220   5.231   2.529   5.560 -1.3755  1.1633 -0.9356
   49MOL   H64537221   5.401   2.395   5.660 -1.1825 -0.7760  0.8100
   49MOL   H64637222   5.349   2.096   5.356 -1.4972  0.0772 -2.1834
   49MOL   H64737223   5.204   2.248   5.232  1.4149  0.8698 -0.8714
   49MOL   C64837224   5.425   2.087   6.121  0.3582 -0.5865  0.3395
   49MOL   C64937225   5.459   2.094   5.971  0.0356 -0.3041 -0.3565
   49MOL   C65037226   5.607   2.126   5.945 -0.2394  0.1171  0.3741
   49MOL   C65137227   5.629   2.114   5.794  0.1642  0.1275  0.4087
   49MOL   C65237228   5.641   2.271   6.006  0.5500  0.1549  0.2154
   49MOL   C65337229   5.603   2.275   6.159  0.4495  0.1152  0.2179
   49MOL   C65437230   5.460   2.225   6.185 -0.2908 -0.0454  0.0242
   49MOL   C65537231   5.410   2.226   6.328 -0.3463 -0.1970  0.0607
   49MOL   O65637232   5.269   2.222   6.342 -0.7938  0.1095 -0.0685
   49MOL   C65737233   5.201   2.317   6.417  0.3508  0.0974  0.2770
   49MOL   O65837234   5.262   2.401   6.489 -0.1596  0.1027  0.3385
   49MOL   C65937235   5.058   2.303   6.394 -0.4044  0.0721 -0.2440
   49MOL   C66037236   5.008   2.183   6.342  0.2529  0.0990 -0.1599
   49MOL   C66137237   4.871   2.170   6.303 -0.2931 -0.3990 -1.0573
   49MOL   C66237238   4.786   2.283   6.315  0.5760 -0.7107  0.2897
   49MOL   C66337239   4.651   2.271   6.257  0.2186 -0.1927 -1.0128
   49MOL   O66437240   4.614   2.167   6.200 -0.1312  0.7664  0.2770
   49MOL   O66537241   4.571   2.375   6.276 -0.3318 -0.0934 -0.4659
   49MOL   C66637242   4.841   2.405   6.358  0.3918  0.0137 -0.6897
   49MOL   C66737243   4.975   2.415   6.397 -0.0740  0.2695  0.5654
   49MOL   H66837244   5.486   2.006   6.159  1.4146 -0.8642 -1.8822
   49MOL   H66937245   5.317   2.074   6.120  0.0909  1.4004 -0.0068
   49MOL   H67037246   5.391   2.172   5.937  1.7038  1.4702  0.2521
   49MOL   H67137247   5.421   2.004   5.924  2.6423 -2.2683  1.1763
   49MOL   H67237248   5.666   2.049   5.995 -0.7312  0.5930  1.7085
   49MOL   H67337249   5.619   2.007   5.779  0.7444  0.0909  0.2746
   49MOL   H67437250   5.728   2.150   5.765  0.5283 -1.2499 -0.0863
   49MOL   H67537251   5.589   2.351   5.954  0.0722  0.3477  0.9867
   49MOL   H67637252   5.749   2.286   5.997  0.4061  1.5871  0.6822
   49MOL   H67737253   5.675   2.209   6.206  1.6521 -0.3792 -2.2619
   49MOL   H67837254   5.619   2.375   6.201 -1.2448  0.6477 -0.3702
   49MOL   H67937255   5.391   2.289   6.130  0.3224  1.3773  0.8864
   49MOL   H68037256   5.457   2.315   6.371 -1.8524  0.5017  0.2827
   49MOL   H68137257   5.451   2.141   6.383  0.0943  0.8721  1.4186
   49MOL   H68237258   5.063   2.090   6.345  1.2847  0.6907 -0.4629
   49MOL   H68337259   4.840   2.079   6.255  0.2623 -1.1651  0.0190
   49MOL   H68437260   4.784   2.496   6.369  0.5767  0.1506 -0.8533
   49MOL   H68537261   5.016   2.510   6.431 -0.6778  1.1851 -1.2102
   49MOL   C68637262   4.104   2.267   6.208  0.2939  0.6470 -0.2358
   49MOL   C68737263   4.231   2.326   6.150 -0.8695  0.2583  0.2422
   49MOL   C68837264   4.338   2.347   6.252  0.0345  0.8137 -0.5966
   49MOL   C68937265   4.460   2.404   6.192  0.3440 -0.4740 -0.0690
   49MOL   C69037266   4.291   2.430   6.370  0.2625 -0.7286 -0.4677
   49MOL   C69137267   4.172   2.368   6.435  0.4586  0.2142  0.6020
   49MOL   C69237268   4.055   2.342   6.331 -0.1521 -0.1422  0.1061
   49MOL   C69337269   3.943   2.254   6.406 -0.0447 -1.1298 -0.4379
   49MOL   O69437270   3.984   2.120   6.422 -0.0683  0.0307  0.4195
   49MOL   C69537271   3.961   2.057   6.532  0.4497  0.3354  0.1383
   49MOL   O69637272   3.881   2.095   6.618  0.0506 -0.1749 -0.4894
   49MOL   C69737273   4.035   1.925   6.539 -0.8215 -0.3238 -0.9265
   49MOL   C69837274   3.998   1.834   6.641 -0.1300  0.3353 -0.3008
   49MOL   C69937275   4.042   1.701   6.644  0.7949  0.2360  0.4053
   49MOL   C70037276   4.128   1.658   6.537  0.2584  0.2924  0.0899
   49MOL   C70137277   4.178   1.519   6.534  0.0576  1.0226  0.2816
   49MOL   O70237278   4.129   1.429   6.604  0.5540  0.3931  0.1379
   49MOL   O70337279   4.275   1.498   6.442 -0.1621 -0.4172  0.7453
   49MOL   C70437280   4.186   1.752   6.448 -0.4440 -0.1792 -0.1051
   49MOL   C70537281   4.140   1.887   6.446  0.0413 -0.5721  0.4004
   49MOL   H70637282   4.136   2.164   6.225  2.3388  0.9352 -2.0557
   49MOL   H70737283   4.022   2.270   6.137 -0.6504  0.7011  0.8372
   49MOL   H70837284   4.210   2.423   6.106 -1.7830  0.1767  0.4751
   49MOL   H70937285   4.267   2.256   6.075  2.0603  1.7748  0.1806
   49MOL   H71037286   4.371   2.251   6.290  0.4554  0.7412 -1.1378
   49MOL   H71137287   4.443   2.511   6.184 -0.7317 -0.5325  1.2570
   49MOL   H71237288   4.468   2.366   6.090 -0.4567  1.1194 -0.7401
   49MOL   H71337289   4.260   2.529   6.336  1.7717 -0.4188 -0.9516
   49MOL   H71437290   4.380   2.436   6.433 -0.1956  0.1301  0.1038
   49MOL   H71537291   4.209   2.272   6.472 -1.9805 -0.4882  1.2519
   49MOL   H71637292   4.138   2.430   6.518  0.6053  0.9310  0.1287
   49MOL   H71737293   4.019   2.435   6.288  2.3813  0.7124 -0.2452
   49MOL   H71837294   3.846   2.254   6.357 -0.7663 -1.5382  0.9655
   49MOL   H71937295   3.941   2.303   6.503 -0.5039 -0.7893 -0.6171
   49MOL   H72037296   3.926   1.858   6.718  1.0648 -1.0680  1.3022
   49MOL   H72137297   3.985   1.640   6.713 -2.3851  0.1776 -2.1472
   49MOL   H72237298   4.258   1.725   6.372 -0.4063  0.3207 -0.2494
   49MOL   H72337299   4.171   1.951   6.365 -1.2183 -1.2714 -0.6501
   49MOL   C72437300   4.691   1.243   6.517 -0.8133  0.0335  0.3627
   49MOL   C72537301   4.556   1.248   6.446 -0.0183 -0.4038 -0.7181
   49MOL   C72637302   4.469   1.356   6.512  0.1214 -0.1440  0.9009
   49MOL   C72737303   4.339   1.375   6.416 -0.6964  0.9708 -0.2990
   49MOL   C72837304   4.448   1.313   6.660 -0.5744  0.7035 -0.1407
   49MOL   C72937305   4.573   1.295   6.736 -0.3618  0.3107 -0.2001
   49MOL   C73037306   4.677   1.198   6.662  0.0741 -0.2433 -0.6757
   49MOL   C73137307   4.811   1.195   6.731 -0.0334 -0.1985  0.0221
   49MOL   O73237308   4.855   1.332   6.744 -0.2550  0.3663 -0.5782
   49MOL   C73337309   4.985   1.351   6.777  0.5913 -0.1140  0.0780
   49MOL   O73437310   5.060   1.263   6.818 -0.7262 -0.3198  0.3109
   49MOL   C73537311   5.027   1.485   6.751 -0.0723 -0.3425  0.2005
   49MOL   C73637312   5.166   1.515   6.729  0.1387 -0.0191 -0.2001
   49MOL   C73737313   5.212   1.644   6.692  0.6805 -0.1741  0.8257
   49MOL   C73837314   5.118   1.753   6.695 -0.9166 -0.0112  0.3560
   49MOL   C73937315   5.155   1.891   6.650  0.0279  0.7066  0.2862
   49MOL   O74037316   5.246   1.915   6.576  0.0058 -0.2608  0.2969
   49MOL   O74137317   5.087   1.988   6.716  0.1090  0.4545  0.4322
   49MOL   C74237318   4.987   1.731   6.740 -0.4583  0.1363 -0.1062
   49MOL   C74337319   4.944   1.599   6.771 -0.0147 -0.4775  0.0816
   49MOL   H74437320   4.732   1.344   6.508  0.3126 -0.5882 -1.6977
   49MOL   H74537321   4.760   1.170   6.476 -1.3718 -1.1166  1.4288
   49MOL   H74637322   4.498   1.160   6.473  0.7143 -0.3786  1.0184
   49MOL   H74737323   4.565   1.256   6.338  0.7510 -0.6587 -0.6708
   49MOL   H74837324   4.529   1.447   6.515 -1.0128  0.5862  1.9419
   49MOL   H74937325   4.264   1.300   6.440  1.3637 -0.6930  1.0872
   49MOL   H75037326   4.364   1.361   6.311  0.5444  0.2833  0.0767
   49MOL   H75137327   4.393   1.219   6.648  0.8715  0.0097 -1.4793
   49MOL   H75237328   4.380   1.371   6.722 -1.2921 -1.4021  1.1101
   49MOL   H75337329   4.611   1.397   6.732  0.0311  0.2598  1.6773
   49MOL   H75437330   4.558   1.282   6.843  1.1016  1.1092  0.1136
   49MOL   H75537331   4.640   1.096   6.655  1.0967 -0.7517  1.1741
   49MOL   H75637332   4.889   1.127   6.697  0.7982  0.9498 -0.3977
   49MOL   H75737333   4.776   1.155   6.826 -1.6572 -0.5793 -0.7294
   49MOL   H75837334   5.234   1.431   6.729 -0.4118 -0.4729 -0.8409
   49MOL   H75937335   5.316   1.667   6.672  0.2669  1.8392  0.8895
   49MOL   H76037336   4.916   1.812   6.738  0.3868  0.8842  0.2278
   49MOL   H76137337   4.839   1.589   6.795 -0.3235  1.6499 -0.2704
   49MOL   H76237338   5.154   2.054   6.730  0.5220 -0.0523  0.8699
   50MOL     C137339   1.840   3.685   2.369 -0.0660  0.2323 -1.3105
   50MOL     C237340   1.982   3.719   2.309  0.0787 -0.1889 -0.4515
   50MOL     C337341   1.967   3.846   2.215  0.3661  0.2185 -0.7361
   50MOL     C437342   2.103   3.900   2.158  0.0508  0.0198 -0.2753
   50MOL     C537343   1.864   3.811   2.107  0.1044 -0.3222  0.4546
   50MOL     C637344   1.731   3.776   2.165 -0.0249  0.2447 -0.4066
   50MOL     C737345   1.737   3.655   2.259  0.2803  0.6347  0.5790
   50MOL     C837346   1.596   3.645   2.321 -0.1342 -0.4922  0.8883
   50MOL     O937347   1.588   3.568   2.437 -0.1106 -0.1318  0.6568
   50MOL    C1037348   1.533   3.445   2.424  1.0878 -0.0943  0.0578
   50MOL    O1137349   1.469   3.401   2.323  0.3579 -0.7098  0.0414
   50MOL    C1237350   1.548   3.367   2.549  0.0818  1.3075 -0.5307
   50MOL    C1337351   1.472   3.254   2.581  0.1845  0.6374  0.0820
   50MOL    C1437352   1.500   3.175   2.698 -0.6200 -0.9108  0.3099
   50MOL    C1537353   1.608   3.200   2.780  0.0237 -0.1208  0.2705
   50MOL    C1637354   1.644   3.107   2.894 -0.5208  0.2771 -0.0460
   50MOL    O1737355   1.726   3.141   2.981 -0.0776 -0.3369 -0.2465
   50MOL    O1837356   1.576   2.994   2.896 -0.5175  0.5247 -0.3462
   50MOL    C1937357   1.680   3.311   2.749  0.8021  0.3300 -0.0734
   50MOL    C2037358   1.649   3.396   2.640  1.3326  0.3910  0.0103
   50MOL    H2137359   1.798   3.762   2.435 -0.2820 -0.8148 -0.2001
   50MOL    H2237360   1.850   3.594   2.428  0.2435  0.8904 -0.3396
   50MOL    H2337361   2.013   3.634   2.248 -2.6386 -2.4699  1.2335
   50MOL    H2437362   2.058   3.731   2.387 -0.7692 -0.6484  0.4550
   50MOL    H2537363   1.937   3.929   2.280 -1.4704  0.0717 -1.3587
   50MOL    H2637364   2.176   3.902   2.239  0.2313 -0.0366 -0.4367
   50MOL    H2737365   2.091   4.002   2.122  0.2446 -0.0413 -0.5143
   50MOL    H2837366   1.900   3.728   2.048  3.0917 -0.0653  1.8076
   50MOL    H2937367   1.855   3.892   2.035  0.0940  1.8915  2.8363
   50MOL    H3037368   1.696   3.867   2.213 -0.6901 -0.2293  0.0278
   50MOL    H3137369   1.662   3.765   2.081  0.5058  0.5896 -0.8852
   50MOL    H3237370   1.765   3.564   2.207 -0.4496  0.5362  0.3475
   50MOL    H3337371   1.534   3.617   2.236 -2.1282  0.1311  2.0970
   50MOL    H3437372   1.555   3.742   2.348 -0.6123 -0.5898  0.5347
   50MOL    H3537373   1.387   3.227   2.520  1.7272 -2.0152 -0.9759
   50MOL    H3637374   1.439   3.087   2.714 -1.0571 -0.7927 -0.6500
   50MOL    H3737375   1.763   3.332   2.815  1.2205  1.1204 -0.8298
   50MOL    H3837376   1.716   3.480   2.623  2.5126  0.1094  2.9154
   50MOL    H3937377   2.145   3.850   2.071  1.3605 -1.2622  1.0615
   50MOL    C4037378   1.350   2.724   3.253 -0.7562  0.3404  0.0776
   50MOL    C4137379   1.481   2.764   3.184  0.4277  0.6869 -0.3181
   50MOL    C4237380   1.465   2.866   3.071  0.0711 -0.0094  0.2331
   50MOL    C4337381   1.593   2.903   3.002 -0.3183 -0.5113 -0.0049
   50MOL    C4437382   1.358   2.828   2.966  0.3465  0.3552 -0.1112
   50MOL    C4537383   1.228   2.782   3.038 -0.1243  0.1515  0.2821
   50MOL    C4637384   1.252   2.669   3.147  0.2774 -0.6510 -0.4338
   50MOL    C4737385   1.114   2.632   3.193 -0.1611  0.0499 -0.3766
   50MOL    O4837386   1.040   2.560   3.096 -0.4543  0.0031  0.5438
   50MOL    C4937387   1.063   2.422   3.080  0.4308 -0.3122  0.6508
   50MOL    O5037388   1.136   2.358   3.155 -0.5588 -0.2944  0.1558
   50MOL    C5137389   0.983   2.371   2.961  0.1320  0.4695  0.3359
   50MOL    C5237390   0.902   2.455   2.878 -0.5175  0.4978  0.1787
   50MOL    C5337391   0.852   2.408   2.754  1.3323  0.3496 -0.3220
   50MOL    C5437392   0.885   2.273   2.713  0.5078  0.3816  0.1833
   50MOL    C5537393   0.835   2.211   2.584  0.2744 -0.3279 -0.9545
   50MOL    O5637394   0.773   2.274   2.502 -0.0504 -0.9787 -0.1945
   50MOL    O5737395   0.863   2.083   2.576  0.7433 -0.0557 -0.2168
   50MOL    C5837396   0.964   2.192   2.800 -0.3389 -0.8937 -0.1315
   50MOL    C5937397   1.007   2.237   2.924 -0.0537  0.3464 -0.2243
   50MOL    H6037398   1.311   2.804   3.315  3.0618  0.8786  1.9772
   50MOL    H6137399   1.375   2.640   3.318 -0.5075 -0.8598 -1.5272
   50MOL    H6237400   1.532   2.673   3.154 -0.1356 -1.0020  3.5112
   50MOL    H6337401   1.543   2.809   3.262 -0.4117  0.2733  0.5974
   50MOL    H6437402   1.422   2.955   3.118 -0.5175 -0.8547  1.3097
   50MOL    H6537403   1.667   2.827   2.976 -0.4916 -1.3433  1.8459
   50MOL    H6637404   1.646   2.958   3.079  1.8250  0.2476 -1.9347
   50MOL    H6737405   1.400   2.754   2.898 -0.4030  0.4140 -0.6480
   50MOL    H6837406   1.340   2.907   2.892  0.1170  1.0859  0.7154
   50MOL    H6937407   1.175   2.871   3.071  1.1889  1.1501 -0.2711
   50MOL    H7037408   1.162   2.742   2.962 -0.3270 -0.5747  0.8392
   50MOL    H7137409   1.306   2.588   3.098 -0.3036 -1.4016  0.1499
   50MOL    H7237410   1.062   2.726   3.211 -2.1297 -1.7341  4.3427
   50MOL    H7337411   1.110   2.588   3.293  0.1741  0.3878 -0.2139
   50MOL    H7437412   0.883   2.555   2.913  2.9550  0.5834  2.0651
   50MOL    H7537413   0.801   2.479   2.690  1.3593 -1.3775 -2.3223
   50MOL    H7637414   0.993   2.090   2.776  0.0803 -0.8032 -0.0230
   50MOL    H7737415   1.059   2.169   2.991 -1.9810  0.6834  1.6688
   50MOL    C7837416   0.923   2.002   2.096 -0.1333 -0.3789 -0.8678
   50MOL    C7937417   0.850   1.952   2.216 -0.8416  0.1545 -0.4344
   50MOL    C8037418   0.896   2.037   2.334 -0.5612 -0.4785  0.5624
   50MOL    C8137419   0.818   2.008   2.459  1.2464  0.4285  0.2547
   50MOL    C8237420   1.047   2.018   2.357 -0.3355 -0.0959  0.3010
   50MOL    C8337421   1.128   2.056   2.234 -0.1677  0.2031  0.0388
   50MOL    C8437422   1.078   1.986   2.109  0.1953 -0.0915 -0.0331
   50MOL    C8537423   1.144   2.047   1.987 -0.4015 -0.4088 -0.2015
   50MOL    O8637424   1.284   2.028   1.971 -0.0030  0.7111 -0.2372
   50MOL    C8737425   1.341   2.041   1.850 -0.3903 -0.6016 -0.5172
   50MOL    O8837426   1.284   2.075   1.740 -0.0313  0.2969 -0.6649
   50MOL    C8937427   1.487   2.013   1.856  0.2632  0.9663  0.3820
   50MOL    C9037428   1.559   2.041   1.980  0.0492  0.3335 -0.0027
   50MOL    C9137429   1.693   2.004   1.996 -0.2168  0.1927  0.6623
   50MOL    C9237430   1.756   1.935   1.891 -0.3893 -0.2178  0.0604
   50MOL    C9337431   1.896   1.883   1.915 -0.3599 -0.2679  0.1101
   50MOL    O9437432   1.979   1.935   1.999 -0.3109 -0.7550  0.0827
   50MOL    O9537433   1.926   1.770   1.848 -0.4317  0.3991 -0.2566
   50MOL    C9637434   1.690   1.905   1.771 -0.6886 -0.3830 -0.4842
   50MOL    C9737435   1.558   1.952   1.745 -0.3036 -0.8288  0.0284
   50MOL    H9837436   0.887   2.104   2.084 -2.0806 -1.1739 -1.8805
   50MOL    H9937437   0.878   1.952   2.010 -2.4648  0.2802 -0.0876
   50MOL   H10037438   0.866   1.848   2.248 -1.9427  0.7357  2.0955
   50MOL   H10137439   0.743   1.959   2.198 -0.9844 -0.0803  0.2929
   50MOL   H10237440   0.877   2.143   2.314 -0.0686 -0.6059 -0.6150
   50MOL   H10337441   0.811   1.901   2.479  1.4569  0.5667  1.0596
   50MOL   H10437442   0.712   2.029   2.446  1.1463 -0.3971 -0.3028
   50MOL   H10537443   1.080   1.925   2.402 -1.4354 -0.3153  0.6676
   50MOL   H10637444   1.079   2.100   2.422  2.3246  0.8021 -2.0433
   50MOL   H10737445   1.110   2.163   2.218 -0.4864  0.3882  1.5502
   50MOL   H10837446   1.234   2.038   2.253  0.3979  2.3920 -0.8505
   50MOL   H10937447   1.091   1.878   2.105 -0.9752 -0.2711  0.6791
   50MOL   H11037448   1.124   2.154   1.986  1.6796 -0.0030  0.0255
   50MOL   H11137449   1.089   2.011   1.899 -1.0145 -1.4354  0.5938
   50MOL   H11237450   1.504   2.088   2.059  0.9038  0.1848  0.6924
   50MOL   H11337451   1.744   2.014   2.091 -1.2704 -0.9185  1.3475
   50MOL   H11437452   1.743   1.845   1.699  1.5443 -0.3873  1.1131
   50MOL   H11537453   1.513   1.924   1.650  0.2533 -1.0282 -0.1808
   50MOL   C11637454   2.215   1.372   1.759 -0.2106 -0.0024 -0.4012
   50MOL   C11737455   2.210   1.507   1.831 -0.3384  0.3509  0.1715
   50MOL   C11837456   2.075   1.585   1.793 -0.9137  0.6523  0.6954
   50MOL   C11937457   2.045   1.702   1.884 -0.0183 -0.9777  0.2798
   50MOL   C12037458   2.087   1.616   1.646 -0.0829  0.0846 -0.4334
   50MOL   C12137459   2.098   1.490   1.558  0.5570 -0.3181  0.2653
   50MOL   C12237460   2.210   1.393   1.603  0.0717 -1.1141 -0.1932
   50MOL   C12337461   2.210   1.259   1.524  0.3449  0.0523  0.2016
   50MOL   O12437462   2.330   1.181   1.554 -0.1948 -0.3356 -0.3197
   50MOL   C12537463   2.323   1.082   1.647 -0.1204  0.0442  0.3576
   50MOL   O12637464   2.227   1.050   1.712  0.5397  0.2864 -0.4757
   50MOL   C12737465   2.447   1.010   1.654  0.1814 -0.6532 -0.1500
   50MOL   C12837466   2.433   0.878   1.701 -0.5997 -0.6909 -0.3502
   50MOL   C12937467   2.555   0.801   1.710 -0.0892  0.0566  0.4590
   50MOL   C13037468   2.680   0.848   1.660  0.1802 -0.0055  0.0331
   50MOL   C13137469   2.797   0.754   1.679 -1.3497  0.0039  0.1637
   50MOL   O13237470   2.797   0.635   1.716 -0.2398  0.3060 -0.6804
   50MOL   O13337471   2.909   0.821   1.642  0.4653  0.7475 -0.2689
   50MOL   C13437472   2.679   0.973   1.601 -0.3173 -0.0504  0.5169
   50MOL   C13537473   2.569   1.056   1.598 -0.0438 -0.2742 -0.1387
   50MOL   H13637474   2.133   1.305   1.785 -0.8759  0.2267 -1.8790
   50MOL   H13737475   2.310   1.326   1.789 -0.5284  0.7883  1.8862
   50MOL   H13837476   2.301   1.559   1.800 -0.9333 -0.3372 -2.9893
   50MOL   H13937477   2.200   1.486   1.937  0.5658  1.2910  0.4526
   50MOL   H14037478   1.999   1.508   1.806  2.0102 -2.6984 -1.1060
   50MOL   H14137479   2.129   1.771   1.892  1.2858 -2.4869 -0.2217
   50MOL   H14237480   2.027   1.664   1.984 -1.9635  0.1652  0.3816
   50MOL   H14337481   2.167   1.683   1.613  0.3609 -0.5835 -0.7404
   50MOL   H14437482   1.999   1.679   1.633 -0.2375  0.3092  1.6317
   50MOL   H14537483   2.014   1.421   1.544 -0.0375  0.4569 -0.0036
   50MOL   H14637484   2.118   1.529   1.458  2.8305 -1.7108  0.1276
   50MOL   H14737485   2.305   1.443   1.585 -1.3880  1.7321 -0.1959
   50MOL   H14837486   2.209   1.293   1.420  1.3232 -0.6771 -0.0557
   50MOL   H14937487   2.118   1.203   1.536 -0.0267  0.6712  0.2534
   50MOL   H15037488   2.344   0.826   1.734 -0.1278 -1.4280 -0.2260
   50MOL   H15137489   2.546   0.700   1.748  1.3654 -1.1004 -2.1953
   50MOL   H15237490   2.773   1.011   1.563 -1.2085  0.8349 -0.8592
   50MOL   H15337491   2.584   1.156   1.561  1.2934 -1.3700 -2.6757
   50MOL   C15437492   3.007   0.641   1.252  0.0577  0.0434 -0.3293
   50MOL   C15537493   2.957   0.678   1.392 -0.6035  0.0195  0.3413
   50MOL   C15637494   3.074   0.718   1.486 -0.4479 -1.1047 -0.3707
   50MOL   C15737495   3.041   0.757   1.631 -0.4642 -0.6020  0.7507
   50MOL   C15837496   3.178   0.604   1.484 -0.1562 -0.0746  0.4233
   50MOL   C15937497   3.231   0.569   1.341  0.0273 -0.5796 -0.4485
   50MOL   C16037498   3.115   0.534   1.245  0.4017  0.1310 -0.3917
   50MOL   C16137499   3.167   0.493   1.110 -0.7641  0.6136 -0.0205
   50MOL   O16237500   3.201   0.613   1.036 -0.3836  0.2289  0.1840
   50MOL   C16337501   3.227   0.598   0.904  0.8356 -0.3667  0.0370
   50MOL   O16437502   3.224   0.487   0.853 -0.3589  0.1538 -0.0035
   50MOL   C16537503   3.247   0.724   0.828 -0.5831 -0.8427  1.0647
   50MOL   C16637504   3.335   0.728   0.719 -0.0287  0.4317  0.3695
   50MOL   C16737505   3.349   0.845   0.640 -0.6989  0.5333  0.2565
   50MOL   C16837506   3.282   0.964   0.675 -0.3140  0.1858  0.1677
   50MOL   C16937507   3.300   1.099   0.610 -0.1369 -0.5415 -0.8177
   50MOL   O17037508   3.354   1.109   0.500 -0.1061 -0.3307 -0.1772
   50MOL   O17137509   3.249   1.203   0.675  0.2238 -0.8065 -0.2068
   50MOL   C17237510   3.190   0.960   0.782 -0.2810  0.2584 -0.1172
   50MOL   C17337511   3.170   0.841   0.858 -0.0507 -0.0486  0.4883
   50MOL   H17437512   3.060   0.733   1.224 -0.3384  0.9188  1.7121
   50MOL   H17537513   2.926   0.625   1.181 -1.8874 -0.2425  1.9235
   50MOL   H17637514   2.905   0.586   1.420 -0.4480  0.0381  0.6961
   50MOL   H17737515   2.901   0.772   1.392  1.4351  1.2682 -0.0403
   50MOL   H17837516   3.116   0.811   1.446 -1.6807  0.8561  2.7667
   50MOL   H17937517   3.119   0.820   1.672 -1.2689  0.2651  0.9731
   50MOL   H18037518   3.046   0.663   1.686  1.3198 -1.6068 -1.0486
   50MOL   H18137519   3.134   0.511   1.519  2.3328 -1.6023 -0.3728
   50MOL   H18237520   3.262   0.633   1.548 -0.4899  2.1747 -0.1090
   50MOL   H18337521   3.293   0.644   1.292 -0.2683 -1.8217 -2.8013
   50MOL   H18437522   3.289   0.478   1.349  1.1754  0.2027  0.2346
   50MOL   H18537523   3.065   0.444   1.281 -1.4514  0.7277 -1.3800
   50MOL   H18637524   3.094   0.438   1.050  0.6609 -1.9548  0.5003
   50MOL   H18737525   3.256   0.430   1.117  1.1725  3.2815 -0.0670
   50MOL   H18837526   3.376   0.632   0.693 -0.2143  0.4509 -0.0079
   50MOL   H18937527   3.417   0.832   0.558 -2.2982 -0.6895 -0.9028
   50MOL   H19037528   3.122   1.045   0.786  1.0110  1.2704  0.5547
   50MOL   H19137529   3.093   0.841   0.934 -0.8996  2.2352 -0.3527
   50MOL   C19237530   3.126   1.517   0.938  0.1537 -0.0859  0.0396
   50MOL   C19337531   3.203   1.420   0.850 -0.1086 -0.1092 -0.8034
   50MOL   C19437532   3.172   1.428   0.704  0.0203 -0.0471  1.1712
   50MOL   C19537533   3.255   1.337   0.622  0.2630  0.2394  0.4630
   50MOL   C19637534   3.021   1.422   0.677  0.6620 -0.3480  1.0698
   50MOL   C19737535   2.939   1.525   0.759  0.6534 -0.3332  0.0363
   50MOL   C19837536   2.974   1.502   0.911  0.2619 -0.4711 -0.6013
   50MOL   C19937537   2.903   1.600   1.002 -0.4067  0.0580  0.4515
   50MOL   O20037538   2.766   1.586   0.994 -0.2502  0.1461 -0.1288
   50MOL   C20137539   2.694   1.598   1.107 -0.1529  0.0649  0.1160
   50MOL   O20237540   2.734   1.659   1.205  0.1121  0.0461  0.3873
   50MOL   C20337541   2.560   1.533   1.091 -0.0833 -0.2066  0.1640
   50MOL   C20437542   2.516   1.491   0.964 -0.4754  1.0580 -0.4234
   50MOL   C20537543   2.388   1.440   0.946  0.1194 -0.4428 -0.5177
   50MOL   C20637544   2.293   1.423   1.052  0.1071  0.1833  0.1629
   50MOL   C20737545   2.156   1.371   1.031 -0.6405  0.0019 -0.1723
   50MOL   O20837546   2.106   1.338   0.929 -0.2377 -0.2734  0.2705
   50MOL   O20937547   2.106   1.354   1.153  0.2708  0.9611  0.2693
   50MOL   C21037548   2.339   1.474   1.179  0.3924  0.5991  0.4582
   50MOL   C21137549   2.475   1.522   1.199  0.0283  0.2058 -0.2671
   50MOL   H21237550   3.166   1.617   0.923  1.9321 -0.9614 -1.2538
   50MOL   H21337551   3.130   1.488   1.044 -2.1340  2.6360  0.9070
   50MOL   H21437552   3.192   1.317   0.886  0.6403 -0.1563 -0.6991
   50MOL   H21537553   3.309   1.440   0.858 -0.5089  1.3712  1.1134
   50MOL   H21637554   3.206   1.529   0.682  0.6878 -0.7418 -1.0714
   50MOL   H21737555   3.356   1.377   0.613  0.1137  0.3939 -0.6016
   50MOL   H21837556   3.208   1.336   0.524  0.1694 -3.0576  0.5150
   50MOL   H21937557   2.983   1.323   0.700  0.1986 -0.3513  0.3175
   50MOL   H22037558   2.995   1.439   0.573  0.9302 -0.2902  1.0142
   50MOL   H22137559   2.972   1.621   0.720 -1.4360  0.3341 -0.1574
   50MOL   H22237560   2.834   1.519   0.730  0.5975  1.2051 -0.1031
   50MOL   H22337561   2.948   1.399   0.938  0.3133 -0.2104  0.4518
   50MOL   H22437562   2.927   1.695   0.954 -0.0631 -0.4119 -0.3133
   50MOL   H22537563   2.933   1.596   1.106 -0.4577 -0.3464  0.4501
   50MOL   H22637564   2.567   1.501   0.869  1.9518  0.2878  0.7686
   50MOL   H22737565   2.371   1.411   0.843 -1.6965  0.0468 -0.3720
   50MOL   H22837566   2.275   1.484   1.266  0.8867  2.5204  0.6310
   50MOL   H22937567   2.509   1.570   1.290 -0.7249  1.8781 -0.8444
   50MOL   C23037568   1.790   1.014   1.071  0.6075 -0.0320 -0.7247
   50MOL   C23137569   1.879   1.136   1.067 -0.0078  0.2444  0.4233
   50MOL   C23237570   1.889   1.216   1.200 -0.0131 -0.1829  0.1854
   50MOL   C23337571   1.968   1.347   1.181  0.0386 -0.0489 -0.6220
   50MOL   C23437572   1.754   1.248   1.263 -0.3059 -0.1441 -0.6047
   50MOL   C23537573   1.672   1.120   1.278 -0.1614  0.3183 -0.0237
   50MOL   C23637574   1.660   1.049   1.135 -0.2896 -0.0241 -0.2093
   50MOL   C23737575   1.550   0.937   1.129  0.1358 -0.3132  0.3529
   50MOL   O23837576   1.578   0.845   1.228  0.1514  0.2344 -0.2412
   50MOL   C23937577   1.503   0.735   1.230  0.7612 -0.2202 -0.0182
   50MOL   O24037578   1.399   0.719   1.167  0.0736  0.2228  0.1116
   50MOL   C24137579   1.548   0.638   1.328 -0.6476  0.2893 -0.0446
   50MOL   C24237580   1.480   0.515   1.343  0.1629  0.1996  0.3924
   50MOL   C24337581   1.526   0.424   1.436 -0.2465  0.6080  0.3690
   50MOL   C24437582   1.641   0.453   1.512 -0.1595 -0.5462  0.0335
   50MOL   C24537583   1.696   0.353   1.610 -0.1892  0.3591  0.9503
   50MOL   O24637584   1.791   0.386   1.685  1.0841 -0.3131 -0.8690
   50MOL   O24737585   1.643   0.224   1.613 -0.6503 -0.0528  0.1810
   50MOL   C24837586   1.707   0.569   1.502 -0.3782  0.2894  0.3406
   50MOL   C24937587   1.663   0.664   1.407 -0.1190  0.4463 -0.2166
   50MOL   H25037588   1.840   0.929   1.118 -1.0207  0.4540  1.9616
   50MOL   H25137589   1.760   0.971   0.976  1.7225  0.3487 -1.2556
   50MOL   H25237590   1.832   1.189   0.984 -1.8098 -1.7161  0.1598
   50MOL   H25337591   1.978   1.119   1.026  0.6694  0.3089  1.9925
   50MOL   H25437592   1.945   1.152   1.269  1.3351  0.9618  0.1856
   50MOL   H25537593   1.973   1.417   1.265  1.9021  1.0315 -1.6032
   50MOL   H25637594   1.916   1.414   1.113  1.5292  0.7847 -0.9605
   50MOL   H25737595   1.707   1.316   1.192 -2.9010 -1.8190 -0.5526
   50MOL   H25837596   1.753   1.297   1.361 -1.7050 -1.0905 -0.1327
   50MOL   H25937597   1.720   1.049   1.345 -0.4973  0.4733  0.3830
   50MOL   H26037598   1.571   1.144   1.310 -0.4439 -0.0244 -0.6517
   50MOL   H26137599   1.615   1.129   1.076  1.3829  0.6145 -0.6658
   50MOL   H26237600   1.548   0.884   1.034 -1.7847 -0.7726  0.6373
   50MOL   H26337601   1.451   0.980   1.136  0.2614  0.0203  0.1019
   50MOL   H26437602   1.393   0.494   1.282  0.8991 -0.0911 -0.5777
   50MOL   H26537603   1.463   0.337   1.441 -0.3405  0.7718  2.8172
   50MOL   H26637604   1.787   0.602   1.566 -1.2845 -1.4081  2.4009
   50MOL   H26737605   1.721   0.754   1.413  1.7897 -0.7274 -0.6951
   50MOL   C26837606   1.432   0.184   2.005 -0.3811  0.1379 -0.0825
   50MOL   C26937607   1.540   0.223   1.893  0.2641  0.5052  0.0288
   50MOL   C27037608   1.589   0.096   1.819  0.5082  0.0291 -0.3686
   50MOL   C27137609   1.692   0.130   1.705 -0.1617  0.0200  0.4809
   50MOL   C27237610   1.645   8.023   1.915 -0.1775 -0.4582 -0.6155
   50MOL   C27337611   1.546   7.988   2.030  0.5359 -0.2006 -0.1552
   50MOL   C27437612   1.492   0.080   2.107  0.3694 -0.5460  0.3146
   50MOL   C27537613   1.386   0.032   2.212 -0.2689 -0.4838  0.1920
   50MOL   O27637614   1.359   0.147   2.298 -0.5603  0.4520 -0.8895
   50MOL   C27737615   1.240   0.218   2.295  0.6595  0.2028  0.7081
   50MOL   O27837616   1.153   0.193   2.208  0.6539  0.2543 -0.6712
   50MOL   C27937617   1.235   0.330   2.388  0.3564 -0.4712 -0.5979
   50MOL   C28037618   1.117   0.410   2.393 -0.2783 -0.0161  0.3029
   50MOL   C28137619   1.104   0.518   2.487 -0.0216  0.3165 -0.0843
   50MOL   C28237620   1.210   0.545   2.574  0.2157 -0.4652 -0.1952
   50MOL   C28337621   1.191   0.643   2.686 -0.2142  0.1742  0.0638
   50MOL   O28437622   1.079   0.674   2.730  0.0739 -0.3653 -0.5527
   50MOL   O28537623   1.303   0.705   2.730 -0.7741 -0.2834  0.2609
   50MOL   C28637624   1.332   0.467   2.565  0.0657  0.7902  0.5024
   50MOL   C28737625   1.340   0.354   2.483  0.4160  0.5760  0.4909
   50MOL   H28837626   1.343   0.140   1.959 -0.9492  0.5480  0.6059
   50MOL   H28937627   1.400   0.277   2.051  1.9118  0.7943  0.2299
   50MOL   H29037628   1.627   0.276   1.934 -0.0451 -0.3009  1.7556
   50MOL   H29137629   1.499   0.299   1.826 -3.4530 -3.3003 -2.1892
   50MOL   H29237630   1.500   0.060   1.768 -0.6233  0.2634  1.4022
   50MOL   H29337631   1.713   0.044   1.642  0.2464  0.6090 -0.2018
   50MOL   H29437632   1.782   0.144   1.765 -0.6863  1.1770  1.0143
   50MOL   H29537633   1.735   0.029   1.964 -1.2480  2.5618 -0.8914
   50MOL   H29637634   1.680   7.931   1.869 -1.1201 -0.6445 -0.9708
   50MOL   H29737635   1.463   7.931   1.990  0.0475  0.3470  0.0600
   50MOL   H29837636   1.606   7.927   2.098 -0.3432  0.7826  1.5252
   50MOL   H29937637   1.570   0.135   2.161 -1.4384  2.0406  0.4019
   50MOL   H30037638   1.422   7.982   2.274 -1.0796  0.3724  1.8411
   50MOL   H30137639   1.293   8.032   2.166 -1.3193  2.2699  0.3023
   50MOL   H30237640   1.029   0.388   2.333  0.0292  0.1875 -0.2259
   50MOL   H30337641   1.006   0.563   2.492 -0.1735 -0.1210  0.8835
   50MOL   H30437642   1.412   0.504   2.628 -0.0148  1.4388  0.2283
   50MOL   H30537643   1.434   0.302   2.493  0.8532  1.0220 -1.0480
   50MOL   C30637644   1.683   0.798   2.936 -0.1074  0.1422  0.0097
   50MOL   C30737645   1.547   0.740   2.881  0.9061  0.4209  0.2459
   50MOL   C30837646   1.444   0.854   2.859 -1.0136  0.1853  0.0200
   50MOL   C30937647   1.302   0.815   2.816  0.4793 -0.7319  0.5959
   50MOL   C31037648   1.435   0.929   2.994 -0.0893 -0.1338  1.2652
   50MOL   C31137649   1.569   0.977   3.048 -0.1394  0.0018  0.2649
   50MOL   C31237650   1.664   0.862   3.074  0.3286 -0.4230  0.5636
   50MOL   C31337651   1.794   0.906   3.147  0.3564  0.5763 -0.2297
   50MOL   O31437652   1.867   1.003   3.071 -0.1643 -0.2220 -0.0749
   50MOL   C31537653   1.888   1.125   3.125 -0.7917  0.5360  0.6997
   50MOL   O31637654   1.889   1.143   3.244  0.6540  0.0029  0.0823
   50MOL   C31737655   1.919   1.228   3.014 -0.1724  0.7381  0.0188
   50MOL   C31837656   1.977   1.353   3.058  0.3715  0.2115  0.5444
   50MOL   C31937657   1.992   1.458   2.962  0.9885 -0.6515  0.3562
   50MOL   C32037658   1.965   1.434   2.826  0.4434 -0.7660 -0.4134
   50MOL   C32137659   1.986   1.544   2.725  0.1023 -0.0387  0.1347
   50MOL   O32237660   1.932   1.539   2.614  0.8490  0.6124  0.2000
   50MOL   O32337661   2.069   1.640   2.768  0.3459 -0.1138  0.1017
   50MOL   C32437662   1.913   1.311   2.787  0.2099 -0.0954 -0.0881
   50MOL   C32537663   1.898   1.204   2.880 -0.2722 -0.4587  0.1054
   50MOL   H32637664   1.735   0.869   2.871  1.0107 -1.6627 -1.0934
   50MOL   H32737665   1.760   0.721   2.944  1.3196  1.6675  1.6206
   50MOL   H32837666   1.507   0.656   2.938 -0.3996 -1.6330 -3.5308
   50MOL   H32937667   1.564   0.695   2.783 -2.4038  0.5748 -0.4608
   50MOL   H33037668   1.482   0.930   2.790  0.5541 -0.4020  0.2341
   50MOL   H33137669   1.241   0.901   2.786  0.3136 -1.1288 -0.2137
   50MOL   H33237670   1.257   0.772   2.906  0.3331  0.1703  0.9583
   50MOL   H33337671   1.394   0.871   3.076  0.3210 -2.1681  0.0465
   50MOL   H33437672   1.373   1.018   2.976 -2.6114 -2.5898 -3.0956
   50MOL   H33537673   1.616   1.040   2.973  0.7138 -1.7713 -0.7433
   50MOL   H33637674   1.559   1.033   3.141  1.1004  0.3583  0.1904
   50MOL   H33737675   1.626   0.780   3.133  1.6588 -0.2867  1.6312
   50MOL   H33837676   1.872   0.830   3.159  1.8729  2.4157  1.7792
   50MOL   H33937677   1.778   0.943   3.248  0.3528  3.9650 -1.4259
   50MOL   H34037678   2.009   1.359   3.161  1.7524  0.5700  0.1031
   50MOL   H34137679   2.025   1.549   3.011  1.8178 -1.0079  0.4800
   50MOL   H34237680   1.890   1.290   2.684 -0.5201 -1.7535  0.3990
   50MOL   H34337681   1.848   1.117   2.842  0.3765 -2.0326  2.6814
   50MOL   C34437682   2.428   1.954   2.664  0.3507 -0.3477  0.2936
   50MOL   C34537683   2.287   1.920   2.647  0.2939  0.1008  0.6170
   50MOL   C34637684   2.250   1.792   2.732 -0.2053 -0.8496 -0.2740
   50MOL   C34737685   2.118   1.739   2.677 -0.0982 -0.4060  0.5465
   50MOL   C34837686   2.352   1.673   2.721  0.5070  0.5358 -0.0079
   50MOL   C34937687   2.494   1.724   2.718  0.4659  0.4076  0.1751
   50MOL   C35037688   2.514   1.838   2.618 -0.5050 -0.8583 -0.0542
   50MOL   C35137689   2.666   1.864   2.597 -0.5204  0.1815 -0.5226
   50MOL   O35237690   2.679   1.942   2.481 -0.0486  0.0608  0.3330
   50MOL   C35337691   2.793   1.937   2.419 -0.2298  0.3884  0.5586
   50MOL   O35437692   2.886   1.863   2.455  0.6989 -0.2964  0.4480
   50MOL   C35537693   2.795   2.024   2.295 -0.4333 -0.1951 -0.1900
   50MOL   C35637694   2.687   2.114   2.262 -0.0710 -0.6609 -0.1945
   50MOL   C35737695   2.678   2.186   2.141 -0.3794 -0.1966  0.6166
   50MOL   C35837696   2.782   2.172   2.051 -0.3336  0.3627  0.7391
   50MOL   C35937697   2.779   2.255   1.924  0.3571  1.0984  0.6877
   50MOL   O36037698   2.834   2.226   1.818  0.3589 -0.1134  0.1810
   50MOL   O36137699   2.706   2.369   1.936  0.2794  0.8416  0.0658
   50MOL   C36237700   2.897   2.088   2.081 -0.2233  0.2816  0.8159
   50MOL   C36337701   2.902   2.015   2.202  0.1966 -0.2345  0.3643
   50MOL   H36437702   2.469   2.002   2.753 -0.3858  1.5313 -0.3525
   50MOL   H36537703   2.446   2.042   2.602  1.7141 -1.5256 -1.0124
   50MOL   H36637704   2.257   1.907   2.543 -1.9304  0.8566  1.1233
   50MOL   H36737705   2.228   2.000   2.692  0.6851  1.6249 -1.5158
   50MOL   H36837706   2.234   1.817   2.837  2.3919  1.1746 -0.3109
   50MOL   H36937707   2.122   1.692   2.578  1.6486 -1.2308  0.9868
   50MOL   H37037708   2.045   1.819   2.664 -0.8977 -1.0896  0.8062
   50MOL   H37137709   2.332   1.611   2.634 -0.1245  1.2314 -0.3627
   50MOL   H37237710   2.329   1.616   2.811  1.1382 -0.2098 -0.3219
   50MOL   H37337711   2.509   1.758   2.820 -1.1768 -1.5829  1.1197
   50MOL   H37437712   2.562   1.638   2.718 -1.0421 -0.8136  1.0975
   50MOL   H37537713   2.476   1.806   2.521 -0.2933  1.0010 -0.7685
   50MOL   H37637714   2.715   1.768   2.584 -2.1069 -0.5763 -1.0610
   50MOL   H37737715   2.708   1.914   2.684 -0.7690 -1.9084  0.8345
   50MOL   H37837716   2.611   2.113   2.339 -0.6507  1.2597 -0.7074
   50MOL   H37937717   2.582   2.235   2.130  1.0823  2.4583 -0.7926
   50MOL   H38037718   2.976   2.083   2.007 -0.1580  1.3512  0.8048
   50MOL   H38137719   2.987   1.951   2.222  1.3041  0.4493 -2.0548
   50MOL   C38237720   2.477   2.789   1.798  0.2164  0.2278 -0.0960
   50MOL   C38337721   2.594   2.699   1.759 -0.2989  1.0739 -0.3699
   50MOL   C38437722   2.604   2.582   1.857 -0.3347 -0.5988 -0.0936
   50MOL   C38537723   2.691   2.457   1.820  0.2048  0.7609 -0.2012
   50MOL   C38637724   2.635   2.643   1.991  0.4896 -0.3655  0.0219
   50MOL   C38737725   2.518   2.731   2.036  0.2040 -0.6861 -0.7441
   50MOL   C38837726   2.496   2.845   1.938  0.4011  0.4654 -0.0509
   50MOL   C38937727   2.387   2.948   1.983 -0.0835  0.0540 -0.1380
   50MOL   O39037728   2.269   2.874   2.005  0.6337 -0.0558 -0.1344
   50MOL   C39137729   2.170   2.846   1.912  0.0369 -0.4685  0.0189
   50MOL   O39237730   2.167   2.906   1.803 -0.4824 -0.3500  0.3735
   50MOL   C39337731   2.066   2.751   1.960  0.3088 -0.0476 -0.0112
   50MOL   C39437732   1.937   2.756   1.909  0.6102 -0.7502 -0.6030
   50MOL   C39537733   1.837   2.671   1.953  0.8782  0.6026  0.3220
   50MOL   C39637734   1.862   2.575   2.051 -0.2904 -0.3529 -0.3032
   50MOL   C39737735   1.760   2.472   2.087  0.1675 -0.3434  0.1232
   50MOL   O39837736   1.777   2.387   2.177  0.2928 -0.1399 -0.0441
   50MOL   O39937737   1.649   2.478   2.009  0.2758  0.6186  0.2456
   50MOL   C40037738   1.990   2.572   2.112 -0.2541  0.1983 -0.1805
   50MOL   C40137739   2.095   2.656   2.064 -0.0934 -0.9790 -0.4952
   50MOL   H40237740   2.381   2.742   1.778  1.9764 -3.6348  0.1621
   50MOL   H40337741   2.484   2.863   1.718  0.3359 -0.7357 -0.9926
   50MOL   H40437742   2.686   2.757   1.751 -0.8290  1.7401 -1.6225
   50MOL   H40537743   2.578   2.663   1.657 -0.7072 -0.7951  0.3249
   50MOL   H40637744   2.509   2.530   1.865 -1.3490  1.1443 -0.5421
   50MOL   H40737745   2.792   2.488   1.792 -0.0612  0.4778 -1.4999
   50MOL   H40837746   2.648   2.395   1.742  0.2373  0.7449 -0.2068
   50MOL   H40937747   2.731   2.694   1.994  0.7555 -0.7745 -1.2064
   50MOL   H41037748   2.645   2.566   2.068 -0.0310 -0.1634  0.2918
   50MOL   H41137749   2.430   2.668   2.046  0.9176 -1.5190  0.5389
   50MOL   H41237750   2.549   2.771   2.133 -2.1483 -0.9852  0.1702
   50MOL   H41337751   2.588   2.903   1.936  1.4764 -1.2077 -0.0078
   50MOL   H41437752   2.365   3.024   1.908  0.0800  0.8672  0.6393
   50MOL   H41537753   2.400   3.003   2.076 -0.6597 -1.1204  0.6609
   50MOL   H41637754   1.915   2.828   1.832  1.5924  0.5278  0.2814
   50MOL   H41737755   1.738   2.685   1.912  1.6919  3.6219 -0.7712
   50MOL   H41837756   2.004   2.503   2.194 -0.4472  1.8104  1.2426
   50MOL   H41937757   2.195   2.645   2.104 -0.1221 -0.0918 -0.1757
   50MOL   C42037758   1.157   2.422   2.007 -0.3124  0.3858 -0.1649
   50MOL   C42137759   1.297   2.372   2.051 -0.0987 -0.4414  0.2030
   50MOL   C42237760   1.405   2.449   1.978 -0.0882  0.1029  0.2193
   50MOL   C42337761   1.540   2.393   2.027  0.6750  0.2586 -0.1706
   50MOL   C42437762   1.388   2.437   1.824  0.0470 -0.1465  0.9288
   50MOL   C42537763   1.246   2.473   1.776 -0.4300 -0.0986 -0.0629
   50MOL   C42637764   1.130   2.407   1.853  0.3192  0.0075  0.8706
   50MOL   C42737765   0.988   2.461   1.811  0.1934 -0.1737  0.1010
   50MOL   O42837766   0.877   2.395   1.873 -0.1354  0.1807 -0.5967
   50MOL   C42937767   0.832   2.425   1.995  0.7885  0.4895 -0.0269
   50MOL   O43037768   0.878   2.515   2.068 -0.1062  0.3715 -0.3617
   50MOL   C43137769   0.716   2.343   2.034  0.7079 -0.5499 -0.1054
   50MOL   C43237770   0.671   2.228   1.965  0.1909 -0.0381  0.2579
   50MOL   C43337771   0.577   2.143   2.012 -0.8079 -0.2775 -0.0814
   50MOL   C43437772   0.507   2.181   2.132 -0.8827  0.7264  0.2816
   50MOL   C43537773   0.399   2.090   2.184 -0.9082  0.3867 -0.1339
   50MOL   O43637774   0.336   2.007   2.122  0.0904 -0.1048 -0.6937
   50MOL   O43737775   0.370   2.115   2.315  0.1936  0.0315  0.7694
   50MOL   C43837776   0.548   2.292   2.208 -0.6172 -0.4389 -0.2730
   50MOL   C43937777   0.659   2.368   2.164 -0.2422 -0.0950  0.6398
   50MOL   H44037778   1.145   2.524   2.044 -0.7509  0.4940 -0.5979
   50MOL   H44137779   1.091   2.358   2.065  0.8116  0.2682  0.9866
   50MOL   H44237780   1.306   2.268   2.019 -2.8304 -0.5547 -0.3773
   50MOL   H44337781   1.303   2.382   2.159  0.9293  3.8733 -0.1514
   50MOL   H44437782   1.397   2.551   2.015  1.5226 -0.4489  2.2086
   50MOL   H44537783   1.556   2.292   1.989 -2.0064  0.3899 -1.7530
   50MOL   H44637784   1.540   2.382   2.135 -0.7889  0.8880 -0.1005
   50MOL   H44737785   1.402   2.332   1.800  0.0078  0.2495 -0.9120
   50MOL   H44837786   1.457   2.497   1.765 -0.4653  0.2731  0.7479
   50MOL   H44937787   1.237   2.581   1.792  1.0196  0.1980 -1.1607
   50MOL   H45037788   1.244   2.462   1.668 -0.4057  1.9417 -0.2927
   50MOL   H45137789   1.130   2.301   1.826  0.2272  0.1194  0.4154
   50MOL   H45237790   0.967   2.464   1.705 -1.0975 -0.6536  0.3411
   50MOL   H45337791   0.972   2.563   1.849 -0.2906 -0.3261  0.3145
   50MOL   H45437792   0.712   2.220   1.866 -0.9159  1.5401 -0.3500
   50MOL   H45537793   0.544   2.057   1.955  1.9540 -0.7909 -0.9654
   50MOL   H45637794   0.499   2.308   2.303  0.4697  0.0221  0.2165
   50MOL   H45737795   0.702   2.433   2.239 -1.0232  0.0389  0.9746
   50MOL   C45837796   0.372   1.664   2.496  0.5497  0.2027 -0.2281
   50MOL   C45937797   0.282   1.781   2.456  0.0255 -0.4579  0.0366
   50MOL   C46037798   0.367   1.912   2.436  0.5336 -0.5211 -0.2935
   50MOL   C46137799   0.287   2.031   2.389 -0.2434  0.7105  0.9121
   50MOL   C46237800   0.452   1.936   2.563 -0.8719 -0.1918  0.0283
   50MOL   C46337801   0.543   1.821   2.586  0.0950  0.0825 -0.2676
   50MOL   C46437802   0.466   1.691   2.617  0.5550  0.4425  0.4797
   50MOL   C46537803   0.553   1.566   2.651  0.7627  0.6384  0.3955
   50MOL   O46637804   0.659   1.563   2.553  0.2701  0.2462 -0.3771
   50MOL   C46737805   0.672   1.464   2.468  0.3646 -0.3418  0.0300
   50MOL   O46837806   0.594   1.374   2.450  0.0593 -0.0241  0.6689
   50MOL   C46937807   0.798   1.482   2.388 -1.0989 -0.2593 -0.1727
   50MOL   C47037808   0.904   1.569   2.416 -0.6794  0.2953 -0.4006
   50MOL   C47137809   1.011   1.584   2.322  0.4121 -0.4736  0.4670
   50MOL   C47237810   1.023   1.499   2.209  0.2179  1.3309  0.3895
   50MOL   C47337811   1.135   1.509   2.110  0.4948  0.6042 -0.0636
   50MOL   O47437812   1.164   1.425   2.022 -0.6613  0.0498  0.5340
   50MOL   O47537813   1.199   1.618   2.140 -0.2300  0.5586  0.4864
   50MOL   C47637814   0.920   1.406   2.183  0.2600  0.5902 -0.3893
   50MOL   C47737815   0.817   1.395   2.275  0.0795  0.0161 -0.0456
   50MOL   H47837816   0.427   1.646   2.403 -2.7537  2.8538 -2.8049
   50MOL   H47937817   0.308   1.578   2.516  2.0715 -1.7655 -3.3027
   50MOL   H48037818   0.208   1.797   2.535  0.6630  0.6990  0.4112
   50MOL   H48137819   0.214   1.761   2.374  1.0243  0.3567 -1.0022
   50MOL   H48237820   0.441   1.891   2.359  0.7818 -0.1787 -0.1509
   50MOL   H48337821   0.256   2.090   2.475  1.4342 -0.7798  2.5606
   50MOL   H48437822   0.210   1.980   2.331  1.1025 -1.9028  1.3384
   50MOL   H48537823   0.393   1.957   2.653 -2.7612  1.8489 -1.6084
   50MOL   H48637824   0.517   2.022   2.545 -3.1617  2.1225  2.2479
   50MOL   H48737825   0.605   1.816   2.497  0.1078 -0.4515 -0.2332
   50MOL   H48837826   0.611   1.844   2.668 -0.1526  1.0935 -0.3430
   50MOL   H48937827   0.401   1.703   2.703  3.3257  1.9256  2.4481
   50MOL   H49037828   0.487   1.479   2.651  1.6947 -0.1271 -1.7782
   50MOL   H49137829   0.600   1.566   2.749  0.7488  0.6204  0.4021
   50MOL   H49237830   0.909   1.633   2.502  1.7818  0.2102 -0.4413
   50MOL   H49337831   1.080   1.663   2.348  1.0188  0.5206 -3.7822
   50MOL   H49437832   0.915   1.335   2.103  2.4005 -0.8614  0.7208
   50MOL   H49537833   0.732   1.330   2.254  0.5107  0.1385 -2.2952
   50MOL   C49637834   1.616   1.637   2.299  0.8766 -0.1888  0.3342
   50MOL   C49737835   1.483   1.678   2.243  0.1889 -0.5578 -0.1321
   50MOL   C49837836   1.445   1.607   2.114 -0.1661  0.2038  0.2329
   50MOL   C49937837   1.313   1.661   2.068 -0.0974  0.8489 -0.1870
   50MOL   C50037838   1.563   1.606   2.009 -0.0747 -0.3027 -0.0555
   50MOL   C50137839   1.698   1.564   2.069  0.0863  0.0216  0.4359
   50MOL   C50237840   1.731   1.648   2.198  0.3122  0.1030 -0.7824
   50MOL   C50337841   1.864   1.600   2.266  0.7353  0.1550 -0.3096
   50MOL   O50437842   1.844   1.475   2.326  0.0680  0.6050  0.5289
   50MOL   C50537843   1.912   1.371   2.284  0.1051 -0.4241 -0.5366
   50MOL   O50637844   2.008   1.375   2.204 -0.1541 -0.3339  0.1159
   50MOL   C50737845   1.861   1.243   2.346  0.0632  0.7750  0.2292
   50MOL   C50837846   1.758   1.243   2.439 -0.3372 -0.3436  0.0252
   50MOL   C50937847   1.705   1.123   2.482  0.5080  0.9968 -0.0958
   50MOL   C51037848   1.748   0.995   2.430  0.7585 -0.1735 -0.1397
   50MOL   C51137849   1.670   0.875   2.467 -0.1911 -0.6658  0.1354
   50MOL   O51237850   1.563   0.877   2.527 -0.1685 -0.0884 -0.6982
   50MOL   O51337851   1.720   0.769   2.411  0.1770  0.5471  0.0718
   50MOL   C51437852   1.853   0.995   2.331  0.2640 -0.3468 -0.0017
   50MOL   C51537853   1.905   1.119   2.292 -0.4092  0.1929 -0.3763
   50MOL   H51637854   1.610   1.538   2.343  1.2919  0.5032  1.9643
   50MOL   H51737855   1.641   1.699   2.385  0.1102 -0.0389  0.4521
   50MOL   H51837856   1.480   1.786   2.228  1.1906 -0.5121 -0.0180
   50MOL   H51937857   1.405   1.674   2.319 -0.0940  1.4420 -0.2856
   50MOL   H52037858   1.413   1.507   2.145  0.0481  0.2662  0.6629
   50MOL   H52137859   1.323   1.627   1.965  2.8931 -0.4860  0.4855
   50MOL   H52237860   1.311   1.770   2.065 -1.3827  0.8206 -0.9481
   50MOL   H52337861   1.580   1.706   1.970  3.1215 -0.3921  0.9823
   50MOL   H52437862   1.535   1.548   1.921  2.1133  0.1634 -1.0656
   50MOL   H52537863   1.683   1.461   2.100  0.6541 -0.7611 -1.7752
   50MOL   H52637864   1.773   1.573   1.991  2.0238  0.0375  2.2747
   50MOL   H52737865   1.730   1.753   2.170 -1.8957 -0.6367 -3.8047
   50MOL   H52837866   1.880   1.671   2.346  1.0930 -0.0679 -0.1816
   50MOL   H52937867   1.955   1.606   2.206  0.2274  0.5065 -1.0547
   50MOL   H53037868   1.720   1.327   2.496  0.9053 -0.4778  1.0572
   50MOL   H53137869   1.620   1.127   2.550 -0.9064  1.1452 -1.8446
   50MOL   H53237870   1.894   0.902   2.294 -0.3627  0.3768 -2.6107
   50MOL   H53337871   1.988   1.126   2.224  0.5735 -1.2005  0.6369
   50MOL   C53437872   1.582   0.615   2.005  0.8408 -0.3696  0.7434
   50MOL   C53537873   1.664   0.623   2.137 -0.6249  0.4031 -0.8210
   50MOL   C53637874   1.577   0.626   2.264 -0.0010  0.4108 -0.2944
   50MOL   C53737875   1.647   0.644   2.401 -0.3258  0.4626 -0.4421
   50MOL   C53837876   1.444   0.713   2.252 -0.3681 -0.0727 -0.3720
   50MOL   C53937877   1.368   0.688   2.124 -0.3220 -0.1299 -0.3546
   50MOL   C54037878   1.455   0.705   2.002 -0.3807  0.0242 -0.0239
   50MOL   C54137879   1.378   0.679   1.876  0.3201  0.4819  0.7598
   50MOL   O54237880   1.307   0.560   1.874 -0.1403  0.1713 -0.5400
   50MOL   C54337881   1.293   0.481   1.762 -0.6330 -0.2462 -0.0159
   50MOL   O54437882   1.357   0.492   1.655 -0.1554  0.7722  0.2984
   50MOL   C54537883   1.199   0.364   1.783  0.0462 -0.7629 -0.2888
   50MOL   C54637884   1.129   0.346   1.905  0.2462 -0.3309 -0.2985
   50MOL   C54737885   1.018   0.262   1.910  0.6637 -0.3332  0.3681
   50MOL   C54837886   0.986   0.182   1.798 -0.2384  0.5934 -0.2199
   50MOL   C54937887   0.874   0.088   1.812 -0.4339  0.3628  0.6809
   50MOL   O55037888   0.819   0.025   1.721  0.5751  0.0121 -0.3171
   50MOL   O55137889   0.824   0.089   1.933  0.1084  0.0642 -0.0967
   50MOL   C55237890   1.068   0.196   1.677  0.1771  0.3460 -0.1869
   50MOL   C55337891   1.165   0.292   1.672  0.1817  0.0752  0.3878
   50MOL   H55437892   1.558   0.509   1.996 -0.1511 -0.1256  0.4883
   50MOL   H55537893   1.646   0.629   1.918  2.1968  1.4397  1.9949
   50MOL   H55637894   1.713   0.720   2.128 -1.2703  0.5787 -2.6531
   50MOL   H55737895   1.743   0.550   2.154 -0.7918  0.3655 -0.1691
   50MOL   H55837896   1.548   0.521   2.263  0.3773  0.2731  1.2087
   50MOL   H55937897   1.711   0.558   2.419 -0.1862  0.9258  1.3103
   50MOL   H56037898   1.580   0.634   2.486  3.3167  1.3765  2.6398
   50MOL   H56137899   1.473   0.818   2.251  0.9961 -0.4381 -1.0396
   50MOL   H56237900   1.377   0.697   2.336 -0.3197  2.5492  0.1886
   50MOL   H56337901   1.323   0.589   2.116 -1.1339  0.3251 -1.5365
   50MOL   H56437902   1.282   0.755   2.119  1.5178  2.5681  2.2559
   50MOL   H56537903   1.477   0.812   2.002 -0.7889  0.1182  1.4826
   50MOL   H56637904   1.457   0.685   1.801  0.0923  1.3230  0.5776
   50MOL   H56737905   1.309   0.760   1.851 -1.7162 -1.2975  0.5556
   50MOL   H56837906   1.159   0.381   2.002 -1.7178 -3.0016  1.3326
   50MOL   H56937907   0.966   0.261   2.005 -0.4675 -2.0776 -0.2488
   50MOL   H57037908   1.035   0.152   1.585  2.1595 -1.1426 -0.2095
   50MOL   H57137909   1.209   0.312   1.576 -0.3958 -1.2093 -0.1503
   50MOL   C57237910   0.592   0.300   2.216 -0.6146  0.1996  0.4529
   50MOL   C57337911   0.640   0.232   2.088 -0.9431  0.2193  0.4610
   50MOL   C57437912   0.664   0.083   2.106 -0.0939  0.0115  0.2610
   50MOL   C57537913   0.705   0.015   1.970 -0.3927 -0.0526 -0.2172
   50MOL   C57637914   0.764   0.051   2.219  0.2207 -0.0714 -0.3774
   50MOL   C57737915   0.721   0.125   2.349 -0.3309 -0.4169 -0.4238
   50MOL   C57837916   0.691   0.276   2.329 -0.4854  1.0961  0.6489
   50MOL   C57937917   0.653   0.361   2.457 -0.5224 -0.2611 -0.5537
   50MOL   O58037918   0.760   0.358   2.551  0.3075 -0.0811  0.6093
   50MOL   C58137919   0.750   0.436   2.653  0.5220  0.3093 -0.0773
   50MOL   O58237920   0.677   0.536   2.655 -0.6562  0.0589 -0.1192
   50MOL   C58337921   0.822   0.379   2.761  1.0462 -0.7230 -0.7269
   50MOL   C58437922   0.944   0.301   2.737  0.1032  0.2004  0.0069
   50MOL   C58537923   1.018   0.239   2.843  0.8598 -0.5214  0.3069
   50MOL   C58637924   0.967   0.249   2.973 -0.2266  0.1215  0.8827
   50MOL   C58737925   1.031   0.160   3.075 -0.2638 -0.0708 -0.1265
   50MOL   O58837926   1.128   0.085   3.052  0.8980 -0.1436  0.4814
   50MOL   O58937927   0.975   0.171   3.196  0.4473 -0.7116  0.3732
   50MOL   C59037928   0.863   0.344   3.006  0.4936 -1.4899  0.4703
   50MOL   C59137929   0.791   0.401   2.894  0.4163  0.0598  0.1378
   50MOL   H59237930   0.494   0.269   2.251 -0.4950  0.1392  0.7389
   50MOL   H59337931   0.596   0.406   2.192  3.2214 -0.0221 -0.2091
   50MOL   H59437932   0.730   0.285   2.057 -1.7640  0.8481 -0.9089
   50MOL   H59537933   0.562   0.228   2.012 -0.0109 -1.2935 -0.4443
   50MOL   H59637934   0.567   0.044   2.137  0.4169  0.1723  2.0763
   50MOL   H59737935   0.624   0.023   1.898 -1.3347  2.3217  1.0658
   50MOL   H59837936   0.733   7.942   1.981  1.0923  0.5012  1.7183
   50MOL   H59937937   0.860   0.097   2.194  0.3799  0.5608  1.3197
   50MOL   H60037938   0.778   7.975   2.225  2.6498  0.1664 -1.3153
   50MOL   H60137939   0.638   0.078   2.402  1.2795  0.4832  3.0609
   50MOL   H60237940   0.810   0.115   2.411 -1.9976 -0.7969  1.9681
   50MOL   H60337941   0.787   0.319   2.302  0.3314 -0.6506  0.6983
   50MOL   H60437942   0.560   0.312   2.486 -1.5160 -0.8223 -4.3796
   50MOL   H60537943   0.613   0.458   2.425 -0.5774 -0.4669 -1.1279
   50MOL   H60637944   0.996   0.291   2.643  0.4226  1.8428 -0.0009
   50MOL   H60737945   1.107   0.181   2.820  1.5783  0.7609 -0.2094
   50MOL   H60837946   0.828   0.362   3.106 -0.3222  0.5376 -0.1717
   50MOL   H60937947   0.701   0.454   2.923  1.1409  0.4019  1.8216
   50MOL   C61037948   1.319   0.070   3.558 -0.1163  0.3769 -0.1418
   50MOL   C61137949   1.196   0.025   3.477  0.2006  0.5173 -0.4124
   50MOL   C61237950   1.148   0.133   3.382 -0.7268  0.1450  0.1576
   50MOL   C61337951   1.023   0.087   3.299  0.2790 -0.2283  0.1523
   50MOL   C61437952   1.120   0.269   3.453  0.2510 -0.3957  0.2027
   50MOL   C61537953   1.251   0.309   3.532  0.1773  0.0962  0.2241
   50MOL   C61637954   1.284   0.195   3.637  0.2462  0.1770 -1.0470
   50MOL   C61737955   1.411   0.237   3.723  0.0224  0.4322  0.0780
   50MOL   O61837956   1.406   0.161   3.847  0.1339  0.5488 -0.4061
   50MOL   C61937957   1.469   0.211   3.950  0.8996  0.2792 -0.1835
   50MOL   O62037958   1.532   0.316   3.949 -0.6048 -0.3099 -0.0943
   50MOL   C62137959   1.432   0.132   4.071 -0.4986  0.3162  0.0034
   50MOL   C62237960   1.456   0.177   4.204  0.6292  0.0778  0.1148
   50MOL   C62337961   1.423   0.101   4.318 -0.2663 -0.1968 -0.3023
   50MOL   C62437962   1.355   8.013   4.300  0.2165  0.0840  0.3319
   50MOL   C62537963   1.303   7.935   4.417 -0.6020 -0.4110 -0.9002
   50MOL   O62637964   1.244   7.827   4.395  0.3627 -0.0552 -0.3476
   50MOL   O62737965   1.335   7.993   4.530 -0.0038  0.0770  0.2812
   50MOL   C62837966   1.335   7.962   4.174 -1.0294 -0.0938 -0.4105
   50MOL   C62937967   1.376   0.006   4.061  0.1154 -0.1054  0.1994
   50MOL   H63037968   1.404   0.077   3.489 -0.6238  1.7099 -0.6537
   50MOL   H63137969   1.341   8.022   3.628 -1.1972  1.0087  0.9257
   50MOL   H63237970   1.117   8.019   3.543  0.3034  2.0580  0.6369
   50MOL   H63337971   1.225   7.964   3.429  1.6484  0.1333  1.1684
   50MOL   H63437972   1.230   0.147   3.312 -1.0200  0.3764 -0.1426
   50MOL   H63537973   0.939   0.062   3.365  0.2495 -1.5519 -0.3711
   50MOL   H63637974   1.055   8.024   3.254  1.0299  0.7106 -1.3156
   50MOL   H63737975   1.041   0.256   3.527  0.9238  2.1043  1.4103
   50MOL   H63837976   1.092   0.330   3.368 -0.2466  1.0194  1.3721
   50MOL   H63937977   1.330   0.322   3.458 -0.3051  1.2196 -0.1035
   50MOL   H64037978   1.232   0.404   3.581  1.2931  0.7626 -0.6052
   50MOL   H64137979   1.198   0.184   3.702  0.2787 -1.5005 -1.2787
   50MOL   H64237980   1.405   0.339   3.758  1.4171  0.3934  0.4381
   50MOL   H64337981   1.513   0.228   3.686  0.4154  1.7704  0.8162
   50MOL   H64437982   1.496   0.276   4.220  1.0224 -0.4347  2.5350
   50MOL   H64537983   1.439   0.142   4.417 -2.6484 -0.0879  0.0526
   50MOL   H64637984   1.279   7.871   4.158 -2.9168  1.3597 -2.4296
   50MOL   H64737985   1.364   7.991   3.964 -1.8216  0.0094  0.3570
   50MOL   C64837986   1.308   7.995   5.029 -0.8018  0.4746 -0.3248
   50MOL   C64937987   1.339   7.920   4.899 -0.3444 -0.1131 -0.2226
   50MOL   C65037988   1.317   7.999   4.766  0.5912  0.2131 -0.1757
   50MOL   C65137989   1.329   7.909   4.645  0.3001  0.0835  0.5995
   50MOL   C65237990   1.174   0.040   4.767 -0.5406  0.1269  0.2461
   50MOL   C65337991   1.161   0.127   4.899 -0.5243 -0.1920  0.5188
   50MOL   C65437992   1.174   0.037   5.022  0.0059  0.4813  0.2986
   50MOL   C65537993   1.138   0.123   5.144  0.4465  0.9571 -0.3187
   50MOL   O65637994   1.114   0.027   5.247 -0.1732  0.4740  0.1254
   50MOL   C65737995   1.026   0.049   5.342 -0.2054 -0.2893 -0.5991
   50MOL   O65837996   0.950   0.143   5.351 -0.4895 -0.1058  0.0331
   50MOL   C65937997   1.026   7.965   5.433  0.1847 -0.2209  0.4600
   50MOL   C66037998   1.103   7.846   5.428  0.6078  0.2493  0.0439
   50MOL   C66137999   1.111   7.748   5.530 -0.1513 -0.1508  0.1878
   50MOL   C66238000   1.043   7.776   5.643 -0.0195 -0.2714  0.2524
   50MOL   C66338001   1.055   7.680   5.766  0.6295 -0.4490 -0.1684
   50MOL   O66438002   1.133   7.590   5.761  0.5710 -0.1356 -0.2211
   50MOL   O66538003   0.970   7.711   5.866  0.0894  0.0585  0.1919
   50MOL   C66638004   0.949   7.884   5.649 -0.4773 -0.3027 -0.2127
   50MOL   C66738005   0.939   7.981   5.545  0.0792  0.2023 -0.1004
   50MOL   H66838006   1.387   0.030   5.062 -1.0364  0.4467  0.3114
   50MOL   H66938007   1.301   7.925   5.113  3.2938 -1.4834 -1.5188
   50MOL   H67038008   1.285   7.826   4.886  1.8013 -1.2989 -0.6380
   50MOL   H67138009   1.438   7.875   4.903  0.3963  1.6506  2.0903
   50MOL   H67238010   1.396   0.043   4.764  1.5879 -0.7355  1.5641
   50MOL   H67338011   1.241   7.846   4.640  1.3892 -1.3140 -2.0669
   50MOL   H67438012   1.417   7.845   4.656  1.1885  1.1879  0.1008
   50MOL   H67538013   1.092   8.001   4.770 -1.0002  0.7108  2.3665
   50MOL   H67638014   1.171   0.096   4.673  0.0749 -0.8598 -0.3664
   50MOL   H67738015   1.241   0.200   4.908  0.9170 -1.2816 -2.6546
   50MOL   H67838016   1.066   0.180   4.899 -0.1820  0.4176  0.0654
   50MOL   H67938017   1.087   8.009   4.995 -1.1396  1.1786  2.3143
   50MOL   H68038018   1.049   0.184   5.125  1.0311  2.7322  2.3112
   50MOL   H68138019   1.230   0.179   5.166  2.1109 -1.0091 -2.0923
   50MOL   H68238020   1.173   7.835   5.347  0.0649 -1.0190 -0.2653
   50MOL   H68338021   1.180   7.665   5.521 -1.0727 -0.6848 -2.4996
   50MOL   H68438022   0.889   7.903   5.737 -0.4002  1.4457 -0.5184
   50MOL   H68538023   0.867   0.029   5.549 -1.2421 -0.9432 -0.5047
   50MOL   C68638024   0.852   7.667   6.359 -0.4118  0.2957  0.5300
   50MOL   C68738025   0.940   7.635   6.237 -0.2715 -0.0152 -0.5909
   50MOL   C68838026   0.915   7.711   6.101 -0.4735  0.4146  0.0885
   50MOL   C68938027   0.977   7.635   5.985 -0.3191  0.7077 -0.3738
   50MOL   C69038028   0.764   7.734   6.079  0.5353  0.3023 -0.1017
   50MOL   C69138029   0.686   7.775   6.211  0.3419 -0.1697  0.6445
   50MOL   C69238030   0.703   7.664   6.320  0.0345  0.3211 -0.4712
   50MOL   C69338031   0.597   7.691   6.434  0.7382  0.6960  0.2204
   50MOL   O69438032   0.473   7.643   6.397  0.1111  0.0753  0.3174
   50MOL   C69538033   0.433   7.523   6.449 -0.0550 -0.0047 -0.5210
   50MOL   O69638034   0.509   7.454   6.516 -0.0475 -0.4459  0.6509
   50MOL   C69738035   0.295   7.485   6.406  0.2569 -0.7471  0.1875
   50MOL   C69838036   0.224   7.561   6.318 -0.2127  0.5406  0.2163
   50MOL   C69938037   0.094   7.525   6.273 -0.6044 -0.3390 -0.5773
   50MOL   C70038038   0.037   7.399   6.317 -0.3761 -0.1094 -0.7297
   50MOL   C70138039   7.947   7.346   6.265 -0.5358  0.3590  0.5657
   50MOL   O70238040   7.908   7.229   6.265  0.0370 -0.0877 -0.5427
   50MOL   O70338041   7.888   7.434   6.191 -0.5563  0.5779 -0.2229
   50MOL   C70438042   0.112   7.323   6.416 -0.0153  0.0507 -0.0624
   50MOL   C70538043   0.241   7.369   6.460  0.1728 -0.2973 -0.4670
   50MOL   H70638044   0.879   7.771   6.381  2.0709 -0.0042 -0.9413
   50MOL   H70738045   0.872   7.606   6.446  1.0455  0.6971  0.4897
   50MOL   H70838046   0.933   7.527   6.223 -1.0198  0.1624 -1.7035
   50MOL   H70938047   1.047   7.640   6.256 -0.6523 -0.7893  1.9174
   50MOL   H71038048   0.961   7.810   6.105 -0.8421  0.5627  0.6764
   50MOL   H71138049   0.924   7.540   5.973  0.3918  0.2659 -0.0586
   50MOL   H71238050   1.079   7.602   6.003 -0.3203  0.7692 -0.2561
   50MOL   H71338051   0.724   7.646   6.029  0.3247  0.3048  0.0671
   50MOL   H71438052   0.752   7.812   6.003 -0.3178 -0.2948 -0.5806
   50MOL   H71538053   0.728   7.870   6.244  0.2300 -1.0061  3.3591
   50MOL   H71638054   0.583   7.790   6.182  0.9041  0.3488 -1.1479
   50MOL   H71738055   0.683   7.567   6.275  1.0151  0.1379 -0.5352
   50MOL   H71838056   0.588   7.799   6.446  1.2526  0.9888 -1.8285
   50MOL   H71938057   0.633   7.660   6.532  0.4122  1.0849  0.4635
   50MOL   H72038058   0.262   7.652   6.274 -0.5726  0.5263 -0.1185
   50MOL   H72138059   0.049   7.586   6.196  1.4200  1.0546 -0.6981
   50MOL   H72238060   0.078   7.227   6.450  2.1997 -0.3306  1.1695
   50MOL   H72338061   0.299   7.305   6.525  0.8835  2.0931  1.3176
   50MOL   C72438062   7.514   7.577   6.350 -0.1187  0.0086 -0.4152
   50MOL   C72538063   7.618   7.470   6.311 -0.3499  0.3974  0.1708
   50MOL   C72638064   7.672   7.501   6.165 -0.4663 -0.2312  0.8486
   50MOL   C72738065   7.782   7.401   6.110  0.0036  0.1273  0.7313
   50MOL   C72838066   7.551   7.506   6.071 -0.1859 -0.1304 -0.0032
   50MOL   C72938067   7.451   7.615   6.115  0.4718  0.1986 -0.2276
   50MOL   C73038068   7.393   7.592   6.257 -0.3318  0.1928 -0.0478
   50MOL   C73138069   7.293   7.704   6.311 -0.1000  0.3169 -0.1422
   50MOL   O73238070   7.226   7.662   6.423 -0.2729  0.1447  0.1919
   50MOL   C73338071   7.158   7.752   6.492 -0.3388 -1.1206 -0.0856
   50MOL   O73438072   7.144   7.872   6.455  0.4912 -0.5028  0.0311
   50MOL   C73538073   7.121   7.706   6.630  0.0121 -0.0404 -0.4590
   50MOL   C73638074   7.088   7.791   6.736  0.7513  0.4616 -0.0982
   50MOL   C73738075   7.068   7.747   6.868  0.0804  0.5128  0.0034
   50MOL   C73838076   7.067   7.605   6.891 -0.2856  0.8326  0.0168
   50MOL   C73938077   7.050   7.553   7.036 -0.0686 -1.0468 -0.3788
   50MOL   O74038078   7.022   7.626   7.131 -0.0044  0.1523  0.0191
   50MOL   O74138079   7.084   7.425   7.049 -0.5497 -0.6044  0.1236
   50MOL   C74238080   7.077   7.516   6.782 -0.5094 -0.3769 -0.3478
   50MOL   C74338081   7.106   7.566   6.654 -0.9357 -0.7198  0.6690
   50MOL   H74438082   7.564   7.672   6.367 -0.7274  0.3090 -0.3027
   50MOL   H74538083   7.474   7.553   6.449  1.3336 -0.8222 -0.0112
   50MOL   H74638084   7.600   7.363   6.313  2.3321 -0.1147 -0.6660
   50MOL   H74738085   7.700   7.492   6.380 -0.2464  0.4919  0.0184
   50MOL   H74838086   7.718   7.600   6.169  0.9760 -0.6637 -2.8869
   50MOL   H74938087   7.810   7.424   6.007 -1.7991  0.4599  0.3011
   50MOL   H75038088   7.748   7.297   6.111 -1.7334  0.6714  0.3649
   50MOL   H75138089   7.517   7.403   6.077  0.6542 -0.4164 -0.1637
   50MOL   H75238090   7.597   7.529   5.974  1.6663 -1.7765  0.4614
   50MOL   H75338091   7.503   7.711   6.123  0.7147  0.0675 -0.2288
   50MOL   H75438092   7.376   7.628   6.037 -1.3101 -1.6728  1.1162
   50MOL   H75538093   7.347   7.495   6.241 -1.5923  0.9480 -1.0895
   50MOL   H75638094   7.219   7.724   6.234 -0.1758 -2.8291 -0.9388
   50MOL   H75738095   7.341   7.801   6.328  1.1163 -0.5777  1.7219
   50MOL   H75838096   7.069   7.895   6.714  0.5613  0.5876  0.6472
   50MOL   H75938097   7.052   7.822   6.944 -0.5515 -0.6151  1.0005
   50MOL   H76038098   7.068   7.409   6.798 -1.0493 -0.1773  0.7164
   50MOL   H76138099   7.122   7.494   6.575 -1.1329  0.9181 -0.9036
   50MOL   H76238100   7.104   7.406   7.139 -0.6262  0.5387  0.3934
   51MOL     C138101   3.371   2.609   5.809  0.6530  0.1333 -0.1934
   51MOL     C238102   3.518   2.647   5.788  0.1075 -0.1961  0.1621
   51MOL     C338103   3.551   2.795   5.827 -0.8781  0.1975 -0.1073
   51MOL     C438104   3.694   2.824   5.777  0.2272  0.4674  0.1360
   51MOL     C538105   3.442   2.888   5.769  0.4600 -0.1149 -0.0597
   51MOL     C638106   3.296   2.859   5.804 -0.0322  0.3721 -0.2817
   51MOL     C738107   3.274   2.712   5.755  0.6256 -0.5169 -0.3584
   51MOL     C838108   3.125   2.668   5.786 -0.3982  0.4254  0.5074
   51MOL     O938109   3.045   2.766   5.728  0.4050 -0.8338  0.0583
   51MOL    C1038110   2.967   2.731   5.630  0.7327 -0.8952 -0.4001
   51MOL    O1138111   2.967   2.621   5.575  0.4128 -0.0406 -0.4515
   51MOL    C1238112   2.882   2.843   5.583 -0.0995  0.4517  0.0893
   51MOL    C1338113   2.798   2.828   5.466  0.2548 -0.3919 -0.1551
   51MOL    C1438114   2.693   2.918   5.439 -0.4058 -0.2427  0.3767
   51MOL    C1538115   2.669   3.034   5.521 -0.1870 -0.0271  1.0935
   51MOL    C1638116   2.554   3.127   5.492 -0.2350  0.2912 -0.1503
   51MOL    O1738117   2.481   3.113   5.388  0.8457 -0.0797 -0.4415
   51MOL    O1838118   2.533   3.212   5.590  0.2183 -0.0625 -0.1980
   51MOL    C1938119   2.763   3.064   5.624  0.0301  0.5116 -0.5837
   51MOL    C2038120   2.862   2.967   5.654  0.4669 -0.0675  0.5298
   51MOL    H2138121   3.354   2.593   5.915 -1.2571 -1.1328 -0.6681
   51MOL    H2238122   3.353   2.513   5.760 -0.0144 -0.0329  0.3669
   51MOL    H2338123   3.540   2.636   5.681  2.7828  1.0410  0.5227
   51MOL    H2438124   3.583   2.585   5.850  0.2812  0.6470  0.8278
   51MOL    H2538125   3.552   2.800   5.936  1.1075 -1.4155 -0.0163
   51MOL    H2638126   3.698   2.841   5.670 -0.9468 -0.5164 -0.0668
   51MOL    H2738127   3.768   2.745   5.791 -2.8853 -2.5372  0.2821
   51MOL    H2838128   3.438   2.890   5.660  1.2771 -0.2967 -0.0964
   51MOL    H2938129   3.454   2.992   5.800 -0.6275  0.0510 -0.1707
   51MOL    H3038130   3.278   2.871   5.910  0.1390  0.1228 -0.2259
   51MOL    H3138131   3.226   2.922   5.750  0.8835  1.8218  0.1767
   51MOL    H3238132   3.292   2.713   5.647  0.6871  0.8223 -0.3387
   51MOL    H3338133   3.112   2.666   5.895 -2.5962 -0.3823  0.2668
   51MOL    H3438134   3.108   2.563   5.761  1.5178  0.0291  0.7827
   51MOL    H3538135   2.799   2.736   5.408  1.0912 -1.3144  1.2684
   51MOL    H3638136   2.628   2.894   5.356 -0.5127 -0.8736  0.6431
   51MOL    H3738137   2.748   3.153   5.683  0.9479  0.7935 -0.7749
   51MOL    H3838138   2.925   2.976   5.742  1.5758  1.0302 -0.3667
   51MOL    H3938139   3.737   2.916   5.816  0.9827  0.0798  0.2486
   51MOL    C4038140   2.403   3.612   5.855 -0.5347 -0.0697 -0.0763
   51MOL    C4138141   2.371   3.500   5.756 -0.1573  0.0020 -0.1516
   51MOL    C4238142   2.472   3.397   5.722 -0.1474 -1.0559  0.3555
   51MOL    C4338143   2.441   3.316   5.594 -0.2161  0.7921  0.1277
   51MOL    C4438144   2.606   3.472   5.685  0.1039 -0.3934  0.0386
   51MOL    C4538145   2.640   3.586   5.785 -0.0721 -0.3780  0.4062
   51MOL    C4638146   2.524   3.689   5.807 -0.0544  0.0915 -0.7238
   51MOL    C4738147   2.562   3.812   5.884  0.5167 -0.0684  0.1104
   51MOL    O4838148   2.594   3.783   6.022  0.0463  0.2869  0.2403
   51MOL    C4938149   2.501   3.774   6.115  0.4227 -0.5229 -1.1932
   51MOL    O5038150   2.377   3.802   6.105 -0.6656  0.6881 -0.1477
   51MOL    C5138151   2.560   3.727   6.245 -0.0358 -0.5959 -0.7016
   51MOL    C5238152   2.481   3.668   6.338  0.6239 -0.0653 -0.3996
   51MOL    C5338153   2.535   3.610   6.453 -0.2811  0.3798  0.2544
   51MOL    C5438154   2.674   3.611   6.474  0.3630 -0.4761  0.2138
   51MOL    C5538155   2.725   3.542   6.597  0.3289 -0.0094  0.0997
   51MOL    O5638156   2.678   3.571   6.708 -0.0601  0.0811 -0.4562
   51MOL    O5738157   2.810   3.439   6.559  0.1824  0.2173  0.0478
   51MOL    C5838158   2.758   3.664   6.384  0.1690 -0.5485  0.3267
   51MOL    C5938159   2.704   3.722   6.265  0.1148 -0.0474  0.8947
   51MOL    H6038160   2.412   3.570   5.955 -1.2915  2.2368  1.0070
   51MOL    H6138161   2.322   3.683   5.868 -2.0401 -2.4111  4.1843
   51MOL    H6238162   2.350   3.552   5.663 -3.5147 -1.4121 -0.2773
   51MOL    H6338163   2.278   3.446   5.776  0.2567  0.0996  2.1114
   51MOL    H6438164   2.491   3.340   5.813 -1.7811 -0.8286  0.8502
   51MOL    H6538165   2.440   3.385   5.509  1.2436  0.1658 -0.4010
   51MOL    H6638166   2.341   3.272   5.595 -0.6592  1.7087 -1.3649
   51MOL    H6738167   2.592   3.517   5.587  0.2126 -0.9002 -0.2118
   51MOL    H6838168   2.702   3.419   5.685  0.8982  0.9945 -2.0306
   51MOL    H6938169   2.680   3.544   5.877  0.4977  0.9562  0.7811
   51MOL    H7038170   2.722   3.644   5.744 -0.3427 -0.6826 -0.5653
   51MOL    H7138171   2.491   3.718   5.707  0.4277  2.0887 -0.3246
   51MOL    H7238172   2.492   3.895   5.881  0.0299 -0.5296 -2.2940
   51MOL    H7338173   2.649   3.862   5.841 -1.1924  1.5484 -1.5811
   51MOL    H7438174   2.373   3.671   6.336  0.4687 -3.3989  0.8294
   51MOL    H7538175   2.470   3.563   6.526  0.9886  3.0079  3.1728
   51MOL    H7638176   2.864   3.647   6.400 -0.1590 -1.1164  2.0148
   51MOL    H7738177   2.773   3.759   6.191 -2.4172 -1.0461 -2.0806
   51MOL    C7838178   2.579   3.083   6.637 -0.1467 -0.6718 -0.1254
   51MOL    C7938179   2.635   3.222   6.643  0.8458  0.0833 -0.5204
   51MOL    C8038180   2.784   3.217   6.642 -0.3766  0.5286  1.0215
   51MOL    C8138181   2.858   3.354   6.659  0.0012 -0.2495  0.2859
   51MOL    C8238182   2.836   3.127   6.759 -0.0344 -0.1760 -0.6509
   51MOL    C8338183   2.784   2.989   6.749  0.1060 -0.4736 -0.3789
   51MOL    C8438184   2.629   2.990   6.750 -0.0565 -0.1235 -0.6637
   51MOL    C8538185   2.579   2.848   6.734 -0.3028  0.2345 -0.0012
   51MOL    O8638186   2.436   2.842   6.713 -0.1355 -0.1889 -0.5214
   51MOL    C8738187   2.387   2.756   6.626 -0.0268 -0.2418  0.0127
   51MOL    O8838188   2.449   2.668   6.573 -0.4896  0.5987 -0.1212
   51MOL    C8938189   2.236   2.778   6.599 -0.3941 -0.0164 -0.0111
   51MOL    C9038190   2.176   2.703   6.494 -0.4348 -0.1184  0.0130
   51MOL    C9138191   2.043   2.722   6.463  0.0775 -0.3399 -0.3269
   51MOL    C9238192   1.962   2.806   6.551  0.6284  0.0718  0.0965
   51MOL    C9338193   1.815   2.797   6.541 -0.1740 -0.2361  0.3659
   51MOL    O9438194   1.741   2.847   6.623  0.0264  0.3939 -0.4357
   51MOL    O9538195   1.775   2.720   6.426  1.0911  0.0321  0.0755
   51MOL    C9638196   2.023   2.879   6.655 -0.4542 -0.5376 -0.7175
   51MOL    C9738197   2.163   2.869   6.678 -0.9653 -0.1157 -0.2684
   51MOL    H9838198   2.618   3.035   6.547  3.0536 -2.8274  2.2812
   51MOL    H9938199   2.470   3.083   6.638 -0.1738  2.3328  0.7272
   51MOL   H10038200   2.598   3.287   6.723 -0.4992 -0.5495 -0.6137
   51MOL   H10138201   2.601   3.279   6.556 -0.6986 -0.8272 -0.5322
   51MOL   H10238202   2.811   3.173   6.546  2.0254 -0.2234  1.9970
   51MOL   H10338203   2.961   3.336   6.630 -0.1624  0.0255 -0.4878
   51MOL   H10438204   2.852   3.396   6.759 -0.8861 -1.5252  0.7820
   51MOL   H10538205   2.804   3.168   6.854  0.7930 -0.9114 -0.0554
   51MOL   H10638206   2.945   3.126   6.751  0.1486  1.1292  1.4166
   51MOL   H10738207   2.817   2.925   6.667  1.5865 -0.5767  0.2820
   51MOL   H10838208   2.814   2.942   6.842 -0.1778  1.9272  0.9545
   51MOL   H10938209   2.583   3.033   6.839 -2.6890  1.1863 -2.6018
   51MOL   H11038210   2.604   2.802   6.830  0.6958  0.1967 -0.2724
   51MOL   H11138211   2.630   2.798   6.651 -0.8210  0.4103 -0.4248
   51MOL   H11238212   2.242   2.633   6.444 -0.5340  2.1016 -3.3791
   51MOL   H11338213   1.996   2.650   6.398  2.5666 -3.6380  1.3337
   51MOL   H11438214   1.963   2.947   6.713 -0.3469 -1.0744  0.0343
   51MOL   H11538215   2.203   2.926   6.761 -1.8148 -0.7610  0.5990
   51MOL   C11638216   1.773   2.296   6.394 -0.1723  0.3110 -0.3508
   51MOL   C11738217   1.773   2.449   6.387  0.9420 -0.2223  0.7685
   51MOL   C11838218   1.641   2.523   6.423  0.1639 -0.3493 -0.8572
   51MOL   C11938219   1.644   2.680   6.410  0.4184 -0.3474 -0.1559
   51MOL   C12038220   1.523   2.464   6.343  0.1341  0.5302 -0.0069
   51MOL   C12138221   1.519   2.314   6.368  0.2493 -0.1159  0.0785
   51MOL   C12238222   1.646   2.239   6.323 -0.2523  0.5482 -0.3116
   51MOL   C12338223   1.640   2.091   6.350  0.1023 -0.1871 -0.1275
   51MOL   O12438224   1.742   2.015   6.303  0.1303  0.0851  0.0318
   51MOL   C12538225   1.833   1.984   6.399  0.2069 -0.0401  0.3220
   51MOL   O12638226   1.820   2.009   6.518 -0.2675 -0.1591  0.3020
   51MOL   C12738227   1.956   1.931   6.343 -0.3355  0.0165 -0.4878
   51MOL   C12838228   2.033   1.855   6.427 -0.3327  0.5273 -0.4154
   51MOL   C12938229   2.157   1.801   6.389 -0.0167 -0.0275  0.2066
   51MOL   C13038230   2.208   1.827   6.261 -0.2906  0.2243 -0.2696
   51MOL   C13138231   2.336   1.768   6.212 -0.1188 -0.4754  0.6584
   51MOL   O13238232   2.368   1.746   6.095 -0.1147  0.1039 -0.5388
   51MOL   O13338233   2.421   1.739   6.315  0.5849  0.1861  0.0779
   51MOL   C13438234   2.131   1.910   6.178  0.3283  0.2663  0.2389
   51MOL   C13538235   2.006   1.962   6.217 -0.0808 -0.4684  0.1398
   51MOL   H13638236   1.752   2.262   6.496  1.2634 -0.0085 -0.1581
   51MOL   H13738237   1.869   2.252   6.369 -0.6620 -0.5693 -0.7174
   51MOL   H13838238   1.800   2.471   6.284  0.1962 -2.5318  0.0536
   51MOL   H13938239   1.847   2.496   6.453 -0.3225 -1.5688  3.2411
   51MOL   H14038240   1.633   2.492   6.527  1.1742 -1.2941 -1.0562
   51MOL   H14138241   1.573   2.728   6.477  2.9680  0.5794  1.9856
   51MOL   H14238242   1.616   2.708   6.309 -1.8200 -1.4296  0.1458
   51MOL   H14338243   1.539   2.482   6.236 -2.6453  0.9402 -0.3878
   51MOL   H14438244   1.430   2.512   6.374 -1.2156 -0.1100 -2.8708
   51MOL   H14538245   1.488   2.307   6.472  1.1171  0.3333  0.3629
   51MOL   H14638246   1.434   2.265   6.319 -0.6941  3.1629 -1.6713
   51MOL   H14738247   1.658   2.250   6.215  1.1009 -2.3575 -0.5108
   51MOL   H14838248   1.556   2.051   6.292  0.6891 -0.4980 -0.7690
   51MOL   H14938249   1.613   2.066   6.452 -0.9389 -2.8589 -1.0133
   51MOL   H15038250   1.987   1.824   6.519 -0.8533  0.4014 -0.7172
   51MOL   H15138251   2.207   1.735   6.459  1.3996  0.8271  0.0208
   51MOL   H15238252   2.163   1.943   6.080 -0.8792  1.6487  0.2894
   51MOL   H15338253   1.961   2.035   6.151 -1.1183 -0.2489  1.0749
   51MOL   C15438254   2.440   1.398   6.592 -0.0874  0.7191 -0.0333
   51MOL   C15538255   2.481   1.528   6.524 -0.3502 -0.2577  0.0508
   51MOL   C15638256   2.496   1.518   6.366  0.2683  0.3625 -0.3852
   51MOL   C15738257   2.529   1.651   6.294 -0.0023  0.2090 -0.4265
   51MOL   C15838258   2.588   1.391   6.325  0.7949  0.5751 -0.2663
   51MOL   C15938259   2.539   1.268   6.397 -0.1215 -0.2005 -0.2157
   51MOL   C16038260   2.530   1.278   6.550  1.0070 -0.2856  0.1589
   51MOL   C16138261   2.508   1.144   6.622  0.5810  0.0998  0.3774
   51MOL   O16238262   2.370   1.119   6.628  0.6290  0.2629 -0.5318
   51MOL   C16338263   2.339   0.995   6.674 -0.2089  0.0225 -0.0107
   51MOL   O16438264   2.426   0.910   6.709 -0.2332 -1.0019 -0.0208
   51MOL   C16538265   2.196   0.970   6.681  0.7964  0.0882  0.4738
   51MOL   C16638266   2.143   0.848   6.729 -0.0286 -0.3660  0.6803
   51MOL   C16738267   2.010   0.816   6.724  0.5664 -0.0534  0.6877
   51MOL   C16838268   1.918   0.913   6.675 -0.0579  0.3416 -0.0525
   51MOL   C16938269   1.768   0.879   6.678 -0.4242  0.2873 -0.7185
   51MOL   O17038270   1.724   0.768   6.720  0.4567  0.1327 -0.4024
   51MOL   O17138271   1.691   0.988   6.646  0.7190  0.4347  0.1866
   51MOL   C17238272   1.971   1.034   6.625 -0.2727  0.0313 -0.0240
   51MOL   C17338273   2.106   1.067   6.631 -0.8307  0.6243 -0.5756
   51MOL   H17438274   2.336   1.372   6.571  0.9688 -2.7848 -1.2133
   51MOL   H17538275   2.444   1.397   6.701  1.1430  0.7440 -0.0665
   51MOL   H17638276   2.572   1.561   6.573  0.8907 -2.9086 -0.3776
   51MOL   H17738277   2.408   1.609   6.532  0.7057  0.9987 -2.4786
   51MOL   H17838278   2.405   1.483   6.318  1.6643 -0.7376 -2.2999
   51MOL   H17938279   2.565   1.639   6.192 -0.5783 -1.0473 -0.4978
   51MOL   H18038280   2.616   1.684   6.350 -0.3995  1.6801 -0.6654
   51MOL   H18138281   2.689   1.423   6.354  0.8603  0.3840 -0.2811
   51MOL   H18238282   2.590   1.378   6.217  1.1869 -1.4392 -0.0367
   51MOL   H18338283   2.445   1.238   6.351  0.8869  0.4178 -2.7111
   51MOL   H18438284   2.623   1.202   6.379  1.7134  1.6644  1.2805
   51MOL   H18538285   2.627   1.307   6.589  1.1834 -0.8947  0.1632
   51MOL   H18638286   2.557   1.152   6.720  1.8287  0.2470 -0.2444
   51MOL   H18738287   2.567   1.068   6.570 -1.0369  0.3582 -1.8778
   51MOL   H18838288   2.205   0.772   6.774  0.0151 -0.2405  0.8343
   51MOL   H18938289   1.973   0.721   6.758 -1.7657  1.3278  2.1699
   51MOL   H19038290   1.907   1.102   6.571 -0.5719 -0.0115  0.2706
   51MOL   H19138291   2.133   1.168   6.604  2.1499  0.4187  1.3198
   51MOL   C19238292   1.260   1.037   6.874  0.0502 -0.4149 -0.7409
   51MOL   C19338293   1.330   1.013   6.742 -0.4051 -0.1581  0.4231
   51MOL   C19438294   1.476   1.006   6.769  0.1873 -0.4043  0.0884
   51MOL   C19538295   1.549   0.975   6.639  0.0852  0.6038 -0.1634
   51MOL   C19638296   1.522   1.142   6.821 -0.0377  0.4562 -0.4627
   51MOL   C19738297   1.452   1.177   6.961 -0.4250 -0.3135 -0.6024
   51MOL   C19838298   1.297   1.167   6.949  0.3706  0.3491 -0.4510
   51MOL   C19938299   1.215   1.185   7.074  0.3563 -0.4766 -0.6062
   51MOL   O20038300   1.282   1.125   7.185  0.7088 -0.1863 -0.4570
   51MOL   C20138301   1.265   1.000   7.220 -0.4478  0.2252  0.2004
   51MOL   O20238302   1.183   0.927   7.162 -0.1983 -0.3884  0.6998
   51MOL   C20338303   1.331   0.963   7.349  0.2256  0.5329 -0.3441
   51MOL   C20438304   1.289   0.838   7.409 -0.5721  0.7963 -0.1542
   51MOL   C20538305   1.352   0.803   7.531  0.0001 -0.1621 -0.0844
   51MOL   C20638306   1.433   0.891   7.606  0.2499 -0.5982  0.0888
   51MOL   C20738307   1.483   0.847   7.747  0.6877  0.1796  0.7012
   51MOL   O20838308   1.422   0.754   7.806  0.4489 -0.7402 -0.3953
   51MOL   O20938309   1.589   0.916   7.791  0.6500 -0.0018  0.2964
   51MOL   C21038310   1.470   1.013   7.544 -0.2031  0.3732 -0.0507
   51MOL   C21138311   1.430   1.045   7.411 -0.1840  0.1222  0.1025
   51MOL   H21238312   1.285   0.954   6.940  0.4660 -0.6098 -1.1401
   51MOL   H21338313   1.152   1.027   6.860 -0.1619  0.3168  0.2823
   51MOL   H21438314   1.311   1.102   6.683 -0.7277 -0.7866 -0.4262
   51MOL   H21538315   1.291   0.925   6.691 -0.4331 -0.6755  1.3317
   51MOL   H21638316   1.497   0.927   6.840  1.6758 -0.4780 -0.4173
   51MOL   H21738317   1.516   1.032   6.552  1.7232  1.4621 -0.2628
   51MOL   H21838318   1.527   0.870   6.619  2.6742 -0.3085  1.5277
   51MOL   H21938319   1.492   1.216   6.747  1.3762  1.1474 -0.3664
   51MOL   H22038320   1.630   1.157   6.826 -0.1409  0.7875  0.9577
   51MOL   H22138321   1.497   1.124   7.045  2.3313  1.1043 -1.1111
   51MOL   H22238322   1.456   1.284   6.985 -0.4995 -0.0627 -1.6833
   51MOL   H22338323   1.262   1.250   6.887 -0.4144  0.1720 -0.2477
   51MOL   H22438324   1.118   1.135   7.069 -0.2518  0.5065  0.9187
   51MOL   H22538325   1.207   1.291   7.096  3.6003  0.0436 -1.7471
   51MOL   H22638326   1.212   0.775   7.366  1.0006 -0.6920 -0.8536
   51MOL   H22738327   1.308   0.716   7.578 -0.9025  1.0707  1.4016
   51MOL   H22838328   1.524   1.086   7.603 -0.0732  1.4866 -1.5211
   51MOL   H22938329   1.458   1.141   7.371  1.3177 -0.4079 -0.1547
   51MOL   C23038330   1.965   1.000   0.040  0.0595 -0.2223 -0.0531
   51MOL   C23138331   1.832   0.914   0.023 -0.5458  0.2559  0.0263
   51MOL   C23238332   1.747   0.982   7.951  0.4238  0.1209 -0.5268
   51MOL   C23338333   1.618   0.908   7.929 -0.6901  0.0096 -0.4918
   51MOL   C23438334   1.701   1.124   7.998 -0.6716  0.3315  0.5535
   51MOL   C23538335   1.826   1.209   8.010  0.4249  0.4386 -0.0769
   51MOL   C23638336   1.927   1.140   0.080 -0.7237 -0.3473 -0.3098
   51MOL   C23738337   2.049   1.237   0.111  0.2083 -0.2056 -1.2251
   51MOL   O23838338   2.091   1.289   8.019  0.2860  0.7998 -0.1032
   51MOL   C23938339   2.198   1.376   8.019  0.0142 -0.5911 -0.2222
   51MOL   O24038340   2.258   1.414   0.088  0.3555 -0.2056  0.0075
   51MOL   C24138341   2.226   1.417   7.876  0.0233 -0.3135  0.3172
   51MOL   C24238342   2.344   1.477   7.836 -0.5679  0.1902  0.3282
   51MOL   C24338343   2.374   1.528   7.705  0.4354 -0.2420  0.3203
   51MOL   C24438344   2.275   1.517   7.606 -0.0339 -0.3312 -0.3994
   51MOL   C24538345   2.283   1.568   7.468 -0.4857 -0.5633 -0.1354
   51MOL   O24638346   2.194   1.565   7.382 -0.3897 -0.2287 -0.3374
   51MOL   O24738347   2.395   1.635   7.442 -0.0812 -0.3071 -0.1874
   51MOL   C24838348   2.156   1.445   7.639 -0.2040  0.0416 -0.2176
   51MOL   C24938349   2.134   1.393   7.770 -0.1888 -0.1109  0.6548
   51MOL   H25038350   2.018   0.995   7.977  1.9531  0.2042  0.9642
   51MOL   H25138351   2.026   0.948   0.115  0.5068  2.9124  1.8429
   51MOL   H25238352   1.780   0.903   0.118 -0.6715 -1.2874 -0.2199
   51MOL   H25338353   1.846   0.812   8.020 -1.1060  1.1422 -2.9093
   51MOL   H25438354   1.799   0.989   7.856  1.6808  0.6650  0.1792
   51MOL   H25538355   1.530   0.940   7.984 -0.3084 -0.4928  0.4225
   51MOL   H25638356   1.623   0.806   7.969  2.2148  0.3208  0.0465
   51MOL   H25738357   1.660   1.119   0.067 -0.9269  2.7330  0.5983
   51MOL   H25838358   1.620   1.166   7.939 -0.0687 -0.3809 -0.7921
   51MOL   H25938359   1.873   1.213   7.912  1.9562  1.3676  0.6792
   51MOL   H26038360   1.807   1.308   0.021  2.3816 -0.0401  2.0168
   51MOL   H26138361   1.883   1.146   0.180 -0.6937  0.4910 -0.3439
   51MOL   H26238362   2.136   1.193   0.159  0.5771  0.4810 -1.2642
   51MOL   H26338363   2.008   1.316   0.174  0.5868 -0.8537 -0.1463
   51MOL   H26438364   2.422   1.497   7.908  1.0426 -0.3845 -1.2340
   51MOL   H26538365   2.465   1.584   7.690 -0.0634  0.4410 -0.1896
   51MOL   H26638366   2.080   1.434   7.563  1.4024 -1.7795 -1.5989
   51MOL   H26738367   2.042   1.341   7.793 -1.3580  0.6730 -2.0821
   51MOL   C26838368   2.823   1.629   7.357 -0.0788  0.3967 -0.0826
   51MOL   C26938369   2.677   1.587   7.382  0.1401 -0.1205 -0.1013
   51MOL   C27038370   2.582   1.670   7.291 -0.5275 -0.4265 -0.2875
   51MOL   C27138371   2.424   1.640   7.308 -0.3885  0.3885  0.4201
   51MOL   C27238372   2.614   1.826   7.319  0.6974 -0.5751  0.1291
   51MOL   C27338373   2.764   1.866   7.308  0.2150  0.6636 -0.5538
   51MOL   C27438374   2.850   1.779   7.405  0.7451 -0.9425 -0.3446
   51MOL   C27538375   2.999   1.816   7.406 -0.2731 -1.2047 -0.4829
   51MOL   O27638376   3.074   1.800   7.285  0.2230 -0.0578 -0.1451
   51MOL   C27738377   3.077   1.904   7.196 -0.0948 -0.1801  0.7835
   51MOL   O27838378   3.050   2.016   7.231 -0.7099 -0.1961 -0.2193
   51MOL   C27938379   3.124   1.865   7.062 -0.1312  0.4387 -0.4079
   51MOL   C28038380   3.183   1.962   6.978 -0.0128 -0.2935  1.1362
   51MOL   C28138381   3.215   1.921   6.850 -0.1089 -0.3511  0.2646
   51MOL   C28238382   3.198   1.792   6.800 -0.0170 -0.3162 -0.7550
   51MOL   C28338383   3.239   1.762   6.657 -0.0167  0.2009 -0.9081
   51MOL   O28438384   3.269   1.841   6.569 -0.5042  0.0316  0.3025
   51MOL   O28538385   3.224   1.628   6.640 -0.5011 -0.2639  0.3137
   51MOL   C28638386   3.150   1.692   6.887  0.1394  0.2505 -0.1974
   51MOL   C28738387   3.105   1.729   7.016 -0.5464 -0.1922 -0.5696
   51MOL   H28838388   2.849   1.614   7.252  1.4801  0.4828  0.2792
   51MOL   H28938389   2.885   1.560   7.415 -0.0708  0.8347  0.4385
   51MOL   H29038390   2.654   1.597   7.488 -2.2020  1.2586 -0.6985
   51MOL   H29138391   2.664   1.481   7.362  2.4880 -0.3771 -0.4602
   51MOL   H29238392   2.602   1.639   7.188  0.7607  0.3304 -0.2719
   51MOL   H29338393   2.393   1.545   7.266 -0.7643  0.5669  0.2932
   51MOL   H29438394   2.370   1.726   7.267  2.9993  3.1230  1.4005
   51MOL   H29538395   2.569   1.851   7.415  0.3208  0.9729 -0.4415
   51MOL   H29638396   2.551   1.884   7.251 -0.9627 -1.4235  0.9181
   51MOL   H29738397   2.801   1.860   7.206  0.4348 -3.4097 -0.2919
   51MOL   H29838398   2.781   1.967   7.346  0.4564 -0.0705  1.3460
   51MOL   H29938399   2.818   1.797   7.508 -3.5393  0.4156 -1.7873
   51MOL   H30038400   3.043   1.746   7.477  1.3324 -0.3969 -0.6471
   51MOL   H30138401   3.014   1.917   7.444 -1.4304 -0.5454 -1.7320
   51MOL   H30238402   3.196   2.064   7.010  1.2967 -0.4570  1.1848
   51MOL   H30338403   3.266   1.986   6.780 -1.3878  1.1663  0.7007
   51MOL   H30438404   3.152   1.585   6.869 -2.4517  0.1118  0.1086
   51MOL   H30538405   3.072   1.652   7.084  0.4690  1.7118  2.1555
   51MOL   C30638406   3.179   1.230   6.338  0.7158 -0.1299  0.1057
   51MOL   C30738407   3.231   1.375   6.353 -0.1170 -0.4277  0.5642
   51MOL   C30838408   3.179   1.438   6.482  0.4440  0.2499  0.2023
   51MOL   C30938409   3.247   1.571   6.512  0.1939 -0.1254  0.2262
   51MOL   C31038410   3.023   1.444   6.482 -0.1986 -1.0771 -0.3119
   51MOL   C31138411   2.958   1.307   6.460 -0.5180  0.6674  0.5122
   51MOL   C31238412   3.021   1.229   6.337 -0.2015  0.4284  0.0941
   51MOL   C31338413   2.960   1.081   6.322  0.0150  0.1646 -0.3961
   51MOL   O31438414   2.994   1.025   6.450  0.7459 -0.0272 -0.3159
   51MOL   C31538415   2.925   0.926   6.502 -0.3875 -0.2638  0.3135
   51MOL   O31638416   2.837   0.864   6.448 -0.0696 -0.2590  0.0116
   51MOL   C31738417   2.962   0.907   6.651 -0.3953  0.3241 -0.1026
   51MOL   C31838418   2.870   0.833   6.733 -0.5405  0.4802  0.2428
   51MOL   C31938419   2.894   0.804   6.865  0.5997 -0.3865 -0.4200
   51MOL   C32038420   3.018   0.845   6.918  0.2546  0.0807 -0.4890
   51MOL   C32138421   3.057   0.808   7.058 -0.4911 -0.0369  0.3898
   51MOL   O32238422   2.981   0.749   7.134 -0.2755 -0.1635  0.1631
   51MOL   O32338423   3.174   0.866   7.101  0.1899 -0.6315  0.2361
   51MOL   C32438424   3.111   0.924   6.840 -0.1951  0.0653  0.2533
   51MOL   C32538425   3.081   0.953   6.707 -0.2142  0.2483 -0.5646
   51MOL   H32638426   3.216   1.157   6.410  0.9284 -0.1615 -0.0339
   51MOL   H32738427   3.220   1.191   6.245  1.2749 -1.5071  0.9081
   51MOL   H32838428   3.197   1.427   6.263  0.4876 -0.9516  0.0274
   51MOL   H32938429   3.340   1.375   6.346 -0.1067  0.6720  0.7122
   51MOL   H33038430   3.209   1.370   6.562  0.3523  0.6532  0.5805
   51MOL   H33138431   3.205   1.642   6.441  0.2132 -0.7514 -0.4216
   51MOL   H33238432   3.354   1.581   6.489 -0.3398  0.0543 -2.3315
   51MOL   H33338433   2.989   1.508   6.400 -0.3437  1.7259  1.8467
   51MOL   H33438434   2.996   1.481   6.581  1.5659  0.7856 -0.4894
   51MOL   H33538435   2.977   1.243   6.547  1.2074 -1.6663 -1.4864
   51MOL   H33638436   2.851   1.314   6.441 -0.2573  0.2027 -1.1627
   51MOL   H33738437   2.990   1.292   6.253  0.8709 -0.0069 -0.6504
   51MOL   H33838438   3.005   1.026   6.239 -0.8515  1.4894 -1.7757
   51MOL   H33938439   2.851   1.088   6.321 -0.0158  0.6153  2.1136
   51MOL   H34038440   2.777   0.799   6.690  0.2855  0.1246 -1.3231
   51MOL   H34138441   2.829   0.741   6.924  0.3815 -0.7775 -1.0719
   51MOL   H34238442   3.203   0.966   6.878 -0.7398  1.1880  0.3762
   51MOL   H34338443   3.150   1.012   6.649  0.3153  1.1603  0.9903
   51MOL   C34438444   3.504   0.824   7.488 -0.4291  0.3905 -0.0486
   51MOL   C34538445   3.358   0.839   7.444 -0.2974  0.4095  0.3184
   51MOL   C34638446   3.343   0.839   7.282 -0.5622 -0.8376  0.0577
   51MOL   C34738447   3.196   0.866   7.242  0.2362  0.3945  0.4524
   51MOL   C34838448   3.441   0.947   7.232  0.0465  0.4083  0.4648
   51MOL   C34938449   3.585   0.936   7.292  0.0561  0.4065 -0.2141
   51MOL   C35038450   3.596   0.942   7.442 -0.0421 -0.3599  0.0691
   51MOL   C35138451   3.741   0.920   7.481  0.9998 -0.1925  0.2078
   51MOL   O35238452   3.765   0.934   7.622 -0.5882  0.2178 -0.5495
   51MOL   C35338453   3.770   0.824   7.710  0.5614  0.4313  0.0124
   51MOL   O35438454   3.747   0.711   7.668 -0.7471  0.2270 -0.4815
   51MOL   C35538455   3.805   0.861   7.849 -0.0629  0.6112 -0.2880
   51MOL   C35638456   3.787   0.774   7.955  0.1080 -0.3373  0.0148
   51MOL   C35738457   3.843   0.805   0.051 -0.2132 -0.2911  0.1706
   51MOL   C35838458   3.897   0.933   0.071  0.1529  0.2649 -0.0769
   51MOL   C35938459   3.960   0.959   0.204 -0.6619  1.1234  0.0277
   51MOL   O36038460   3.988   0.869   0.283 -0.1746 -0.4782 -0.1373
   51MOL   O36138461   3.980   1.087   0.240 -0.0407  0.2546 -0.5228
   51MOL   C36238462   3.896   1.031   8.003  0.0448  0.2056 -0.3473
   51MOL   C36338463   3.871   0.982   7.873  0.4154  0.7545 -0.4676
   51MOL   H36438464   3.534   0.722   7.461  2.8643  1.3892 -0.4472
   51MOL   H36538465   3.502   0.829   7.597 -0.2402 -3.1538  0.1601
   51MOL   H36638466   3.307   0.927   7.483  1.4298  1.3451  0.4869
   51MOL   H36738467   3.304   0.754   7.487  0.2898 -0.2689 -0.2889
   51MOL   H36838468   3.366   0.742   7.237  0.4619 -0.6111  0.0654
   51MOL   H36938469   3.158   0.956   7.290 -0.6850  0.9016 -1.1908
   51MOL   H37038470   3.139   0.789   7.295  2.4929 -0.9566  0.9793
   51MOL   H37138471   3.402   1.041   7.271 -0.9675 -0.3764  1.3765
   51MOL   H37238472   3.457   0.964   7.126 -0.4145  1.9512  0.6316
   51MOL   H37338473   3.626   0.840   7.261  0.4836  0.3311  0.5847
   51MOL   H37438474   3.653   1.008   7.247  0.6454  0.0829  0.1556
   51MOL   H37538475   3.570   1.041   7.480  1.5469 -0.6881  2.1210
   51MOL   H37638476   3.814   0.987   7.434  1.2121 -1.2661 -1.0372
   51MOL   H37738477   3.773   0.821   7.447  2.7143  0.1241  0.8394
   51MOL   H37838478   3.740   0.679   7.937 -1.0478  0.0285  1.1103
   51MOL   H37938479   3.833   0.731   0.130  2.1872  0.1983  0.9696
   51MOL   H38038480   3.938   1.127   8.026 -0.2120 -0.1580  1.7593
   51MOL   H38138481   3.890   1.050   7.792  0.4538 -0.6090 -1.6201
   51MOL   C38238482   4.094   1.496   0.396 -0.4939 -0.3223  0.3252
   51MOL   C38338483   4.031   1.357   0.406 -0.3444  0.6973 -0.4784
   51MOL   C38438484   4.122   1.261   0.333 -0.3670 -0.0958 -0.2341
   51MOL   C38538485   4.073   1.118   0.347  0.3085  1.1929  0.1892
   51MOL   C38638486   4.129   1.310   0.182 -0.6020  0.0616  0.3476
   51MOL   C38738487   4.195   1.448   0.175 -0.1418 -0.1507 -0.4233
   51MOL   C38838488   4.115   1.549   0.255  0.0173  0.0236  0.0033
   51MOL   C38938489   4.189   1.683   0.262 -0.5974  0.3091 -0.2213
   51MOL   O39038490   4.110   1.767   0.341 -0.2801 -0.2285  0.6357
   51MOL   C39138491   4.154   1.816   0.458 -0.5371  0.4977  0.3181
   51MOL   O39238492   4.240   1.758   0.525 -0.7138 -0.0438 -0.2853
   51MOL   C39338493   4.082   1.937   0.507 -0.0452 -0.3378 -0.3551
   51MOL   C39438494   4.159   2.037   0.571  0.2088  0.1579  0.6414
   51MOL   C39538495   4.101   2.152   0.619  0.2297  0.3341  1.0637
   51MOL   C39638496   3.959   2.174   0.598  0.2381  1.2214 -0.4116
   51MOL   C39738497   3.895   2.301   0.637  0.2178  0.4257 -0.0171
   51MOL   O39838498   3.779   2.331   0.607 -0.6618 -0.1687 -0.3600
   51MOL   O39938499   3.968   2.372   0.721 -0.4620 -0.1944  0.0802
   51MOL   C40038500   3.885   2.077   0.524 -0.4364 -0.2492 -0.3513
   51MOL   C40138501   3.948   1.967   0.472 -0.0030  0.7202  0.2309
   51MOL   H40238502   4.189   1.496   0.449 -0.2091 -4.2468 -0.0855
   51MOL   H40338503   4.030   1.564   0.453  0.5349 -0.0109  1.1168
   51MOL   H40438504   3.927   1.346   0.372  0.0350 -1.2730 -1.0419
   51MOL   H40538505   4.031   1.318   0.507  3.4588  3.2586  0.6197
   51MOL   H40638506   4.221   1.270   0.379 -0.1798  0.1621 -0.6920
   51MOL   H40738507   4.022   1.097   0.441  1.0111  2.0163  0.7639
   51MOL   H40838508   4.158   1.053   0.325  0.5041  1.1797  0.9921
   51MOL   H40938509   4.034   1.315   0.130  0.7959 -1.1516 -2.4386
   51MOL   H41038510   4.188   1.238   0.124 -1.6259 -0.9481  0.5597
   51MOL   H41138511   4.294   1.440   0.220 -0.0183  0.4331 -0.5961
   51MOL   H41238512   4.207   1.482   0.072 -0.6310  0.8047 -0.1702
   51MOL   H41338513   4.013   1.562   0.217  0.4180 -1.7717 -1.7585
   51MOL   H41438514   4.202   1.727   0.163 -0.3938  0.0227 -0.3241
   51MOL   H41538515   4.292   1.679   0.297 -0.6162 -0.3810 -0.2532
   51MOL   H41638516   4.265   2.020   0.582  0.0431 -0.6755  1.0228
   51MOL   H41738517   4.172   2.220   0.663  1.2748  0.7848 -1.2249
   51MOL   H41838518   3.784   2.103   0.496  0.2106  0.0667 -2.4813
   51MOL   H41938519   3.891   1.896   0.413 -0.0663  1.4659 -0.6221
   51MOL   C42038520   4.207   2.737   0.697  0.7853 -0.1254  0.6348
   51MOL   C42138521   4.106   2.632   0.666  0.1779  0.7489 -0.0993
   51MOL   C42238522   4.011   2.615   0.785 -0.3447 -0.5948  0.3297
   51MOL   C42338523   3.914   2.503   0.759 -0.4460 -0.1897 -0.0133
   51MOL   C42438524   4.097   2.583   0.913  0.8444 -0.9385  0.2750
   51MOL   C42538525   4.192   2.703   0.948 -0.2765  0.3420  0.6339
   51MOL   C42638526   4.285   2.712   0.819 -0.7915 -0.2375 -0.3822
   51MOL   C42738527   4.404   2.808   0.834 -0.9109  0.0005  0.6671
   51MOL   O42838528   4.517   2.775   0.758  0.6802  0.4326  0.4830
   51MOL   C42938529   4.623   2.717   0.810  0.2688 -0.3987  0.0709
   51MOL   O43038530   4.632   2.687   0.925  0.0174  0.1417  0.0544
   51MOL   C43138531   4.737   2.695   0.719 -0.1257 -0.2627 -0.5932
   51MOL   C43238532   4.867   2.657   0.762 -0.8150 -0.1672  0.7465
   51MOL   C43338533   4.981   2.642   0.680  0.6853  0.4340  0.7457
   51MOL   C43438534   4.965   2.693   0.544 -0.3669 -0.5636  0.0239
   51MOL   C43538535   5.086   2.689   0.456 -0.3184  0.4699  0.0735
   51MOL   O43638536   5.197   2.648   0.491  0.5370 -0.2555  0.3838
   51MOL   O43738537   5.065   2.730   0.332 -0.2099  0.5330 -0.1478
   51MOL   C43838538   4.837   2.725   0.501 -0.0682 -0.5421 -0.0721
   51MOL   C43938539   4.719   2.718   0.580 -0.5211 -0.0384  0.3650
   51MOL   H44038540   4.149   2.826   0.717  1.0722  0.0075  0.8785
   51MOL   H44138541   4.261   2.758   0.604  0.7192 -0.8270  0.4305
   51MOL   H44238542   4.150   2.536   0.639 -0.3939  0.8274 -1.3117
   51MOL   H44338543   4.044   2.674   0.587  0.6173  1.3261 -0.1446
   51MOL   H44438544   3.958   2.710   0.796 -0.5170 -0.6305 -0.1748
   51MOL   H44538545   3.847   2.558   0.692  0.3186 -0.1111 -0.7238
   51MOL   H44638546   3.852   2.483   0.846 -1.1555 -2.8834 -1.1019
   51MOL   H44738547   4.154   2.491   0.901  0.5086 -1.1237  0.1053
   51MOL   H44838548   4.023   2.565   0.991 -0.5275  1.4362 -0.4437
   51MOL   H44938549   4.135   2.794   0.964  1.3071  1.7924 -1.6422
   51MOL   H45038550   4.253   2.692   1.037  1.1750  2.8130  0.0107
   51MOL   H45138551   4.332   2.614   0.811  1.6292  1.0009 -1.6334
   51MOL   H45238552   4.440   2.825   0.936  2.0570 -2.1125  0.0346
   51MOL   H45338553   4.378   2.906   0.794  2.0136  0.5927  0.1127
   51MOL   H45438554   4.878   2.620   0.863  0.1563 -0.3657  0.5663
   51MOL   H45538555   5.076   2.603   0.711 -0.3250 -2.6904  0.0961
   51MOL   H45638556   4.823   2.756   0.399 -0.1786 -1.6826 -0.4120
   51MOL   H45738557   4.624   2.746   0.537 -1.0565 -1.0443  0.8795
   51MOL   C45838558   5.206   2.920   7.927 -0.1194  0.1187  0.2636
   51MOL   C45938559   5.243   2.877   0.037  0.0097 -0.2800 -0.4948
   51MOL   C46038560   5.132   2.804   0.114  0.5061 -0.2566 -0.8667
   51MOL   C46138561   5.175   2.774   0.260  0.2698  1.0420 -0.3261
   51MOL   C46238562   5.006   2.893   0.108  0.1766  0.2454 -1.3177
   51MOL   C46338563   4.970   2.921   7.988  0.0861 -0.4363  0.0583
   51MOL   C46438564   5.080   2.997   7.914  0.0053  0.7201  0.1319
   51MOL   C46538565   5.047   3.029   7.766  0.5387 -0.5091 -0.1814
   51MOL   O46638566   5.038   2.903   7.696  0.5476  0.8682  0.7322
   51MOL   C46738567   5.135   2.876   7.606  0.4700  0.4162 -0.7198
   51MOL   O46838568   5.212   2.963   7.563 -0.6348 -0.2232  0.0236
   51MOL   C46938569   5.128   2.735   7.565 -0.4919 -0.3744  0.1944
   51MOL   C47038570   5.204   2.691   7.453 -0.0059 -0.3497  0.4096
   51MOL   C47138571   5.178   2.568   7.403  0.4407  0.2579  0.3348
   51MOL   C47238572   5.106   2.470   7.477  1.3185 -0.5101 -0.8264
   51MOL   C47338573   5.100   2.333   7.424 -0.2634  0.5627  0.5352
   51MOL   O47438574   5.134   2.299   7.313  0.1085  0.4531 -0.0137
   51MOL   O47538575   5.064   2.243   7.522 -0.4875  0.0477  0.2003
   51MOL   C47638576   5.030   2.507   7.593 -0.1069  0.0592 -0.2794
   51MOL   C47738577   5.045   2.644   7.634 -0.4551  0.3684 -0.5444
   51MOL   H47838578   5.199   2.823   7.876  3.4492  0.4456 -0.9297
   51MOL   H47938579   5.294   2.969   7.887 -0.3830 -1.9699 -3.0685
   51MOL   H48038580   5.290   2.954   0.098 -0.2638 -0.3219 -0.2281
   51MOL   H48138581   5.323   2.804   0.025  0.5438  0.0791  0.7348
   51MOL   H48238582   5.104   2.714   0.059 -2.4047  0.8942 -1.3833
   51MOL   H48338583   5.216   2.865   0.303  1.2339  0.2542  0.4459
   51MOL   H48438584   5.260   2.706   0.255 -0.0832  0.5803 -0.1481
   51MOL   H48538585   5.010   2.985   0.165  2.6037 -0.6063 -0.0698
   51MOL   H48638586   4.926   2.830   0.148 -0.4837  2.0351  0.2723
   51MOL   H48738587   4.951   2.826   7.938  2.8466  0.6658 -3.2597
   51MOL   H48838588   4.874   2.971   7.974 -0.7780 -1.7395  1.1481
   51MOL   H48938589   5.097   3.086   7.974  0.8139 -0.2239  1.3158
   51MOL   H49038590   5.113   3.103   7.721  0.5225 -0.9085 -0.8748
   51MOL   H49138591   4.944   3.063   7.765  0.6012 -0.2908 -1.8125
   51MOL   H49238592   5.270   2.761   7.402 -0.7861  0.5629  0.6371
   51MOL   H49338593   5.228   2.539   7.312  1.6210 -2.1635  1.7137
   51MOL   H49438594   4.966   2.435   7.641  0.6303 -2.1999 -2.5150
   51MOL   H49538595   4.973   2.673   7.709 -1.1343 -1.8138 -0.3260
   51MOL   C49638596   4.695   2.047   7.557 -0.0397  0.3494  0.3016
   51MOL   C49738597   4.836   2.094   7.590 -1.0067  0.4030  0.2451
   51MOL   C49838598   4.927   2.071   7.472 -0.6787  0.2329 -0.2706
   51MOL   C49938599   5.075   2.110   7.496  0.4528 -0.2144  0.7343
   51MOL   C50038600   4.914   1.928   7.419 -0.5225 -0.3042  0.4143
   51MOL   C50138601   4.775   1.867   7.410  0.9531  0.2068 -0.3709
   51MOL   C50238602   4.688   1.896   7.541 -0.3549 -0.4128  0.0487
   51MOL   C50338603   4.543   1.843   7.527 -0.0664  0.4263  0.1352
   51MOL   O50438604   4.464   1.885   7.638 -0.0747  0.5087  0.2356
   51MOL   C50538605   4.329   1.857   7.641 -0.5411 -0.5425 -0.6863
   51MOL   O50638606   4.263   1.796   7.555  0.9725  0.4212  0.4399
   51MOL   C50738607   4.273   1.911   7.772  0.2650  1.2144 -0.1526
   51MOL   C50838608   4.320   2.028   7.835 -0.0063 -0.3224  1.2281
   51MOL   C50938609   4.261   2.067   7.957 -0.4048  0.0444  0.2654
   51MOL   C51038610   4.152   2.002   8.012 -0.4617 -0.4196 -0.5942
   51MOL   C51138611   4.089   2.052   0.100 -0.0225 -0.3115 -0.8536
   51MOL   O51238612   4.004   1.999   0.167  0.3182 -0.4646 -0.2325
   51MOL   O51338613   4.149   2.164   0.151 -0.0848 -0.2666 -0.1409
   51MOL   C51438614   4.099   1.893   7.945  0.3857  1.3776  0.2944
   51MOL   C51538615   4.158   1.846   7.826 -0.1136  0.2371 -0.3999
   51MOL   H51638616   4.656   2.089   7.465 -0.2824  1.8553  1.0825
   51MOL   H51738617   4.630   2.066   7.643 -1.3480  0.2190 -0.6443
   51MOL   H51838618   4.877   2.038   7.674  0.2698  1.1712  0.1472
   51MOL   H51938619   4.837   2.195   7.631 -1.5670 -0.1168  1.5706
   51MOL   H52038620   4.889   2.130   7.388  0.2926  0.2493 -0.7102
   51MOL   H52138621   5.131   2.078   7.409  0.0253  2.9270 -0.7464
   51MOL   H52238622   5.104   2.064   7.591  0.1178 -0.0344  0.9287
   51MOL   H52338623   4.970   1.867   7.490  0.6080 -0.2891 -0.4542
   51MOL   H52438624   4.969   1.919   7.326 -1.0073  1.2610 -0.0380
   51MOL   H52538625   4.724   1.905   7.321 -0.4890 -1.8344 -0.4470
   51MOL   H52638626   4.785   1.760   7.396 -0.3849  0.1982 -1.3816
   51MOL   H52738627   4.743   1.851   7.624  1.2611  0.0834 -0.7398
   51MOL   H52838628   4.528   1.735   7.530  0.8441  0.2188 -2.2383
   51MOL   H52938629   4.490   1.889   7.444 -3.4619 -1.1581  1.3129
   51MOL   H53038630   4.402   2.089   7.799 -0.0845 -0.4593  0.8170
   51MOL   H53138631   4.295   2.162   7.995 -1.0515  0.7916 -0.9626
   51MOL   H53238632   4.016   1.836   7.984  1.5905 -0.6178  0.0198
   51MOL   H53338633   4.127   1.754   7.777 -1.8345  0.1407  0.8174
   51MOL   C53438634   4.074   2.597   0.220  0.3422 -0.5086  0.0350
   51MOL   C53538635   4.056   2.449   0.190  0.5171  0.4071  0.3598
   51MOL   C53638636   4.136   2.364   0.280 -0.4087 -0.2729  0.4209
   51MOL   C53738637   4.105   2.214   0.275 -0.5224  0.0541  0.6091
   51MOL   C53838638   4.289   2.395   0.246 -0.2324 -0.5109 -0.9387
   51MOL   C53938639   4.324   2.544   0.269  0.4092 -0.1141 -0.8978
   51MOL   C54038640   4.222   2.634   0.185  0.0910 -0.6002  0.2550
   51MOL   C54138641   4.232   2.784   0.221  0.1106 -0.5168 -0.0949
   51MOL   O54238642   4.344   2.846   0.161 -0.3731  0.6342 -0.3189
   51MOL   C54338643   4.464   2.853   0.227 -0.1710 -0.0197  0.0827
   51MOL   O54438644   4.499   2.774   0.313 -0.3694 -0.2954 -0.6525
   51MOL   C54538645   4.552   2.962   0.171  0.3393  0.5548  0.2291
   51MOL   C54638646   4.658   3.007   0.250 -0.6112 -0.2833 -0.3381
   51MOL   C54738647   4.739   3.120   0.216 -0.5774  0.5787  0.5049
   51MOL   C54838648   4.711   3.189   0.097  0.2840 -0.0096 -0.8842
   51MOL   C54938649   4.790   3.309   0.051 -0.0772 -0.1865  0.6892
   51MOL   O55038650   4.886   3.359   0.104 -0.1980 -0.5057  0.0667
   51MOL   O55138651   4.739   3.354   7.972 -0.0096 -0.9131 -0.1145
   51MOL   C55238652   4.611   3.134   0.010  0.5835  0.5197  0.7699
   51MOL   C55338653   4.539   3.018   0.043 -0.1768 -0.2626  0.0736
   51MOL   H55438654   4.055   2.616   0.326 -0.8214 -0.8094 -0.1089
   51MOL   H55538655   4.010   2.664   0.162  0.9472 -1.2978 -1.5692
   51MOL   H55638656   4.089   2.427   0.089 -0.9622 -0.6851  0.0986
   51MOL   H55738657   3.949   2.430   0.191  0.2185  1.9380 -1.0130
   51MOL   H55838658   4.123   2.381   0.387 -0.9486  0.3559  0.2630
   51MOL   H55938659   3.999   2.192   0.291 -0.6955 -0.3497 -0.9955
   51MOL   H56038660   4.171   2.168   0.348  0.5918  2.0619  0.9199
   51MOL   H56138661   4.308   2.376   0.140 -1.6692  0.0494 -1.3188
   51MOL   H56238662   4.345   2.324   0.306 -1.8622 -0.9119  0.1309
   51MOL   H56338663   4.307   2.569   0.374  0.5356 -1.4710 -0.5386
   51MOL   H56438664   4.425   2.559   0.232 -0.5654  0.6153 -3.3484
   51MOL   H56538665   4.248   2.620   0.080 -2.4761  0.0214 -0.5031
   51MOL   H56638666   4.231   2.786   0.330 -0.9758  2.6020 -0.1182
   51MOL   H56738667   4.140   2.825   0.180  0.3843 -0.5226 -0.7264
   51MOL   H56838668   4.667   2.969   0.351  2.5804  2.5398  0.5217
   51MOL   H56938669   4.829   3.153   0.267  1.0120 -1.9939 -0.5131
   51MOL   H57038670   4.589   3.180   7.947  0.2092  0.1486  0.6731
   51MOL   H57138671   4.461   2.981   8.009  0.9606 -1.4417 -0.6139
   51MOL   C57238672   4.997   3.384   7.612  0.4895  0.1273 -0.3707
   51MOL   C57338673   4.945   3.383   7.757  1.1438  1.2352  0.2873
   51MOL   C57438674   4.821   3.470   7.770  0.4665 -0.1687  0.2724
   51MOL   C57538675   4.776   3.482   7.917  0.7152  0.1546 -0.1663
   51MOL   C57638676   4.861   3.617   7.728 -0.4757 -0.3972  0.2803
   51MOL   C57738677   4.913   3.623   7.588 -0.4870  0.1919  0.3729
   51MOL   C57838678   5.031   3.528   7.571  0.3429 -0.2322  0.2210
   51MOL   C57938679   5.071   3.523   7.418 -0.4376  0.4136  0.7445
   51MOL   O58038680   5.100   3.648   7.355  0.0537  0.2512  0.1745
   51MOL   C58138681   5.221   3.711   7.364  0.0336  0.3726 -0.0635
   51MOL   O58238682   5.305   3.673   7.441 -0.4624 -0.5229  0.2939
   51MOL   C58338683   5.232   3.837   7.283  0.2527  0.0439  0.4398
   51MOL   C58438684   5.363   3.888   7.270  0.4442 -0.9653 -0.0094
   51MOL   C58538685   5.382   4.012   7.200 -0.1166  0.3780 -0.2393
   51MOL   C58638686   5.272   4.080   7.133 -0.0913 -0.2266  0.7174
   51MOL   C58738687   5.308   4.199   7.049 -0.1593 -0.2457  0.2331
   51MOL   O58838688   5.417   4.258   7.049  0.0884  0.2000  0.1189
   51MOL   O58938689   5.210   4.236   6.971  0.4795  0.7796 -0.0741
   51MOL   C59038690   5.137   4.029   7.150 -0.1442  0.1511  0.7229
   51MOL   C59138691   5.118   3.910   7.235 -0.0884 -0.6703 -0.0053
   51MOL   H59238692   4.914   3.359   7.546  1.3133 -1.9664 -0.6411
   51MOL   H59338693   5.087   3.323   7.602 -0.1562 -1.3466  2.3259
   51MOL   H59438694   5.027   3.409   7.823  1.7891 -1.1893  0.4966
   51MOL   H59538695   4.913   3.280   7.776  1.1679  1.2377  0.3416
   51MOL   H59638696   4.741   3.428   7.710  1.0529  0.6378 -1.0907
   51MOL   H59738697   4.688   3.541   7.942 -0.2382 -0.4865 -1.9111
   51MOL   H59838698   4.852   3.516   7.988  0.0874  1.0674  0.0753
   51MOL   H59938699   4.938   3.654   7.796  2.8171 -5.2148 -0.6400
   51MOL   H60038700   4.784   3.694   7.731 -2.3537 -2.1846 -0.9608
   51MOL   H60138701   4.834   3.605   7.515 -1.4042 -1.0490  1.6394
   51MOL   H60238702   4.944   3.725   7.562 -0.5122  0.2733  0.6611
   51MOL   H60338703   5.117   3.564   7.628  1.3790  0.2462 -1.5878
   51MOL   H60438704   4.982   3.482   7.371  1.7343 -1.8221 -1.5607
   51MOL   H60538705   5.151   3.457   7.387  1.2393  2.7442 -0.0314
   51MOL   H60638706   5.444   3.838   7.322  0.2900 -2.1542 -0.8832
   51MOL   H60738707   5.482   4.050   7.182 -0.4898  0.7518 -1.5405
   51MOL   H60838708   5.058   4.070   7.090  0.1723 -1.1671 -0.6465
   51MOL   H60938709   5.016   3.885   7.259 -0.4259  1.1230  0.5375
   51MOL   C61038710   5.040   4.452   6.562  0.5869 -0.2242 -1.0090
   51MOL   C61138711   5.113   4.470   6.702  0.3765 -0.0543  0.1805
   51MOL   C61238712   5.156   4.334   6.759  0.6475  0.2659 -0.0588
   51MOL   C61338713   5.210   4.353   6.904  0.0351 -0.3129 -0.5512
   51MOL   C61438714   5.043   4.230   6.750 -0.4055 -0.3893 -0.2240
   51MOL   C61538715   4.991   4.204   6.605 -0.0880 -0.3956 -0.2848
   51MOL   C61638716   4.933   4.339   6.570 -0.5988 -0.0294 -0.0193
   51MOL   C61738717   4.852   4.333   6.442 -0.2951 -0.2915 -0.3425
   51MOL   O61838718   4.796   4.457   6.398 -0.0501 -0.2786 -0.2990
   51MOL   C61938719   4.703   4.453   6.296  0.2383  0.8924  0.2133
   51MOL   O62038720   4.655   4.344   6.263  0.0864  0.1199  0.2799
   51MOL   C62138721   4.664   4.588   6.247 -0.2692 -0.2157  0.6197
   51MOL   C62238722   4.573   4.595   6.136 -0.0663  0.4969 -0.1227
   51MOL   C62338723   4.539   4.720   6.079  0.1173  0.2042  0.2097
   51MOL   C62438724   4.603   4.838   6.127 -0.5662  0.3664  0.2043
   51MOL   C62538725   4.565   4.968   6.066 -0.3687  0.5277 -0.1714
   51MOL   O62638726   4.487   4.976   5.972  0.3820  0.0910  0.2258
   51MOL   O62738727   4.631   5.068   6.118  0.6483 -0.3462 -0.1367
   51MOL   C62838728   4.675   4.831   6.245  0.3546 -0.2374 -0.4754
   51MOL   C62938729   4.713   4.709   6.302 -0.2207  0.1923 -0.3998
   51MOL   H63038730   5.112   4.416   6.488  1.3903 -0.5086 -0.0985
   51MOL   H63138731   4.992   4.545   6.534 -0.5757 -0.2406  0.8994
   51MOL   H63238732   5.047   4.519   6.773 -0.9577 -0.7801 -0.5381
   51MOL   H63338733   5.197   4.537   6.686 -1.0425  1.0249 -3.1354
   51MOL   H63438734   5.239   4.288   6.704  0.5789  0.2968 -0.1902
   51MOL   H63538735   5.137   4.418   6.953  0.0333 -0.8177  0.1217
   51MOL   H63638736   5.300   4.414   6.920 -0.1281 -1.0706  3.7639
   51MOL   H63738737   4.969   4.259   6.825  2.0093  0.9798  1.7046
   51MOL   H63838738   5.084   4.138   6.791 -1.1830 -0.3486  0.6670
   51MOL   H63938739   5.072   4.176   6.537 -0.2506 -1.0610 -0.2047
   51MOL   H64038740   4.918   4.124   6.609 -1.2786  0.7169  0.5237
   51MOL   H64138741   4.864   4.361   6.651 -1.4416 -1.6546 -0.2795
   51MOL   H64238742   4.768   4.264   6.452  1.2526 -2.0586  0.9051
   51MOL   H64338743   4.905   4.287   6.359  0.2374 -0.7355  0.2422
   51MOL   H64438744   4.524   4.504   6.104  0.1523  0.9695 -1.8494
   51MOL   H64538745   4.478   4.717   5.990  0.1635 -0.4673  0.1989
   51MOL   H64638746   4.696   4.920   6.302 -0.2949  0.3181 -1.0887
   51MOL   H64738747   4.776   4.710   6.390 -0.1508 -1.2408 -0.4195
   51MOL   C64838748   4.725   5.497   5.891 -0.2086  0.1419  0.1451
   51MOL   C64938749   4.640   5.414   5.988  0.3382 -0.4141  0.6089
   51MOL   C65038750   4.691   5.275   6.002 -0.5698  0.3841 -0.1790
   51MOL   C65138751   4.597   5.201   6.096  0.8132  0.0432  0.1648
   51MOL   C65238752   4.725   5.204   5.856 -0.0272  0.5361 -0.5913
   51MOL   C65338753   4.796   5.297   5.762 -0.3092 -0.2031  0.2531
   51MOL   C65438754   4.731   5.428   5.756  0.5307 -0.0422  0.5699
   51MOL   C65538755   4.790   5.521   5.650 -0.8984  0.0002 -0.0303
   51MOL   O65638756   4.740   5.656   5.662  0.0082  0.0532 -0.0666
   51MOL   C65738757   4.643   5.702   5.581 -0.3963 -0.5155 -0.1507
   51MOL   O65838758   4.589   5.636   5.489  0.0009  0.8967  0.3983
   51MOL   C65938759   4.623   5.845   5.615 -0.1436  0.0822 -0.0588
   51MOL   C66038760   4.580   5.936   5.515  0.1730  0.4095 -0.0904
   51MOL   C66138761   4.566   6.075   5.546 -0.7793 -0.0113 -0.8028
   51MOL   C66238762   4.618   6.117   5.669 -0.0002  0.5227  0.3514
   51MOL   C66338763   4.624   6.268   5.696  0.3002  0.2558  0.3653
   51MOL   O66438764   4.574   6.349   5.614  0.3272 -0.0192  0.1660
   51MOL   O66538765   4.701   6.296   5.800  0.1180  0.7047  0.4805
   51MOL   C66638766   4.657   6.029   5.767  0.0510 -0.0481 -0.2810
   51MOL   C66738767   4.663   5.893   5.740 -0.2775  0.2539 -0.2176
   51MOL   H66838768   4.820   5.505   5.944  0.5920 -0.6507 -1.1439
   51MOL   H66938769   4.686   5.598   5.879  1.0158  0.7814  1.3618
   51MOL   H67038770   4.534   5.414   5.963  0.3519 -0.7801  0.5433
   51MOL   H67138771   4.642   5.470   6.082 -1.2740 -0.3437  0.6175
   51MOL   H67238772   4.790   5.274   6.047 -0.8300 -2.0315  0.3948
   51MOL   H67338773   4.498   5.204   6.050 -0.0300 -0.2155  1.9359
   51MOL   H67438774   4.591   5.249   6.193 -0.2875 -1.7956  1.0451
   51MOL   H67538775   4.627   5.182   5.813 -1.4653  2.1585  1.7541
   51MOL   H67638776   4.782   5.111   5.860 -2.1279 -0.7428  0.3841
   51MOL   H67738777   4.904   5.299   5.780  0.0210  2.9529 -1.7447
   51MOL   H67838778   4.788   5.262   5.659  1.7306 -1.1559  0.3857
   51MOL   H67938779   4.628   5.422   5.720 -0.2994  2.7218  2.2982
   51MOL   H68038780   4.781   5.492   5.545  1.9691  2.5033 -1.0465
   51MOL   H68138781   4.898   5.525   5.663 -1.0672  2.3282  0.9925
   51MOL   H68238782   4.555   5.892   5.420  3.7463 -0.5548 -0.6724
   51MOL   H68338783   4.547   6.152   5.473 -1.6484  1.2802  0.7563
   51MOL   H68438784   4.690   6.068   5.862 -1.3738  0.6433 -0.0591
   51MOL   H68538785   4.680   5.829   5.826  2.1317  2.5099  1.0849
   51MOL   C68638786   4.862   6.358   6.195  0.3064 -0.2465 -0.2822
   51MOL   C68738787   4.868   6.366   6.039  0.1998  0.4235 -0.3963
   51MOL   C68838788   4.731   6.426   5.993 -0.0635  0.0569 -0.4251
   51MOL   C68938789   4.719   6.430   5.836  0.5066  0.3259 -0.2641
   51MOL   C69038790   4.613   6.350   6.059  0.2413 -0.4884 -0.2158
   51MOL   C69138791   4.608   6.343   6.208  0.4352 -0.4277  0.3146
   51MOL   C69238792   4.741   6.282   6.257  0.0624  0.7768 -0.8569
   51MOL   C69338793   4.749   6.257   6.406 -0.6467  0.5199 -0.4271
   51MOL   O69438794   4.751   6.377   6.482  0.0573 -0.4307 -0.1874
   51MOL   C69538795   4.806   6.377   6.610 -0.6849  0.3101 -0.5161
   51MOL   O69638796   4.874   6.280   6.654 -0.4546  0.1823 -0.2762
   51MOL   C69738797   4.775   6.499   6.689 -0.3283  0.5727 -0.4533
   51MOL   C69838798   4.828   6.507   6.822 -1.0661 -0.0864 -0.1742
   51MOL   C69938799   4.796   6.618   6.909  0.2278  0.5092 -0.6995
   51MOL   C70038800   4.705   6.716   6.862 -0.2149  0.0881  0.0652
   51MOL   C70138801   4.669   6.830   6.948  0.3994 -0.0121  0.4422
   51MOL   O70238802   4.596   6.924   6.915 -0.0005  0.1041  0.0778
   51MOL   O70338803   4.723   6.827   7.072  0.1451  0.8394 -0.7777
   51MOL   C70438804   4.653   6.711   6.730 -0.2093  0.1505  0.5261
   51MOL   C70538805   4.684   6.601   6.648 -0.3194  0.0203  0.3307
   51MOL   H70638806   4.849   6.461   6.228  0.0136  0.7582 -3.3435
   51MOL   H70738807   4.951   6.308   6.235 -0.6697 -0.0670  2.1917
   51MOL   H70838808   4.889   6.274   5.984  2.0208  1.0028 -0.7074
   51MOL   H70938809   4.943   6.437   6.003  0.7088  0.3469  0.4934
   51MOL   H71038810   4.716   6.531   6.019  2.3426  0.2767  0.1911
   51MOL   H71138811   4.812   6.463   5.789  0.5079  2.5584  1.2518
   51MOL   H71238812   4.632   6.489   5.806  1.0533  0.5448 -1.4648
   51MOL   H71338813   4.611   6.243   6.036 -0.9183 -1.0797  2.3552
   51MOL   H71438814   4.515   6.385   6.026  0.1148 -1.8471 -1.3172
   51MOL   H71538815   4.607   6.440   6.259 -0.1137 -0.0637 -0.3868
   51MOL   H71638816   4.526   6.285   6.251  0.3437  2.0252  3.7131
   51MOL   H71738817   4.754   6.184   6.211  2.8725  1.0970 -0.8083
   51MOL   H71838818   4.834   6.194   6.432 -0.4842  0.0448 -2.0173
   51MOL   H71938819   4.663   6.195   6.432 -1.1011  1.0922 -0.5546
   51MOL   H72038820   4.903   6.442   6.866  0.0174 -0.8045 -2.9418
   51MOL   H72138821   4.831   6.620   7.011 -0.7042  2.5062 -0.3876
   51MOL   H72238822   4.584   6.787   6.698 -0.1472  0.1063  0.2905
   51MOL   H72338823   4.635   6.603   6.552 -2.8242 -0.4728  1.5432
   51MOL   C72438824   4.889   7.073   7.467 -0.3630 -0.4371  0.3808
   51MOL   C72538825   4.792   7.079   7.348 -0.8507 -0.0547  0.3121
   51MOL   C72638826   4.809   6.946   7.274  0.5434 -0.3194 -0.1256
   51MOL   C72738827   4.708   6.945   7.157 -0.3715  0.3209 -0.6467
   51MOL   C72838828   4.952   6.921   7.223  0.1245  0.4357 -0.2288
   51MOL   C72938829   5.048   6.932   7.342  0.2020 -0.2168  0.5570
   51MOL   C73038830   5.039   7.061   7.430 -0.4343  0.5324 -0.3259
   51MOL   C73138831   5.135   7.070   7.551 -0.0592  1.0084  0.5135
   51MOL   O73238832   5.124   7.190   7.620 -0.3324  0.2121  0.5235
   51MOL   C73338833   5.170   7.194   7.747  0.3054  0.2902 -0.8510
   51MOL   O73438834   5.228   7.100   7.805  0.1061  0.0318 -0.0479
   51MOL   C73538835   5.147   7.323   7.814 -0.4443 -0.4450  0.6685
   51MOL   C73638836   5.201   7.347   7.945  0.0916  0.3512  0.9616
   51MOL   C73738837   5.182   7.474   8.008  0.6300 -0.5350  0.3458
   51MOL   C73838838   5.087   7.563   7.957  0.1175  0.4119 -0.6328
   51MOL   C73938839   5.055   7.693   0.001 -0.2268  0.5267  0.1139
   51MOL   O74038840   4.990   7.783   7.982  0.1758 -0.3843  0.1404
   51MOL   O74138841   5.089   7.690   0.132  0.1567  0.3578 -0.0437
   51MOL   C74238842   5.011   7.523   7.843  0.7911  0.4905  0.3893
   51MOL   C74338843   5.049   7.413   7.767 -0.4319  0.1121 -0.2053
   51MOL   H74438844   4.868   6.979   7.519  1.1563  0.5972  2.9860
   51MOL   H74538845   4.878   7.156   7.536  0.8364 -2.5295  3.2143
   51MOL   H74638846   4.805   7.168   7.287  1.1944  0.9837  2.2098
   51MOL   H74738847   4.689   7.090   7.384 -1.5208 -1.5560 -1.0716
   51MOL   H74838848   4.774   6.869   7.344 -0.8266  1.1949  0.8767
   51MOL   H74938849   4.709   7.035   7.096  1.7643  0.3860 -0.5766
   51MOL   H75038850   4.607   6.939   7.196 -0.6246  1.0839 -1.1850
   51MOL   H75138851   4.963   7.018   7.174 -3.9758  0.1956 -1.8699
   51MOL   H75238852   4.969   6.838   7.155  1.5858 -1.7498  2.7248
   51MOL   H75338853   5.030   6.855   7.416  0.6948  0.0814  0.9928
   51MOL   H75438854   5.152   6.934   7.309  0.2920 -2.8346  0.6046
   51MOL   H75538855   5.066   7.152   7.376  0.6122 -0.5594 -1.6853
   51MOL   H75638856   5.236   7.048   7.517 -0.8345 -1.7722 -0.1363
   51MOL   H75738857   5.111   6.994   7.625 -0.8860  1.2026  0.4498
   51MOL   H75838858   5.262   7.270   7.988 -1.5676 -1.2044  0.5717
   51MOL   H75938859   5.241   7.489   0.065 -1.4985  1.4708  1.4872
   51MOL   H76038860   4.939   7.599   7.819 -2.0385 -1.7665  1.4480
   51MOL   H76138861   5.010   7.393   7.669  0.2511  2.3862 -0.9730
   51MOL   H76238862   5.066   7.772   0.173  3.4289  2.6008 -2.4364
   52MOL     C138863   3.616   5.538   0.355  0.7222 -0.5432  0.7384
   52MOL     C238864   3.568   5.485   0.490 -0.1651 -0.1008  0.2993
   52MOL     C338865   3.569   5.594   0.596 -0.2768  0.5836 -0.7216
   52MOL     C438866   3.514   5.529   0.723  0.6519  0.5398  0.4182
   52MOL     C538867   3.706   5.653   0.610 -0.2251 -0.9298  0.7002
   52MOL     C638868   3.751   5.712   0.475  0.1292 -0.2877  0.1130
   52MOL     C738869   3.752   5.608   0.363  0.1247 -0.7839  0.2796
   52MOL     C838870   3.789   5.662   0.220  0.2147  0.7172 -0.4188
   52MOL     O938871   3.921   5.703   0.215 -0.1383  0.1123  0.0052
   52MOL    C1038872   3.979   5.717   0.092  0.1893 -0.5066 -0.0961
   52MOL    O1138873   3.913   5.709   8.019  0.2669 -0.2803  0.0750
   52MOL    C1238874   4.124   5.744   0.102 -0.2806  0.1403  0.2448
   52MOL    C1338875   4.196   5.735   0.224 -0.4411 -0.3225  0.7051
   52MOL    C1438876   4.332   5.780   0.234  0.4229  0.0867 -0.2962
   52MOL    C1538877   4.397   5.832   0.118  0.1913  0.3498  0.1042
   52MOL    C1638878   4.534   5.879   0.114 -0.2672 -0.6824 -0.9275
   52MOL    O1738879   4.579   5.947   0.026 -0.0547 -0.2826 -0.1312
   52MOL    O1838880   4.607   5.832   0.214  0.7103  0.3716 -0.2032
   52MOL    C1938881   4.320   5.842   8.032  0.1776 -0.0947 -0.7014
   52MOL    C2038882   4.187   5.794   8.020 -0.2100  0.4922  0.7255
   52MOL    H2138883   3.551   5.615   0.314 -0.4774 -2.0349 -0.1897
   52MOL    H2238884   3.623   5.454   0.286  1.1571  0.1085 -0.0353
   52MOL    H2338885   3.640   5.409   0.520  2.1240  1.7275 -0.3650
   52MOL    H2438886   3.476   5.428   0.478  0.1128 -0.6515  0.7345
   52MOL    H2538887   3.500   5.672   0.565 -0.5632  1.3452  1.7263
   52MOL    H2638888   3.500   5.614   0.790  1.7847 -0.7919  2.3594
   52MOL    H2738889   3.566   5.442   0.762  0.5020 -0.2408 -1.0903
   52MOL    H2838890   3.778   5.576   0.637  0.9147 -0.4970 -1.0338
   52MOL    H2938891   3.707   5.725   0.691  1.8594  0.5430 -0.5852
   52MOL    H3038892   3.700   5.802   0.443 -1.6547 -0.6617  1.8449
   52MOL    H3138893   3.853   5.748   0.484 -0.6447  1.6495  1.4042
   52MOL    H3238894   3.823   5.533   0.401  0.5658 -0.7837 -0.5311
   52MOL    H3338895   3.722   5.745   0.194  0.0579  1.1528  1.3449
   52MOL    H3438896   3.764   5.579   0.154 -0.7823 -0.9377  1.9746
   52MOL    H3538897   4.154   5.703   0.319  2.5404  4.1948  3.7585
   52MOL    H3638898   4.383   5.769   0.329 -1.9853 -1.1701  0.8891
   52MOL    H3738899   4.356   5.896   7.945  1.1102  0.2712 -0.0838
   52MOL    H3838900   4.131   5.805   7.928  1.6750 -0.6145 -0.5981
   52MOL    H3938901   3.412   5.497   0.702  0.7481  0.6876 -0.3000
   52MOL    C4038902   5.043   5.694   0.394  0.5876 -0.9989  0.7334
   52MOL    C4138903   4.959   5.810   0.331  0.1965 -0.3339 -0.1537
   52MOL    C4238904   4.822   5.761   0.283  0.0754  0.9060 -0.6278
   52MOL    C4338905   4.745   5.873   0.224  0.3844  0.1021  0.2162
   52MOL    C4438906   4.833   5.633   0.194  0.5002 -0.5802 -0.1027
   52MOL    C4538907   4.939   5.526   0.245  0.1900  0.3323  0.5407
   52MOL    C4638908   5.067   5.591   0.283  0.0621 -0.1632 -0.2930
   52MOL    C4738909   5.169   5.479   0.320 -0.8796  0.2465 -0.1129
   52MOL    O4838910   5.195   5.418   0.202 -0.0900  0.1503 -0.0281
   52MOL    C4938911   5.281   5.314   0.200 -0.2582  0.2189  0.1710
   52MOL    O5038912   5.353   5.283   0.300 -0.1979 -0.9418 -0.0392
   52MOL    C5138913   5.282   5.232   0.069 -0.6180  0.0181  0.2121
   52MOL    C5238914   5.183   5.257   7.999  0.1813 -0.2119  0.6715
   52MOL    C5338915   5.182   5.191   7.876 -0.4216 -0.2582 -0.1962
   52MOL    C5438916   5.269   5.080   7.856  0.0522 -0.2054  0.4243
   52MOL    C5538917   5.274   4.994   7.736  0.2439 -0.4655  0.6458
   52MOL    O5638918   5.352   4.901   7.718 -0.2057 -0.8468  0.6870
   52MOL    O5738919   5.181   5.018   7.643 -0.7762  0.2689 -0.2310
   52MOL    C5838920   5.367   5.054   7.953 -0.2859 -0.3932  0.3860
   52MOL    C5938921   5.385   5.131   0.038 -0.3788  0.1943  0.2666
   52MOL    H6038922   4.997   5.653   0.483  0.4072 -2.6628 -0.1076
   52MOL    H6138923   5.132   5.731   0.446 -0.2458  0.5652  1.0786
   52MOL    H6238924   5.007   5.863   0.249  1.1827 -0.1373  0.5457
   52MOL    H6338925   4.955   5.887   0.408 -0.5642 -0.7130  0.1925
   52MOL    H6438926   4.763   5.728   0.369 -0.6975 -0.8490 -1.7913
   52MOL    H6538927   4.798   5.886   0.129 -1.7833 -1.3355 -1.2542
   52MOL    H6638928   4.750   5.964   0.284 -0.4072 -0.6125  1.3748
   52MOL    H6738929   4.880   5.661   0.099  2.1211  0.8366  1.0956
   52MOL    H6838930   4.729   5.602   0.182  0.3151  0.2183 -0.6133
   52MOL    H6938931   4.892   5.468   0.324 -1.3971 -2.2155 -2.1636
   52MOL    H7038932   4.951   5.450   0.169 -0.1262  0.1422  0.6806
   52MOL    H7138933   5.104   5.647   0.197  0.3287  0.4072  0.1855
   52MOL    H7238934   5.139   5.406   0.396  2.0201 -1.7105 -0.7415
   52MOL    H7338935   5.260   5.517   0.365 -2.0568 -0.3341  2.8503
   52MOL    H7438936   5.107   5.331   8.018 -1.6170 -2.1668  1.2640
   52MOL    H7538937   5.105   5.221   7.807 -0.0117 -0.5639 -0.7903
   52MOL    H7638938   5.436   4.972   7.936  1.2822  1.0964 -0.6314
   52MOL    H7738939   5.468   5.110   0.104  0.0984  0.9442 -0.0810
   52MOL    C7838940   4.957   4.991   7.199  0.4002 -0.3131 -0.3575
   52MOL    C7938941   5.077   4.950   7.281  0.2419 -0.0219 -0.2464
   52MOL    C8038942   5.065   5.006   7.429 -0.1072 -0.4024  1.1709
   52MOL    C8138943   5.190   4.974   7.513 -0.4745 -0.6651 -0.5264
   52MOL    C8238944   5.047   5.157   7.416  0.2810 -0.7417 -0.2287
   52MOL    C8338945   4.935   5.204   7.323  0.0461  0.1001  0.0462
   52MOL    C8438946   4.955   5.146   7.184 -0.4404 -0.1654 -0.7991
   52MOL    C8538947   4.855   5.186   7.086 -0.4558  0.4168  0.5078
   52MOL    O8638948   4.898   5.173   6.951 -0.0999  0.1271 -0.1060
   52MOL    C8738949   4.935   5.279   6.871  0.3294 -0.5601 -0.0343
   52MOL    O8838950   4.949   5.392   6.912 -0.1463 -0.4131  0.5767
   52MOL    C8938951   4.950   5.232   6.730  0.2626 -0.6511 -0.6683
   52MOL    C9038952   4.915   5.104   6.687  0.6197  0.2812  0.5993
   52MOL    C9138953   4.931   5.071   6.549  0.2188 -0.3403  0.0117
   52MOL    C9238954   4.979   5.169   6.456 -0.2797  0.3888  0.8187
   52MOL    C9338955   4.985   5.143   6.314  0.0967 -0.3999 -1.0601
   52MOL    O9438956   5.009   5.231   6.226 -0.1840  0.3474 -0.2230
   52MOL    O9538957   4.956   5.014   6.283  0.0932 -0.1077  0.6016
   52MOL    C9638958   5.028   5.293   6.500 -0.5948 -0.6847 -0.1305
   52MOL    C9738959   5.006   5.327   6.637 -0.2087  0.0249  0.3700
   52MOL    H9838960   4.868   4.933   7.222 -0.3646  0.4585 -1.3164
   52MOL    H9938961   4.973   4.951   7.099  0.7784  1.1075 -0.8933
   52MOL   H10038962   5.174   4.985   7.243  0.0298  1.2357  0.3559
   52MOL   H10138963   5.088   4.842   7.295 -0.3321  0.0219  0.5221
   52MOL   H10238964   4.974   4.966   7.475  0.2916 -3.1041 -0.3529
   52MOL   H10338965   5.277   5.020   7.466 -0.9709 -1.0251 -1.8243
   52MOL   H10438966   5.209   4.867   7.513 -0.4624 -0.7057  2.6020
   52MOL   H10538967   5.146   5.183   7.378  0.9788 -1.2660  1.2100
   52MOL   H10638968   5.030   5.210   7.510 -3.5852 -2.5126  0.1521
   52MOL   H10738969   4.838   5.167   7.357 -0.3094  0.7161 -0.2821
   52MOL   H10838970   4.937   5.313   7.323 -0.5942  0.1151 -0.9320
   52MOL   H10938971   5.053   5.177   7.148  0.4255 -1.7289  0.1936
   52MOL   H11038972   4.800   5.280   7.094 -1.1172  0.0164  0.7325
   52MOL   H11138973   4.781   5.107   7.093  3.0717 -2.8343  3.0554
   52MOL   H11238974   4.865   5.033   6.751  0.4314 -0.3583 -0.2486
   52MOL   H11338975   4.903   4.971   6.520  2.1790  0.0687 -3.6694
   52MOL   H11438976   5.065   5.364   6.428 -0.1032 -1.2652 -0.4598
   52MOL   H11538977   5.029   5.426   6.673  2.5592 -0.7568  0.8376
   52MOL   C11638978   5.123   4.591   6.205  0.5509  0.1156 -0.4298
   52MOL   C11738979   5.024   4.712   6.213  0.5542 -0.2401  0.2495
   52MOL   C11838980   5.086   4.838   6.147 -0.3186  0.0201 -0.4466
   52MOL   C11938981   4.997   4.965   6.153 -0.1670  0.2758  0.6671
   52MOL   C12038982   5.228   4.874   6.205 -0.6388 -0.0218 -0.3856
   52MOL   C12138983   5.312   4.744   6.217  0.1897 -0.1063 -0.3457
   52MOL   C12238984   5.253   4.621   6.283  0.1917 -0.6353 -0.0741
   52MOL   C12338985   5.347   4.502   6.280  0.6814  0.3906  0.2904
   52MOL   O12438986   5.439   4.519   6.380  0.0046  0.0893 -0.2160
   52MOL   C12538987   5.453   4.424   6.475 -0.4085  0.1475  0.0335
   52MOL   O12638988   5.387   4.321   6.487  0.7943  0.5887 -1.0933
   52MOL   C12738989   5.556   4.460   6.574  0.7398 -0.2534  0.3180
   52MOL   C12838990   5.670   4.543   6.554  0.7130  0.4649 -0.4458
   52MOL   C12938991   5.767   4.560   6.649 -0.5421 -0.0887 -0.0674
   52MOL   C13038992   5.755   4.499   6.777 -0.1724 -0.5670  0.0886
   52MOL   C13138993   5.859   4.520   6.878  0.0059  0.2023  0.0160
   52MOL   O13238994   5.884   4.449   6.972 -0.3662 -0.2002 -0.0774
   52MOL   O13338995   5.919   4.631   6.863  0.3939 -0.1157  0.4717
   52MOL   C13438996   5.642   4.426   6.809 -0.2185  0.2979 -0.0398
   52MOL   C13538997   5.552   4.400   6.700  0.2515  0.7952  0.2161
   52MOL   H13638998   5.148   4.570   6.101 -0.4560 -2.3036 -0.2062
   52MOL   H13738999   5.077   4.511   6.263 -0.0528  0.5584 -0.2834
   52MOL   H13839000   4.999   4.730   6.317 -1.1900  0.0324 -0.2064
   52MOL   H13939001   4.935   4.684   6.157 -0.0655  1.4689  0.3435
   52MOL   H14039002   5.098   4.821   6.040 -0.8829 -0.7372 -0.3858
   52MOL   H14139003   4.910   4.933   6.095  0.7338 -0.7229 -0.1344
   52MOL   H14239004   5.043   5.047   6.098 -1.7243  2.6583  2.8066
   52MOL   H14339005   5.206   4.913   6.305  0.2508 -0.9559  0.1854
   52MOL   H14439006   5.276   4.950   6.143 -1.7753 -0.4490 -1.8017
   52MOL   H14539007   5.348   4.717   6.118 -1.4822 -1.4508 -0.6167
   52MOL   H14639008   5.399   4.768   6.278  0.7110  0.5210 -1.3188
   52MOL   H14739009   5.229   4.653   6.384  1.1668  1.9648 -0.6306
   52MOL   H14839010   5.402   4.473   6.191 -1.4535 -0.6052 -0.7562
   52MOL   H14939011   5.282   4.418   6.306 -1.0641  2.1283  1.6848
   52MOL   H15039012   5.681   4.573   6.450 -0.9397 -0.6073 -0.9345
   52MOL   H15139013   5.850   4.621   6.616  0.0916 -1.8458 -1.8338
   52MOL   H15239014   5.634   4.382   6.907 -0.0438  1.9046  0.7032
   52MOL   H15339015   5.477   4.324   6.718 -0.1145  1.2770  0.7395
   52MOL   C15439016   5.988   5.060   6.878  0.3340  0.5953  0.8885
   52MOL   C15539017   5.942   4.917   6.911  0.1001  0.1882  0.0292
   52MOL   C15639018   6.070   4.821   6.905  0.5590  0.0148  0.0536
   52MOL   C15739019   6.027   4.680   6.945 -0.2933  0.2632 -0.0686
   52MOL   C15839020   6.140   4.830   6.763 -0.0548  0.4168  0.1664
   52MOL   C15939021   6.189   4.972   6.741  0.1774  0.2340 -0.0701
   52MOL   C16039022   6.068   5.070   6.743 -0.2427 -0.0084 -0.3652
   52MOL   C16139023   6.103   5.218   6.713 -0.5376  0.3892 -0.9355
   52MOL   O16239024   6.191   5.266   6.819  0.4697  0.0697 -0.2502
   52MOL   C16339025   6.262   5.376   6.798 -0.3021  0.0933  1.0688
   52MOL   O16439026   6.259   5.429   6.688  0.2288 -0.5899 -0.0260
   52MOL   C16539027   6.337   5.413   6.921 -0.5079  0.6575 -0.6237
   52MOL   C16639028   6.298   5.375   7.048  0.2170  0.1392  0.0406
   52MOL   C16739029   6.367   5.433   7.154  0.8155  0.1601 -0.2254
   52MOL   C16839030   6.488   5.510   7.135 -0.2056 -0.0577  0.3822
   52MOL   C16939031   6.567   5.557   7.248  0.1649  0.1691 -0.1155
   52MOL   O17039032   6.670   5.621   7.237 -0.3334  0.0621  0.8389
   52MOL   O17139033   6.511   5.529   7.362  0.8992  0.2251  0.2166
   52MOL   C17239034   6.526   5.546   7.008  0.5725  0.5355  0.1143
   52MOL   C17339035   6.451   5.491   6.901 -0.6553 -0.0195  1.0073
   52MOL   H17439036   6.055   5.101   6.953  0.3848  1.5552  0.3329
   52MOL   H17539037   5.903   5.127   6.877 -0.0562  0.1379 -2.0406
   52MOL   H17639038   5.873   4.893   6.831  1.8844  0.8221 -1.7389
   52MOL   H17739039   5.881   4.921   7.002  0.6294 -1.1404  0.4500
   52MOL   H17839040   6.151   4.843   6.973 -1.2884  0.7821  2.0672
   52MOL   H17939041   5.979   4.690   7.042  3.5545 -1.0182  2.0472
   52MOL   H18039042   6.107   4.607   6.952 -1.0302 -0.4699  0.7539
   52MOL   H18139043   6.076   4.794   6.682  0.6972  0.6898 -0.5639
   52MOL   H18239044   6.232   4.771   6.755 -0.4086 -0.0215 -0.8237
   52MOL   H18339045   6.277   5.004   6.798  2.2516  0.8352 -3.4173
   52MOL   H18439046   6.216   4.967   6.635  0.3947  0.5074 -0.0290
   52MOL   H18539047   5.995   5.038   6.668 -0.4917  0.0106 -0.1340
   52MOL   H18639048   6.012   5.278   6.721 -0.7942 -0.1435  0.2118
   52MOL   H18739049   6.151   5.221   6.615 -0.6437 -2.0131 -1.0968
   52MOL   H18839050   6.206   5.319   7.059  1.4647 -2.3499 -1.8248
   52MOL   H18939051   6.334   5.402   7.251  1.7650  0.3429  0.1619
   52MOL   H19039052   6.613   5.608   6.991 -0.0595  0.6644 -2.8765
   52MOL   H19139053   6.479   5.518   6.800 -0.8991 -1.2802  0.5821
   52MOL   C19239054   6.212   5.536   7.658  0.0608  0.3300 -0.5948
   52MOL   C19339055   6.311   5.591   7.549  0.1210  0.5232  0.0467
   52MOL   C19439056   6.457   5.549   7.583  0.4655  0.1722  0.4902
   52MOL   C19539057   6.559   5.588   7.473  0.2640 -0.3197 -0.7462
   52MOL   C19639058   6.491   5.601   7.724  0.5742  0.4881 -1.0284
   52MOL   C19739059   6.398   5.533   7.826 -0.6740  0.3409  0.5671
   52MOL   C19839060   6.247   5.567   7.805  0.0152  0.1161  1.0262
   52MOL   C19939061   6.154   5.486   7.900 -0.5291  0.3096  0.0709
   52MOL   O20039062   6.204   5.490   8.030  0.1438 -0.0556  0.6227
   52MOL   C20139063   6.191   5.593   0.076  0.4610 -0.1089 -0.6525
   52MOL   O20239064   6.129   5.696   0.044 -0.0447 -0.0805  0.9768
   52MOL   C20339065   6.256   5.580   0.210 -0.7727  1.0371  0.1239
   52MOL   C20439066   6.266   5.691   0.299 -0.3180 -0.5201  0.6767
   52MOL   C20539067   6.327   5.665   0.420  0.4883 -0.4767 -0.3821
   52MOL   C20639068   6.372   5.539   0.461 -0.1860 -0.1113  0.5547
   52MOL   C20739069   6.410   5.516   0.600  0.2142 -0.5109  0.4865
   52MOL   O20839070   6.428   5.599   0.688  0.0891 -0.3268  0.1629
   52MOL   O20939071   6.430   5.384   0.631 -0.2824  0.6931  0.5521
   52MOL   C21039072   6.360   5.424   0.372 -0.5956  0.0414  0.2157
   52MOL   C21139073   6.300   5.447   0.249 -0.4448 -0.4265 -1.1026
   52MOL   H21239074   6.199   5.428   7.649 -2.0698  0.2929  2.3447
   52MOL   H21339075   6.116   5.586   7.656  1.4681  3.1651  0.1475
   52MOL   H21439076   6.320   5.700   7.555 -0.0021  0.7189 -2.6254
   52MOL   H21539077   6.271   5.556   7.454  0.0779  1.7671 -0.4093
   52MOL   H21639078   6.476   5.442   7.593 -0.5466 -0.1481 -0.7507
   52MOL   H21739079   6.656   5.547   7.501 -0.9700 -2.9661 -0.1272
   52MOL   H21839080   6.550   5.696   7.470 -2.6232 -0.4482  1.3313
   52MOL   H21939081   6.485   5.710   7.729  2.9145  0.6778 -1.3691
   52MOL   H22039082   6.597   5.582   7.743  0.1013 -4.1953 -2.5158
   52MOL   H22139083   6.407   5.424   7.822 -1.7291  0.2906 -0.7611
   52MOL   H22239084   6.433   5.564   7.924  0.3152 -0.0676  0.3487
   52MOL   H22339085   6.234   5.670   7.838  0.3642 -0.2397  2.3148
   52MOL   H22439086   6.141   5.386   7.858  2.1256  0.0276 -0.1543
   52MOL   H22539087   6.056   5.534   7.898 -0.6766  0.2145  2.9913
   52MOL   H22639088   6.234   5.789   0.268  1.3973 -0.0246  0.4057
   52MOL   H22739089   6.337   5.747   0.489  0.6690 -0.4178 -0.4795
   52MOL   H22839090   6.376   5.319   0.393  1.3624 -0.0461 -1.6212
   52MOL   H22939091   6.286   5.361   0.185 -2.3512 -1.1584  0.2494
   52MOL   C23039092   6.210   5.209   1.049  0.1384  0.5433 -0.4205
   52MOL   C23139093   6.334   5.268   0.984 -0.4284 -0.0024  0.4164
   52MOL   C23239094   6.322   5.281   0.829 -0.1192 -0.3526 -0.6257
   52MOL   C23339095   6.457   5.339   0.767  0.1635 -0.0158  0.0962
   52MOL   C23439096   6.262   5.164   0.756 -0.8523 -0.6778  0.3910
   52MOL   C23539097   6.133   5.118   0.827  0.2618 -0.5621 -0.3800
   52MOL   C23639098   6.172   5.080   0.981 -0.2480  0.6961 -0.1620
   52MOL   C23739099   6.048   5.019   1.047 -0.3974 -0.5658  0.6618
   52MOL   O23839100   6.077   4.966   1.176  0.2181 -0.0806  0.3078
   52MOL   C23939101   6.000   4.871   1.234  0.2422  0.4490 -0.0553
   52MOL   O24039102   5.904   4.816   1.174 -0.3164  0.1056  0.0869
   52MOL   C24139103   6.044   4.825   1.368 -0.1352  0.4291 -0.8558
   52MOL   C24239104   5.965   4.728   1.443 -0.1680  0.0028 -0.0334
   52MOL   C24339105   6.005   4.693   1.573 -0.3939  0.0285  0.8582
   52MOL   C24439106   6.123   4.739   1.632 -0.3168  0.2375  0.9092
   52MOL   C24539107   6.153   4.702   1.767 -0.4320  0.8219 -0.2345
   52MOL   O24639108   6.079   4.626   1.830  0.8803  0.2212 -0.0927
   52MOL   O24739109   6.261   4.771   1.812 -0.1466 -0.2563 -0.4371
   52MOL   C24839110   6.206   4.826   1.556  0.1447  0.4433 -0.1448
   52MOL   C24939111   6.169   4.870   1.426 -0.0878 -0.0518 -0.1575
   52MOL   H25039112   6.124   5.276   1.047 -0.3690 -0.1601 -3.0218
   52MOL   H25139113   6.229   5.182   1.153  0.8135  1.9748 -0.1683
   52MOL   H25239114   6.428   5.217   1.007 -1.7750 -1.3272  3.2771
   52MOL   H25339115   6.356   5.370   1.016 -1.3674  0.8211 -1.5362
   52MOL   H25439116   6.246   5.359   0.821 -0.0400 -0.2833 -0.7163
   52MOL   H25539117   6.535   5.264   0.762 -0.5950 -0.7545 -0.9168
   52MOL   H25639118   6.494   5.419   0.830  1.0580  1.5704 -2.3734
   52MOL   H25739119   6.324   5.074   0.758  2.3280  1.4420  2.0500
   52MOL   H25839120   6.248   5.187   0.650 -1.6540  0.3500  0.7131
   52MOL   H25939121   6.054   5.192   0.820  0.9621  0.2269  0.0288
   52MOL   H26039122   6.102   5.025   0.779 -2.6523  0.7457 -1.1122
   52MOL   H26139123   6.245   4.999   0.977 -0.9756 -0.1094  2.2441
   52MOL   H26239124   6.005   4.946   0.979 -1.5235  0.5034  0.1964
   52MOL   H26339125   5.969   5.092   1.067  0.7885  0.3909  1.9263
   52MOL   H26439126   5.871   4.691   1.405  0.0155 -0.5427  0.0353
   52MOL   H26539127   5.933   4.640   1.633 -1.8345  1.0081  0.0272
   52MOL   H26639128   6.298   4.863   1.600 -0.1200 -0.8742  1.5402
   52MOL   H26739129   6.225   4.952   1.383 -1.0855  1.3077  1.1122
   52MOL   C26839130   6.564   4.870   2.202 -0.1396  0.5967 -0.6096
   52MOL   C26939131   6.439   4.799   2.144 -0.1789 -0.7062  0.5767
   52MOL   C27039132   6.420   4.826   1.988 -0.1253 -0.2083 -0.5084
   52MOL   C27139133   6.286   4.771   1.955 -0.0975 -0.1368  0.1803
   52MOL   C27239134   6.440   4.974   1.948  0.4592  0.5106 -0.5346
   52MOL   C27339135   6.554   5.048   2.017 -1.0775 -0.0443 -0.0171
   52MOL   C27439136   6.559   5.019   2.168  0.9902  0.5886 -0.1494
   52MOL   C27539137   6.685   5.091   2.223  0.5403 -0.2825  0.5104
   52MOL   O27639138   6.666   5.230   2.216  0.5909 -0.2476  0.3685
   52MOL   C27739139   6.751   5.305   2.150  0.1268 -0.5530  0.2662
   52MOL   O27839140   6.856   5.259   2.098  0.1011 -0.2555  0.2057
   52MOL   C27939141   6.694   5.444   2.133 -0.1898  0.4753  0.7602
   52MOL   C28039142   6.565   5.484   2.179 -0.0492 -0.4350 -0.6423
   52MOL   C28139143   6.522   5.619   2.183 -0.3791  0.3785 -0.4251
   52MOL   C28239144   6.602   5.718   2.123  0.3566 -0.2064  0.1238
   52MOL   C28339145   6.559   5.863   2.145 -0.2218  0.6875 -0.0125
   52MOL   O28439146   6.437   5.884   2.159  0.2814 -0.0836 -0.0621
   52MOL   O28539147   6.658   5.952   2.134 -0.0658 -0.1755 -0.4855
   52MOL   C28639148   6.722   5.677   2.062 -0.6915  0.0013 -0.2653
   52MOL   C28739149   6.770   5.544   2.074 -0.3848 -0.1373 -0.3861
   52MOL   H28839150   6.662   4.828   2.179  0.4387  2.0250 -0.8374
   52MOL   H28939151   6.557   4.862   2.310  1.5577 -1.6480 -0.6522
   52MOL   H29039152   6.346   4.837   2.187  0.4609 -0.3161  1.6334
   52MOL   H29139153   6.448   4.692   2.162 -1.6971 -0.8743  0.4263
   52MOL   H29239154   6.498   4.768   1.939 -1.4136 -1.0416 -1.6101
   52MOL   H29339155   6.212   4.827   2.012  0.6735 -0.0025  1.0679
   52MOL   H29439156   6.274   4.668   1.990  0.5283 -0.2282  0.1336
   52MOL   H29539157   6.347   5.032   1.953  0.7259  1.0125 -1.2610
   52MOL   H29639158   6.436   4.980   1.839  1.1077 -1.8106 -0.6948
   52MOL   H29739159   6.647   5.030   1.962 -0.1173  0.9473  1.2701
   52MOL   H29839160   6.538   5.155   2.003 -0.3446  0.2133  1.1175
   52MOL   H29939161   6.468   5.062   2.209  0.0820 -1.4935  0.0804
   52MOL   H30039162   6.766   5.056   2.159  0.5692 -0.1669  0.4837
   52MOL   H30139163   6.707   5.068   2.327 -0.7349  1.0239  1.0916
   52MOL   H30239164   6.508   5.411   2.235  1.0010 -0.2135  0.7287
   52MOL   H30339165   6.435   5.645   2.241  0.1063  0.2210  0.3887
   52MOL   H30439166   6.783   5.746   2.006 -0.4416 -0.8348 -1.0375
   52MOL   H30539167   6.864   5.514   2.030 -0.2025  0.1528 -0.1955
   52MOL   C30639168   6.512   6.388   2.324 -0.0355  0.0564 -0.1309
   52MOL   C30739169   6.575   6.318   2.206 -0.4409  0.3337 -0.0337
   52MOL   C30839170   6.599   6.170   2.241  0.8386 -0.5381  0.3264
   52MOL   C30939171   6.643   6.095   2.110 -0.1156  0.1636 -0.2159
   52MOL   C31039172   6.699   6.153   2.360  1.0033 -1.0168  0.6648
   52MOL   C31139173   6.647   6.224   2.487 -0.3462  0.3490 -0.2492
   52MOL   C31239174   6.606   6.373   2.453  0.7652  0.0435 -0.2934
   52MOL   C31339175   6.538   6.449   2.567  0.1947  0.2559  0.0386
   52MOL   O31439176   6.408   6.400   2.575 -0.6560  0.3056  0.4184
   52MOL   C31539177   6.331   6.456   2.665  0.3998  0.2610  0.0203
   52MOL   O31639178   6.374   6.550   2.732  0.5131 -0.7304 -0.2153
   52MOL   C31739179   6.201   6.395   2.688 -0.1735  0.5982  0.2600
   52MOL   C31839180   6.120   6.445   2.786  0.7631 -0.0107  0.5622
   52MOL   C31939181   5.994   6.390   2.825  0.7839 -0.0236  0.6652
   52MOL   C32039182   5.941   6.283   2.749  0.4508  0.4345  0.4256
   52MOL   C32139183   5.808   6.223   2.788 -0.2649  0.3797 -0.2409
   52MOL   O32239184   5.738   6.265   2.880  0.3075  0.4812 -0.2957
   52MOL   O32339185   5.781   6.103   2.716 -0.1194  0.0175 -0.3125
   52MOL   C32439186   6.017   6.237   2.636 -0.1277 -0.3691  0.2470
   52MOL   C32539187   6.142   6.290   2.609 -0.3590  0.3037 -0.8604
   52MOL   H32639188   6.413   6.342   2.328  0.4517 -0.9478  0.5339
   52MOL   H32739189   6.500   6.496   2.313  0.3252  0.2326  1.1176
   52MOL   H32839190   6.668   6.372   2.190  0.6579 -1.4130  0.2656
   52MOL   H32939191   6.507   6.326   2.121  1.0007 -0.4896 -1.2879
   52MOL   H33039192   6.501   6.128   2.266 -0.0072  1.2614  0.0983
   52MOL   H33139193   6.741   6.132   2.080 -0.4384  0.7589 -0.5418
   52MOL   H33239194   6.582   6.117   2.023 -1.9100  2.2841  1.5283
   52MOL   H33339195   6.790   6.197   2.319  0.7483 -1.2005 -0.1155
   52MOL   H33439196   6.725   6.050   2.383  2.1807 -0.8569  0.1002
   52MOL   H33539197   6.572   6.170   2.544  0.5197  0.5636  1.1372
   52MOL   H33639198   6.724   6.228   2.565  1.6005  0.6734 -2.1294
   52MOL   H33739199   6.692   6.432   2.422  1.2233 -0.3518  0.2167
   52MOL   H33839200   6.538   6.555   2.545 -2.4681 -0.2601 -2.6663
   52MOL   H33939201   6.597   6.441   2.659  1.1656  2.3068 -0.3762
   52MOL   H34039202   6.158   6.533   2.836  0.7235  1.1967 -1.4736
   52MOL   H34139203   5.949   6.431   2.914  0.9985 -0.2927  0.8976
   52MOL   H34239204   5.990   6.157   2.569  2.0997  1.0344 -2.4161
   52MOL   H34339205   6.189   6.250   2.520 -1.8398 -1.3983 -0.8922
   52MOL   C34439206   5.719   5.781   2.452 -0.7346 -0.0726 -0.4634
   52MOL   C34539207   5.743   5.868   2.577 -0.2885 -0.6499  0.6190
   52MOL   C34639208   5.633   5.967   2.607 -1.2167 -0.2943  0.0118
   52MOL   C34739209   5.660   6.040   2.733 -0.4889  0.0738 -0.3058
   52MOL   C34839210   5.605   6.059   2.484  0.3734 -0.0799  0.0358
   52MOL   C34939211   5.587   5.965   2.359 -0.0898 -0.5738  0.1599
   52MOL   C35039212   5.698   5.864   2.328  0.4937 -0.5009 -0.5044
   52MOL   C35139213   5.650   5.778   2.206 -0.3152 -0.6133  0.4662
   52MOL   O35239214   5.583   5.844   2.107  0.4168 -0.1021  0.0489
   52MOL   C35339215   5.645   5.901   2.001 -1.0298  0.1469  0.4026
   52MOL   O35439216   5.771   5.915   2.009 -0.0166 -0.0261 -0.0593
   52MOL   C35539217   5.553   5.954   1.894 -0.3929 -0.1855 -0.0546
   52MOL   C35639218   5.594   5.987   1.760 -0.0754  0.2841  0.3663
   52MOL   C35739219   5.503   6.044   1.672 -0.5253  0.5104  0.5995
   52MOL   C35839220   5.368   6.064   1.708 -0.0512  0.0279  0.6824
   52MOL   C35939221   5.270   6.127   1.615 -0.7904  0.3670  0.5554
   52MOL   O36039222   5.312   6.205   1.528  0.4384  0.5812  0.5479
   52MOL   O36139223   5.140   6.104   1.640  0.1335  0.3364  0.2673
   52MOL   C36239224   5.330   6.026   1.837 -0.6376  0.0011 -0.3677
   52MOL   C36339225   5.419   5.982   1.935  0.0179  0.7877 -0.1399
   52MOL   H36439226   5.638   5.714   2.480  0.8373 -1.6057  0.5593
   52MOL   H36539227   5.797   5.705   2.441 -1.0963 -0.3197 -1.2998
   52MOL   H36639228   5.834   5.924   2.559  0.3310 -1.0535  2.4263
   52MOL   H36739229   5.752   5.800   2.662 -1.3709 -1.0390  0.4326
   52MOL   H36839230   5.550   5.900   2.628  0.3858 -1.8699  1.4547
   52MOL   H36939231   5.672   5.974   2.819  1.5967 -0.0511 -0.6551
   52MOL   H37039232   5.586   6.114   2.762  1.7701  1.9380  0.8275
   52MOL   H37139233   5.688   6.129   2.472  0.4086 -0.3412 -1.4226
   52MOL   H37239234   5.510   6.110   2.497 -1.0995 -1.6067 -3.8729
   52MOL   H37339235   5.495   5.909   2.374 -0.1786 -0.4450  0.0970
   52MOL   H37439236   5.581   6.034   2.275  3.5227 -1.3826 -0.8492
   52MOL   H37539237   5.792   5.916   2.313 -1.1540  2.3422 -1.4044
   52MOL   H37639238   5.592   5.689   2.230 -0.5176 -1.6702 -3.5785
   52MOL   H37739239   5.745   5.740   2.167  0.6076  0.2801  1.7901
   52MOL   H37839240   5.696   5.968   1.729 -0.1761 -0.4991  0.5016
   52MOL   H37939241   5.535   6.070   1.572  0.2444  1.5604  1.1097
   52MOL   H38039242   5.226   6.040   1.862 -0.8480 -2.1527  0.0332
   52MOL   H38139243   5.373   5.955   2.029 -0.1414 -0.8063 -0.6440
   52MOL   C38239244   4.650   6.173   1.607  0.4277 -0.5373 -1.3535
   52MOL   C38339245   4.786   6.218   1.553  0.5352  0.3220  0.1349
   52MOL   C38439246   4.900   6.159   1.637 -0.2339  0.4008  0.0253
   52MOL   C38539247   5.038   6.192   1.582  0.3363 -0.5039  0.5756
   52MOL   C38639248   4.881   6.203   1.784  0.3021 -0.6433  0.5580
   52MOL   C38739249   4.745   6.164   1.840 -0.2290  0.2448 -0.2077
   52MOL   C38839250   4.637   6.226   1.751 -0.1273  0.6576 -0.4423
   52MOL   C38939251   4.504   6.184   1.801 -0.4024 -0.8095  0.0155
   52MOL   O39039252   4.489   6.236   1.937  1.1916  0.0004  0.2733
   52MOL   C39139253   4.382   6.215   2.014  0.3179  0.3265 -0.3886
   52MOL   O39239254   4.282   6.146   1.971 -0.0669  0.0002 -0.4546
   52MOL   C39339255   4.381   6.286   2.141  0.2402 -0.4108 -0.0417
   52MOL   C39439256   4.270   6.271   2.227  0.5413  0.8353 -0.3759
   52MOL   C39539257   4.267   6.343   2.347  0.4525  0.5451 -0.3107
   52MOL   C39639258   4.378   6.423   2.386 -0.0077 -0.8708 -0.0997
   52MOL   C39739259   4.356   6.500   2.517  0.5110  0.0313  0.1050
   52MOL   O39839260   4.247   6.507   2.577 -0.0006 -0.3745  0.1339
   52MOL   O39939261   4.468   6.563   2.568  0.5333  0.0272  0.0362
   52MOL   C40039262   4.485   6.442   2.289  0.2722 -0.2101 -0.2032
   52MOL   C40139263   4.491   6.372   2.171 -0.0116 -0.2164 -0.0854
   52MOL   H40239264   4.660   6.066   1.625  1.9001 -0.0761  0.7571
   52MOL   H40339265   4.566   6.200   1.543 -0.6647  0.7167  0.5596
   52MOL   H40439266   4.799   6.325   1.535  3.1119  0.2964  1.4568
   52MOL   H40539267   4.800   6.175   1.454 -0.2596  0.5386 -0.0700
   52MOL   H40639268   4.901   6.050   1.638 -1.6607  0.3932  0.9724
   52MOL   H40739269   5.066   6.294   1.609 -1.1785  0.4035 -1.1320
   52MOL   H40839270   5.043   6.197   1.473 -2.7278  0.0947  0.4257
   52MOL   H40939271   4.882   6.312   1.790  0.1700 -0.5474 -0.9994
   52MOL   H41039272   4.954   6.155   1.849  0.5064 -1.4772 -0.2917
   52MOL   H41139273   4.737   6.056   1.840 -1.2321  0.3154  0.9620
   52MOL   H41239274   4.739   6.196   1.944 -1.2869 -0.4980 -0.0413
   52MOL   H41339275   4.647   6.335   1.746  0.4452  0.7276  2.0331
   52MOL   H41439276   4.501   6.075   1.808  0.9540 -0.8634 -0.2741
   52MOL   H41539277   4.424   6.218   1.736  0.0025  0.5925  0.2339
   52MOL   H41639278   4.188   6.202   2.210 -1.1504  2.8100 -0.3614
   52MOL   H41739279   4.187   6.325   2.418 -1.1388 -0.9975 -2.4220
   52MOL   H41839280   4.570   6.506   2.307 -0.2876  0.5686 -0.3291
   52MOL   H41939281   4.581   6.388   2.113  0.9892  0.2378  1.5453
   52MOL   C42039282   4.800   6.513   2.865  0.7608  0.3909  0.3333
   52MOL   C42139283   4.671   6.505   2.771 -0.0529 -0.3532 -0.0698
   52MOL   C42239284   4.599   6.645   2.761  0.1104  0.0730  0.3850
   52MOL   C42339285   4.466   6.620   2.697  0.2908  0.8556 -0.3854
   52MOL   C42439286   4.566   6.681   2.906 -0.5459  1.0951 -0.1356
   52MOL   C42539287   4.700   6.713   2.978 -0.4414  0.1823 -0.5724
   52MOL   C42639288   4.777   6.582   3.000  0.8209 -0.4340 -0.3089
   52MOL   C42739289   4.906   6.602   3.092  0.8517 -0.2285  0.1888
   52MOL   O42839290   4.995   6.687   3.020 -0.2207 -0.4208  0.5701
   52MOL   C42939291   5.114   6.718   3.079  0.3594 -0.5209 -0.3338
   52MOL   O43039292   5.136   6.683   3.199 -0.5807 -0.3872  0.4294
   52MOL   C43139293   5.202   6.799   2.996 -0.0390 -0.2056  0.4567
   52MOL   C43239294   5.322   6.851   3.050 -0.2500  0.1697  0.1579
   52MOL   C43339295   5.402   6.935   2.966  0.6537 -0.1260 -0.4284
   52MOL   C43439296   5.364   6.967   2.833 -0.1075 -0.6204 -0.2642
   52MOL   C43539297   5.446   7.046   2.745  1.0620  0.2521 -0.0447
   52MOL   O43639298   5.544   7.111   2.779  0.5735  0.3399  0.2358
   52MOL   O43739299   5.393   7.059   2.620 -0.4734 -0.0384 -0.7066
   52MOL   C43839300   5.248   6.902   2.779  0.0186 -0.2167  0.0416
   52MOL   C43939301   5.170   6.818   2.856  0.4824  0.1367  0.5322
   52MOL   H44039302   4.876   6.568   2.810  0.5346  0.1554 -0.2303
   52MOL   H44139303   4.831   6.409   2.873  0.6481  0.4411  1.4092
   52MOL   H44239304   4.600   6.435   2.816 -1.2618  0.5019 -0.6187
   52MOL   H44339305   4.694   6.468   2.671 -2.0680 -1.1453 -0.2587
   52MOL   H44439306   4.656   6.719   2.705  1.0430 -2.1932 -1.7620
   52MOL   H44539307   4.413   6.714   2.678  0.1301  0.6581 -0.9130
   52MOL   H44639308   4.406   6.555   2.760  0.5198 -0.4285 -1.4780
   52MOL   H44739309   4.509   6.610   2.966 -0.9679  0.8027 -0.8709
   52MOL   H44839310   4.503   6.770   2.908  0.5679  1.8927  0.5341
   52MOL   H44939311   4.755   6.788   2.921  0.0941 -0.6168 -1.1148
   52MOL   H45039312   4.676   6.755   3.076 -0.2227  0.0545 -0.4630
   52MOL   H45139313   4.710   6.517   3.056  0.4066  0.7574  0.5959
   52MOL   H45239314   4.951   6.504   3.103 -0.4191 -1.0174 -1.3323
   52MOL   H45339315   4.879   6.645   3.188  2.0013  1.5272 -0.2569
   52MOL   H45439316   5.356   6.834   3.151  2.0921 -1.2388 -0.8263
   52MOL   H45539317   5.500   6.963   3.001  0.9201 -0.8330 -0.6126
   52MOL   H45639318   5.220   6.928   2.678 -0.4017  0.4989  0.3336
   52MOL   H45739319   5.086   6.772   2.807 -1.1283  2.0377  1.4202
   52MOL   C45839320   5.145   7.385   2.432  0.3481  0.4776 -0.0205
   52MOL   C45939321   5.234   7.255   2.444  0.1953 -0.0113  0.1060
   52MOL   C46039322   5.360   7.276   2.536 -0.0799  0.4133  0.2595
   52MOL   C46139323   5.448   7.153   2.534  0.4712 -0.0571  0.5138
   52MOL   C46239324   5.432   7.400   2.488  0.1603  0.3745  0.2581
   52MOL   C46339325   5.345   7.522   2.493  0.3865 -1.4233  0.5478
   52MOL   C46439326   5.222   7.508   2.399  0.7210  0.7641  0.2336
   52MOL   C46539327   5.142   7.632   2.381 -0.1160 -0.6020 -0.2779
   52MOL   O46639328   5.059   7.653   2.498  0.1772  0.4339  0.3502
   52MOL   C46739329   5.107   7.741   2.597 -0.8191 -0.1104  0.1103
   52MOL   O46839330   5.221   7.785   2.596  0.2209 -0.8182 -0.2028
   52MOL   C46939331   5.012   7.771   2.711  0.1720  0.5488 -0.0502
   52MOL   C47039332   4.891   7.707   2.728  0.0264 -0.0709  0.1164
   52MOL   C47139333   4.799   7.765   2.819  0.5403 -0.1199  0.1132
   52MOL   C47239334   4.827   7.879   2.897  0.3085  0.0873 -0.4510
   52MOL   C47339335   4.713   7.934   2.976  0.0381 -0.8551 -0.3417
   52MOL   O47439336   4.599   7.891   2.974 -0.2657  0.1442  0.3262
   52MOL   O47539337   4.751   0.005   3.043  0.5529  0.0806 -0.5328
   52MOL   C47639338   4.957   7.924   2.902  0.2132 -0.0980 -0.9457
   52MOL   C47739339   5.045   7.866   2.805  0.0094  0.1566  0.0960
   52MOL   H47839340   5.083   7.400   2.521  0.7829 -1.0482  0.5629
   52MOL   H47939341   5.083   7.367   2.344 -2.1194  0.7896  1.6195
   52MOL   H48039342   5.258   7.224   2.342 -1.0558  0.9435 -0.4963
   52MOL   H48139343   5.170   7.176   2.483  0.0994  0.0261  0.0264
   52MOL   H48239344   5.326   7.295   2.638 -0.0921  0.2066  0.2956
   52MOL   H48339345   5.550   7.179   2.564  0.3439 -0.0552  0.9522
   52MOL   H48439346   5.463   7.107   2.436 -3.1527 -0.4521  0.1061
   52MOL   H48539347   5.465   7.379   2.386  0.3566  0.5217  0.2923
   52MOL   H48639348   5.516   7.427   2.553  1.2064 -0.8109 -0.5742
   52MOL   H48739349   5.316   7.538   2.596 -0.8535 -1.7240  0.2445
   52MOL   H48839350   5.393   7.619   2.477 -2.9828  0.2893  0.4326
   52MOL   H48939351   5.251   7.495   2.295 -1.0375 -1.8609  0.0163
   52MOL   H49039352   5.067   7.615   2.303 -0.2268 -0.1186 -0.2780
   52MOL   H49139353   5.212   7.714   2.366 -0.6554 -0.3312 -1.4141
   52MOL   H49239354   4.865   7.619   2.672 -1.0349 -0.1648  0.7517
   52MOL   H49339355   4.698   7.729   2.807  0.2272 -0.0862  2.4739
   52MOL   H49439356   4.985   8.006   2.966 -2.3808  1.8092 -2.1395
   52MOL   H49539357   5.143   7.908   2.789  0.5485 -0.6080  1.3085
   52MOL   C49639358   4.311   0.225   2.979 -0.3236  0.7435 -0.7843
   52MOL   C49739359   4.405   0.108   3.034 -0.0276 -0.8064  0.2249
   52MOL   C49839360   4.558   0.165   3.041  0.3314 -0.4416  0.0334
   52MOL   C49939361   4.662   0.084   3.118  0.4730 -0.6712  0.1076
   52MOL   C50039362   4.604   0.218   2.901 -1.2006  0.2880 -0.3280
   52MOL   C50139363   4.504   0.319   2.841 -1.1336  0.4326  0.3763
   52MOL   C50239364   4.356   0.272   2.850  0.0233  0.1245  0.3861
   52MOL   C50339365   4.254   0.354   2.769  0.3629  0.5927  0.2392
   52MOL   O50439366   4.233   0.480   2.830  0.1185 -0.0896 -0.1827
   52MOL   C50539367   4.313   0.590   2.800 -0.2116  0.5470 -0.7724
   52MOL   O50639368   4.413   0.586   2.731 -0.2860 -0.5531  0.1193
   52MOL   C50739369   4.266   0.714   2.861  0.5851  0.6249 -0.1652
   52MOL   C50839370   4.154   0.703   2.947  0.2710  0.0149  0.0189
   52MOL   C50939371   4.090   0.814   3.003 -0.2119 -0.3741 -0.3773
   52MOL   C51039372   4.135   0.944   2.964  0.5297 -0.3569 -0.3762
   52MOL   C51139373   4.045   1.058   3.001 -0.7410 -0.6320  0.0675
   52MOL   O51239374   3.949   1.052   3.076 -0.2969 -0.6367  0.6772
   52MOL   O51339375   4.096   1.176   2.940  0.4551  0.0241  0.3792
   52MOL   C51439376   4.253   0.956   2.885 -0.8584  0.3030  0.3467
   52MOL   C51539377   4.313   0.838   2.833  0.0746  0.1065 -0.5756
   52MOL   H51639378   4.306   0.302   3.055 -1.6788  0.1197 -0.2199
   52MOL   H51739379   4.209   0.188   2.976 -0.2544  0.6041 -1.5339
   52MOL   H51839380   4.421   0.024   2.967 -1.4089  0.4106 -1.6882
   52MOL   H51939381   4.380   0.064   3.131 -2.1154  1.2032  0.6294
   52MOL   H52039382   4.543   0.251   3.106  3.1394  0.1746 -0.0348
   52MOL   H52139383   4.605   0.021   3.186 -0.7952  1.4952  1.1314
   52MOL   H52239384   4.716   0.141   3.193 -0.3315  1.8266 -1.1325
   52MOL   H52339385   4.599   0.129   2.838  1.1351  0.6387 -1.0472
   52MOL   H52439386   4.705   0.258   2.910 -0.5165 -0.9299 -2.4042
   52MOL   H52539387   4.516   0.398   2.916  1.5761 -0.0772  0.5287
   52MOL   H52639388   4.534   0.351   2.741  1.7747  0.1455  1.0952
   52MOL   H52739389   4.342   0.183   2.789 -0.9329  0.8808 -0.5285
   52MOL   H52839390   4.161   0.299   2.765  1.1751 -0.8431  0.7341
   52MOL   H52939391   4.292   0.363   2.667  1.1948 -1.0318  0.3927
   52MOL   H53039392   4.116   0.606   2.974  1.5672 -0.8557 -1.2316
   52MOL   H53139393   4.002   0.807   3.065  0.4087  1.2966  0.6959
   52MOL   H53239394   4.301   1.046   2.849 -1.0161  0.0910 -0.4123
   52MOL   H53339395   4.396   0.851   2.765 -2.5823 -0.3866 -4.0189
   52MOL   C53439396   4.316   1.510   3.132 -0.2646 -0.3114 -0.6673
   52MOL   C53539397   4.245   1.424   3.028 -0.0498 -0.2125 -0.5722
   52MOL   C53639398   4.091   1.403   3.030  0.5406  0.0691  0.7838
   52MOL   C53739399   4.020   1.301   2.937 -0.2270  0.0597  0.1077
   52MOL   C53839400   4.059   1.361   3.176  0.3393  0.0540 -0.8184
   52MOL   C53939401   4.120   1.461   3.272 -0.6078  0.2040 -0.2559
   52MOL   C54039402   4.274   1.466   3.271 -0.6687  0.4682  0.2275
   52MOL   C54139403   4.328   1.564   3.378 -0.5263 -0.4538 -0.2943
   52MOL   O54239404   4.427   1.498   3.455 -0.5109  0.2115  0.1459
   52MOL   C54339405   4.561   1.516   3.431 -0.1650 -0.1262  0.0656
   52MOL   O54439406   4.609   1.622   3.386  0.4452 -0.2762 -0.5529
   52MOL   C54539407   4.641   1.402   3.483 -0.2417 -0.2132  0.1172
   52MOL   C54639408   4.577   1.276   3.485  0.3925  0.4477 -0.3948
   52MOL   C54739409   4.654   1.165   3.536  0.0080 -0.1827  0.0863
   52MOL   C54839410   4.786   1.181   3.580  0.5731 -0.0892  0.3621
   52MOL   C54939411   4.862   1.058   3.621 -0.1747  0.5550  1.0194
   52MOL   O55039412   4.837   0.947   3.577 -0.0282 -0.2706 -0.1594
   52MOL   O55139413   4.973   1.089   3.680 -0.2083 -0.5991  0.7918
   52MOL   C55239414   4.847   1.308   3.569 -0.3474  0.2956 -0.4043
   52MOL   C55339415   4.773   1.421   3.530  0.0860  0.0960  0.1013
   52MOL   H55439416   4.291   1.616   3.123 -1.6357 -0.6917 -1.3406
   52MOL   H55539417   4.425   1.504   3.122 -0.2131  0.8344 -0.8479
   52MOL   H55639418   4.299   1.329   3.027  0.0547 -0.2201  1.7234
   52MOL   H55739419   4.279   1.458   2.931 -1.1372 -2.2127 -1.7006
   52MOL   H55839420   4.049   1.499   3.000 -0.0201 -0.2346  0.5752
   52MOL   H55939421   4.037   1.331   2.833  1.0293 -2.4898 -0.4578
   52MOL   H56039422   3.914   1.302   2.960 -0.2461  0.0236  0.0231
   52MOL   H56139423   4.079   1.258   3.206  0.2012 -0.0268 -1.0061
   52MOL   H56239424   3.952   1.372   3.190  0.6447  2.5449 -0.1794
   52MOL   H56339425   4.083   1.561   3.248 -0.4804  0.6203  1.2433
   52MOL   H56439426   4.082   1.435   3.371  0.2818  1.2742  0.3667
   52MOL   H56539427   4.309   1.363   3.285 -2.5176 -0.2519 -0.3154
   52MOL   H56639428   4.247   1.589   3.447 -1.7437 -0.6996 -1.6207
   52MOL   H56739429   4.350   1.662   3.337 -2.9588 -0.6027 -2.0491
   52MOL   H56839430   4.481   1.262   3.438 -1.5219 -0.4739  3.6026
   52MOL   H56939431   4.606   1.069   3.526  0.2162 -0.5279  2.2140
   52MOL   H57039432   4.946   1.331   3.606  0.5657  0.5672 -2.8698
   52MOL   H57139433   4.819   1.518   3.531 -1.1077  0.6585  1.8777
   52MOL   C57239434   5.301   1.103   4.015 -0.4667  0.1069  0.0791
   52MOL   C57339435   5.182   1.033   3.941  0.1613 -0.0816 -0.4263
   52MOL   C57439436   5.180   1.045   3.788 -0.5136 -0.4761 -0.0942
   52MOL   C57539437   5.069   0.992   3.705  0.4729  0.2986  0.0483
   52MOL   C57639438   5.203   1.198   3.754 -0.5364 -0.2590 -1.0594
   52MOL   C57739439   5.326   1.257   3.826 -0.2688  0.3371  0.4506
   52MOL   C57839440   5.324   1.241   3.980  0.4411 -0.3627  0.2720
   52MOL   C57939441   5.443   1.304   4.055  0.0145 -0.0547 -0.5497
   52MOL   O58039442   5.566   1.255   4.002  0.1652 -0.0948  0.1765
   52MOL   C58139443   5.623   1.154   4.072 -0.0719 -0.1594  0.1230
   52MOL   O58239444   5.597   1.109   4.185  0.0129 -0.6442 -0.0402
   52MOL   C58339445   5.727   1.089   3.992  0.1371  0.1911 -0.1311
   52MOL   C58439446   5.813   0.994   4.060  0.1344  0.5423 -0.2889
   52MOL   C58539447   5.898   0.910   3.988 -0.4794  0.0633  0.0566
   52MOL   C58639448   5.902   0.924   3.844  0.5772  0.4372 -1.0237
   52MOL   C58739449   5.986   0.833   3.764  0.3013 -0.3236  0.5065
   52MOL   O58839450   5.968   0.810   3.649  0.1267 -0.0158 -0.5957
   52MOL   O58939451   6.084   0.770   3.836  0.4021 -0.2660  0.2574
   52MOL   C59039452   5.830   1.030   3.777  0.6531  0.0705 -0.4802
   52MOL   C59139453   5.750   1.114   3.854  0.5577  0.6391 -0.2565
   52MOL   H59239454   5.396   1.056   3.990 -1.2584 -1.2920 -0.3381
   52MOL   H59339455   5.282   1.088   4.122  2.2598 -1.7422  0.3326
   52MOL   H59439456   5.092   1.087   3.970  0.1908 -0.3871  0.2413
   52MOL   H59539457   5.168   0.927   3.958  0.6218  0.1990  1.8560
   52MOL   H59639458   5.275   0.993   3.773  1.1392  3.2716 -3.6701
   52MOL   H59739459   5.026   0.906   3.756 -0.3394 -0.8827 -2.5188
   52MOL   H59839460   5.120   0.953   3.616  1.4344  0.8649  0.3374
   52MOL   H59939461   5.115   1.257   3.781  0.6278  1.3158 -0.5689
   52MOL   H60039462   5.212   1.204   3.646  0.7942  0.0820 -0.9455
   52MOL   H60139463   5.421   1.213   3.796  0.3769  1.4683  0.7695
   52MOL   H60239464   5.340   1.364   3.809  1.2230  0.2647  1.0535
   52MOL   H60339465   5.231   1.285   4.016  1.8714  0.9450  2.4549
   52MOL   H60439466   5.444   1.290   4.163  2.2839 -0.7206 -0.6333
   52MOL   H60539467   5.459   1.411   4.043  1.4859 -0.1699  0.3925
   52MOL   H60639468   5.805   0.986   4.168  0.9371  2.9123 -0.0028
   52MOL   H60739469   5.955   0.836   4.043 -0.4650  1.1234  1.5035
   52MOL   H60839470   5.820   1.037   3.670 -0.7248  1.0134 -0.3096
   52MOL   H60939471   5.685   1.183   3.803  0.8962  0.1084 -1.4295
   52MOL   C61039472   6.235   0.302   3.676  0.5281  0.6133  0.1569
   52MOL   C61139473   6.261   0.448   3.708 -0.5933  0.5817  0.1759
   52MOL   C61239474   6.139   0.536   3.754  0.2514  1.2589 -0.5341
   52MOL   C61339475   6.179   0.684   3.780 -0.0253 -0.3948 -0.0615
   52MOL   C61439476   6.026   0.520   3.661  0.3693 -0.2409  0.4042
   52MOL   C61539477   5.992   0.374   3.633  0.1635 -0.2904  0.2040
   52MOL   C61639478   6.111   0.283   3.591  0.5850  0.3420 -0.0259
   52MOL   C61739479   6.066   0.138   3.574 -0.0065  0.2010  0.2100
   52MOL   O61839480   6.036   0.103   3.438  0.4202 -0.1113 -0.3726
   52MOL   C61939481   5.913   0.109   3.406 -0.4952  0.2246  0.0641
   52MOL   O62039482   5.821   0.155   3.476 -0.5229  0.0193  0.4755
   52MOL   C62139483   5.895   0.055   3.263 -0.2234 -0.3822  0.5863
   52MOL   C62239484   6.002   0.049   3.167  0.4266  0.1787 -0.2866
   52MOL   C62339485   5.973   8.014   3.046  0.0739 -0.2209  0.4942
   52MOL   C62439486   5.850   7.947   3.018 -0.3073  0.1337  0.6993
   52MOL   C62539487   5.841   7.858   2.900  0.2950  0.4585 -0.1527
   52MOL   O62639488   5.932   7.843   2.817 -0.1991 -0.1112  0.2864
   52MOL   O62739489   5.728   7.783   2.902  0.2445 -0.4016 -0.5606
   52MOL   C62839490   5.747   7.957   3.111 -0.0998 -1.3767 -0.0428
   52MOL   C62939491   5.768   8.031   3.230 -0.5581  0.4168 -0.2200
   52MOL   H63039492   6.204   0.247   3.765  0.4026  0.4928  0.0393
   52MOL   H63139493   6.325   0.261   3.630  1.4359  1.7343  0.9035
   52MOL   H63239494   6.289   0.494   3.613  0.6544  0.3132  0.4050
   52MOL   H63339495   6.340   0.461   3.781  1.0235 -1.3754 -1.1699
   52MOL   H63439496   6.116   0.489   3.849 -0.8314  1.6598 -0.5920
   52MOL   H63539497   6.215   0.723   3.685  0.2940  0.2179  0.3044
   52MOL   H63639498   6.270   0.684   3.841  0.4070 -1.4897 -0.6924
   52MOL   H63739499   6.027   0.564   3.562 -0.6820 -2.2064 -0.5152
   52MOL   H63839500   5.946   0.570   3.715 -1.2393 -0.4001 -1.7783
   52MOL   H63939501   5.951   0.341   3.729  0.5237 -0.1192  0.4172
   52MOL   H64039502   5.913   0.344   3.564 -1.3976  0.3137  1.6766
   52MOL   H64139503   6.137   0.323   3.493  0.1905 -1.8535 -1.0595
   52MOL   H64239504   5.993   0.105   3.648  0.0816  0.1471  0.2726
   52MOL   H64339505   6.150   0.077   3.607  0.8769  0.5659 -1.3164
   52MOL   H64439506   6.103   0.082   3.185  0.8023 -0.4180 -1.2293
   52MOL   H64539507   6.054   8.007   2.975 -0.8381  0.3710 -0.6272
   52MOL   H64639508   5.660   7.895   3.098  0.2031 -1.4964 -1.4750
   52MOL   H64739509   5.692   0.006   3.306 -0.3729  1.9835 -0.1691
   52MOL   C64839510   5.327   7.586   2.889  0.2531  0.1249  0.3542
   52MOL   C64939511   5.444   7.679   2.851 -0.8041  0.5022 -0.2522
   52MOL   C65039512   5.572   7.600   2.797 -0.2415  0.8077 -0.3037
   52MOL   C65139513   5.704   7.683   2.797  0.1339  0.3466 -0.1770
   52MOL   C65239514   5.601   7.476   2.886 -0.0457 -0.1219  0.1027
   52MOL   C65339515   5.479   7.394   2.929  0.3609 -0.0071  0.3850
   52MOL   C65439516   5.360   7.476   2.984  0.1969  0.0099 -0.3139
   52MOL   C65539517   5.240   7.384   3.012  0.2091  0.2201 -0.9086
   52MOL   O65639518   5.141   7.468   3.078 -0.0406 -0.8824 -0.6685
   52MOL   C65739519   5.027   7.499   3.025 -0.0892  0.0824  0.0389
   52MOL   O65839520   4.993   7.449   2.917  0.7981  0.3737  0.3037
   52MOL   C65939521   4.933   7.574   3.113  0.4159  0.4867 -0.3926
   52MOL   C66039522   4.796   7.573   3.075 -0.5773  0.2781  0.1274
   52MOL   C66139523   4.703   7.642   3.153  0.2163 -0.0685  0.1293
   52MOL   C66239524   4.740   7.714   3.269  0.4332  1.1518 -0.8601
   52MOL   C66339525   4.643   7.781   3.370 -0.5144  0.7422 -0.2952
   52MOL   O66439526   4.681   7.831   3.478  0.4356  0.4894  0.2385
   52MOL   O66539527   4.517   7.776   3.320 -0.0919  0.2130 -0.0883
   52MOL   C66639528   4.877   7.708   3.301 -0.0947  0.8094 -0.5406
   52MOL   C66739529   4.975   7.641   3.227  0.6977  0.4145 -0.2559
   52MOL   H66839530   5.279   7.543   2.801 -0.1256 -2.0474  1.5723
   52MOL   H66939531   5.242   7.646   2.922  0.2946  0.5978 -0.3914
   52MOL   H67039532   5.465   7.735   2.942 -0.0097 -0.8591  0.4247
   52MOL   H67139533   5.427   7.755   2.776 -1.3405  1.2518  0.6164
   52MOL   H67239534   5.549   7.565   2.697  0.0865 -0.4276  0.0394
   52MOL   H67339535   5.696   7.735   2.701  1.5859  1.1356  0.1294
   52MOL   H67439536   5.794   7.622   2.792  0.8222  1.1873  1.5498
   52MOL   H67539537   5.651   7.516   2.975  1.3222 -2.9186  0.6302
   52MOL   H67639538   5.670   7.408   2.836 -2.4806 -1.4382 -1.5267
   52MOL   H67739539   5.447   7.341   2.839 -0.5938  2.6017 -0.8506
   52MOL   H67839540   5.516   7.322   3.002 -0.4017  0.5610  1.3557
   52MOL   H67939541   5.400   7.523   3.074  0.6491  0.9548 -1.0013
   52MOL   H68039542   5.270   7.294   3.066  0.0857 -0.2669 -1.6341
   52MOL   H68139543   5.190   7.347   2.922  1.7212  0.0830 -1.7190
   52MOL   H68239544   4.769   7.525   2.981 -0.4962  1.6177 -0.5926
   52MOL   H68339545   4.606   7.648   3.106  0.2173 -0.8343  0.0308
   52MOL   H68439546   4.912   7.745   3.397 -0.6661 -0.4181  0.1563
   52MOL   H68539547   5.079   7.643   3.258 -0.6342  0.7494  4.6034
   52MOL   C68639548   4.135   7.595   3.208  0.0762 -0.4310 -0.6169
   52MOL   C68739549   4.252   7.699   3.221  0.9364  0.2268  0.1340
   52MOL   C68839550   4.289   7.726   3.373  0.3484 -0.2816 -0.7692
   52MOL   C68939551   4.404   7.823   3.391 -0.5861  0.6803 -0.1132
   52MOL   C69039552   4.166   7.789   3.441 -0.0379  0.0647 -0.1063
   52MOL   C69139553   4.048   7.684   3.433  0.2557  0.3240 -0.4643
   52MOL   C69239554   4.010   7.637   3.293 -0.3360  1.0199  0.2774
   52MOL   C69339555   3.894   7.534   3.292  0.5625  0.1708  0.0204
   52MOL   O69439556   3.791   7.575   3.379  0.2312 -0.1372 -0.3676
   52MOL   C69539557   3.675   7.523   3.373 -0.6299  0.3577 -0.4090
   52MOL   O69639558   3.638   7.433   3.295 -0.5100  0.2533 -0.6153
   52MOL   C69739559   3.585   7.599   3.470 -0.0599  1.1697  0.8371
   52MOL   C69839560   3.625   7.671   3.583 -0.2088 -0.0997  0.2416
   52MOL   C69939561   3.534   7.735   3.675 -0.0012 -0.0754 -0.3874
   52MOL   C70039562   3.398   7.724   3.656  0.2506  0.4301  0.1990
   52MOL   C70139563   3.312   7.772   3.764 -0.0122 -0.3667 -0.0203
   52MOL   O70239564   3.362   7.832   3.865 -0.0128  0.4488 -0.4670
   52MOL   O70339565   3.178   7.762   3.739 -0.1511  0.1487  0.0959
   52MOL   C70439566   3.349   7.642   3.550  0.0502 -0.2147  0.0893
   52MOL   C70539567   3.445   7.591   3.457 -0.2911  0.7619 -0.6326
   52MOL   H70639568   4.173   7.507   3.260 -0.6490 -1.0765 -1.1791
   52MOL   H70739569   4.102   7.578   3.106  4.9563  3.2425 -2.9840
   52MOL   H70839570   4.226   7.789   3.164  0.1668  0.2171  0.4584
   52MOL   H70939571   4.338   7.663   3.166 -0.8315  0.2094 -2.7276
   52MOL   H71039572   4.321   7.633   3.420 -1.8782 -1.2927 -1.2005
   52MOL   H71139573   4.423   7.831   3.498 -2.9655  2.3399  0.2316
   52MOL   H71239574   4.378   7.921   3.352 -1.1854 -0.6830 -3.3208
   52MOL   H71339575   4.141   7.888   3.404  0.8813 -0.2810 -1.6705
   52MOL   H71439576   4.177   7.806   3.548 -0.7182 -1.7439  0.2678
   52MOL   H71539577   4.074   7.596   3.492  3.8648 -0.4662 -3.1091
   52MOL   H71639578   3.961   7.716   3.492  0.2347 -0.1013 -0.2624
   52MOL   H71739579   3.959   7.722   3.248  0.2446  2.0067  1.4623
   52MOL   H71839580   3.930   7.434   3.315  0.0296  0.3890  1.8861
   52MOL   H71939581   3.841   7.544   3.197 -1.7563 -2.0914  1.0161
   52MOL   H72039582   3.730   7.682   3.609  0.4788 -0.4004 -2.2872
   52MOL   H72139583   3.569   7.793   3.759 -2.4360  1.3156 -0.2939
   52MOL   H72239584   3.245   7.619   3.533  0.5193 -1.1780 -1.5915
   52MOL   H72339585   3.400   7.525   3.384 -0.2534 -0.9064  0.8342
   52MOL   C72439586   2.771   7.598   3.719 -0.7325  0.3413 -0.5330
   52MOL   C72539587   2.909   7.613   3.789 -0.3040  0.1582  0.1781
   52MOL   C72639588   2.936   7.765   3.802 -0.1349  0.4449  0.5266
   52MOL   C72739589   3.083   7.777   3.853  0.0690  0.9952  0.1168
   52MOL   C72839590   2.918   7.847   3.670  0.1367  0.2815  0.3811
   52MOL   C72939591   2.785   7.807   3.602  0.0321 -0.9417 -0.3078
   52MOL   C73039592   2.765   7.660   3.579 -0.4479  0.7403 -0.2934
   52MOL   C73139593   2.625   7.634   3.511 -0.2247 -0.0537  0.6170
   52MOL   O73239594   2.511   7.678   3.585  0.1609 -0.1450 -0.1141
   52MOL   C73339595   2.440   7.589   3.655  0.0151 -0.0723  0.1692
   52MOL   O73439596   2.475   7.469   3.668  0.0252  0.2539  0.4424
   52MOL   C73539597   2.326   7.648   3.721  0.2439  0.5988 -0.4925
   52MOL   C73639598   2.335   7.777   3.779 -0.3094  0.2762  0.1599
   52MOL   C73739599   2.219   7.825   3.841  0.3697 -0.0918 -0.0139
   52MOL   C73839600   2.101   7.746   3.859  0.0222  1.0295  0.0803
   52MOL   C73939601   1.977   7.802   3.930  0.1830  0.7621 -0.4823
   52MOL   O74039602   1.982   7.900   4.010  0.1668 -0.1300  0.0579
   52MOL   O74139603   1.862   7.750   3.885  0.3950  0.1003 -0.7237
   52MOL   C74239604   2.097   7.616   3.797  0.0763  0.3143  0.3731
   52MOL   C74339605   2.209   7.570   3.732 -0.1305  0.1817  0.9830
   52MOL   H74439606   2.692   7.641   3.781 -1.6024  0.3298 -1.6111
   52MOL   H74539607   2.743   7.494   3.706  1.9622 -0.2580 -1.8957
   52MOL   H74639608   2.975   7.554   3.725 -2.0264 -1.0015 -0.5535
   52MOL   H74739609   2.907   7.557   3.882  0.7872  0.8443  0.6370
   52MOL   H74839610   2.868   7.799   3.880 -1.6213 -1.7897  0.2568
   52MOL   H74939611   3.099   7.712   3.939 -0.4646 -0.2790 -0.7352
   52MOL   H75039612   3.090   7.879   3.891 -0.2229  1.1430 -0.2134
   52MOL   H75139613   2.993   7.812   3.599 -0.9948 -3.3161  0.8375
   52MOL   H75239614   2.924   7.954   3.691 -0.6663  0.3002  0.5106
   52MOL   H75339615   2.705   7.864   3.648 -0.2831 -2.6554  1.3212
   52MOL   H75439616   2.806   7.859   3.508  0.1612  0.1587  0.3294
   52MOL   H75539617   2.853   7.623   3.527 -0.1080 -0.8325  1.3298
   52MOL   H75639618   2.605   7.533   3.476 -0.2513  1.0330 -2.6370
   52MOL   H75739619   2.628   7.695   3.421 -1.0069 -0.6474  0.1876
   52MOL   H75839620   2.424   7.837   3.776 -0.4721  0.4843 -0.5838
   52MOL   H75939621   2.226   7.928   3.874 -0.5124  0.1419 -0.5351
   52MOL   H76039622   2.014   7.548   3.813 -0.0536  0.9435  2.5812
   52MOL   H76139623   2.212   7.469   3.694 -0.9196  0.1554  0.9919
   52MOL   H76239624   1.790   7.811   3.894  1.3475  0.8076  2.9463
   53MOL     C139625   3.775   3.473   2.238  0.1597 -0.5025 -0.6061
   53MOL     C239626   3.871   3.420   2.340 -0.1461 -0.6862 -0.5639
   53MOL     C339627   3.821   3.296   2.423 -0.0327 -0.5368  0.3924
   53MOL     C439628   3.915   3.244   2.529 -0.5283  0.7765  0.0145
   53MOL     C539629   3.680   3.319   2.481 -0.1588  0.3395 -0.4821
   53MOL     C639630   3.578   3.367   2.375  0.3557 -0.7568  0.0059
   53MOL     C739631   3.635   3.491   2.303  0.4238  0.5615 -0.5442
   53MOL     C839632   3.536   3.543   2.204  0.2634  0.1662  0.8468
   53MOL     O939633   3.522   3.462   2.084  0.3516 -0.3086 -0.0326
   53MOL    C1039634   3.407   3.410   2.031  0.4383  0.3253 -0.1124
   53MOL    O1139635   3.297   3.443   2.075  0.8277 -0.6048 -0.2100
   53MOL    C1239636   3.430   3.308   1.929 -0.5094  0.2751 -0.0830
   53MOL    C1339637   3.317   3.238   1.873  0.2315 -0.4080 -0.3044
   53MOL    C1439638   3.335   3.139   1.775 -0.5110 -0.6427  0.4316
   53MOL    C1539639   3.470   3.113   1.728  0.0605  0.0244 -0.4698
   53MOL    C1639640   3.501   3.005   1.634  0.1490 -0.1179 -0.5385
   53MOL    O1739641   3.613   2.981   1.596 -0.5024 -0.2196  0.4572
   53MOL    O1839642   3.397   2.933   1.593  0.1610 -0.1246  0.1795
   53MOL    C1939643   3.581   3.187   1.781  0.1386  0.7929  0.0478
   53MOL    C2039644   3.560   3.283   1.883  0.2239  0.4238 -0.8644
   53MOL    H2139645   3.772   3.406   2.153 -2.5952 -0.8513 -0.2713
   53MOL    H2239646   3.806   3.574   2.210 -0.6238 -0.1847 -0.3213
   53MOL    H2339647   3.915   3.495   2.406 -0.2807 -0.7369 -0.4161
   53MOL    H2439648   3.952   3.383   2.277  0.2695 -1.1190  0.2285
   53MOL    H2539649   3.800   3.211   2.358  1.8150  1.2085 -2.6290
   53MOL    H2639650   3.877   3.155   2.579 -1.5617  2.0136  1.4569
   53MOL    H2739651   3.942   3.322   2.600  1.6052 -0.1869  0.3179
   53MOL    H2839652   3.685   3.399   2.555  1.2046 -1.1587  1.0962
   53MOL    H2939653   3.646   3.231   2.536 -0.9706  0.1641 -1.2552
   53MOL    H3039654   3.565   3.292   2.297  4.2768 -0.9687 -0.5201
   53MOL    H3139655   3.480   3.389   2.418  1.1269  2.3945  0.3133
   53MOL    H3239656   3.661   3.573   2.369  2.1785 -1.2403  1.1055
   53MOL    H3339657   3.566   3.645   2.179 -0.2169  0.5337  1.7480
   53MOL    H3439658   3.440   3.557   2.254  0.2049  0.2131  0.7215
   53MOL    H3539659   3.215   3.244   1.908  1.0854 -0.4531  2.2979
   53MOL    H3639660   3.253   3.081   1.738 -0.6073  1.2593 -2.4680
   53MOL    H3739661   3.681   3.156   1.753  0.5193  1.2590  0.8760
   53MOL    H3839662   3.645   3.338   1.923  0.8246 -2.0163  1.4396
   53MOL    H3939663   4.008   3.220   2.476 -2.1701 -2.9329 -1.3332
   53MOL    C4039664   3.471   2.444   1.509 -0.3578 -0.9241 -0.4045
   53MOL    C4139665   3.471   2.591   1.466  0.4451 -1.2067  1.0218
   53MOL    C4239666   3.416   2.686   1.566  0.4274  0.0503 -0.4427
   53MOL    C4339667   3.408   2.825   1.507  0.0114  0.2319  0.7649
   53MOL    C4439668   3.268   2.640   1.588 -0.3582  0.0580  0.8868
   53MOL    C4539669   3.271   2.498   1.644 -0.3094 -0.1314 -0.3403
   53MOL    C4639670   3.334   2.390   1.553  0.0506 -0.2456  1.0842
   53MOL    C4739671   3.351   2.251   1.621 -0.1310 -0.1314 -0.0477
   53MOL    O4839672   3.448   2.179   1.550  0.0719 -0.1782  0.6017
   53MOL    C4939673   3.487   2.054   1.598  0.6273 -0.1192  0.2582
   53MOL    O5039674   3.438   1.994   1.696  0.0890 -0.1928  0.1566
   53MOL    C5139675   3.593   1.982   1.516  0.2847  0.2778 -0.1504
   53MOL    C5239676   3.639   1.856   1.557 -0.4831  0.0208 -0.1207
   53MOL    C5339677   3.730   1.784   1.471  0.2106  0.0497 -0.1827
   53MOL    C5439678   3.757   1.836   1.346 -0.8617  0.1031  0.2115
   53MOL    C5539679   3.817   1.735   1.250  0.9160  0.2312  0.1119
   53MOL    O5639680   3.814   1.740   1.128  0.1057  0.3009  0.0355
   53MOL    O5739681   3.880   1.633   1.310  0.4784  0.1442 -0.2646
   53MOL    C5839682   3.713   1.962   1.302  0.4993 -0.5793  0.0187
   53MOL    C5939683   3.639   2.039   1.391  0.4617 -0.8750 -0.6266
   53MOL    H6039684   3.523   2.450   1.605 -1.0626 -1.5441  0.0210
   53MOL    H6139685   3.538   2.377   1.455  0.4761 -2.4550  2.4133
   53MOL    H6239686   3.407   2.606   1.379 -0.8710  0.8988  2.2976
   53MOL    H6339687   3.573   2.617   1.438 -1.0323  2.1619 -1.5994
   53MOL    H6439688   3.480   2.682   1.654  0.1664 -1.3879 -0.3062
   53MOL    H6539689   3.333   2.829   1.429 -0.8403  0.6768  1.5984
   53MOL    H6639690   3.494   2.829   1.440 -0.4288 -0.4799  0.1536
   53MOL    H6739691   3.223   2.626   1.490  0.3222 -2.3802  0.9017
   53MOL    H6839692   3.212   2.704   1.656  0.2782  1.2603  0.2969
   53MOL    H6939693   3.326   2.494   1.738  1.6896 -2.2218 -1.5497
   53MOL    H7039694   3.167   2.479   1.668  0.0739 -0.8680  0.7962
   53MOL    H7139695   3.270   2.381   1.465  0.0396 -2.5059  1.3086
   53MOL    H7239696   3.257   2.195   1.624 -0.0213 -0.2930  0.3458
   53MOL    H7339697   3.396   2.264   1.719  0.6160 -0.5964 -0.3263
   53MOL    H7439698   3.597   1.816   1.648  1.4990 -1.7500  0.0444
   53MOL    H7539699   3.757   1.682   1.494 -0.1948 -0.2366 -0.9548
   53MOL    H7639700   3.752   2.002   1.210  2.3048 -1.0613  0.5630
   53MOL    H7739701   3.617   2.143   1.376  0.2326 -0.8672 -0.2560
   53MOL    C7839702   4.020   1.271   1.503  0.3089 -0.3697  0.5273
   53MOL    C7939703   3.929   1.379   1.434  0.0891 -0.3276  0.4842
   53MOL    C8039704   4.007   1.427   1.311  0.1799  1.2541  0.1127
   53MOL    C8139705   3.936   1.531   1.225 -0.0787  0.2374  0.6027
   53MOL    C8239706   4.151   1.473   1.343  0.1655 -0.2137  0.4759
   53MOL    C8339707   4.240   1.375   1.417 -0.4964  0.4143 -0.5682
   53MOL    C8439708   4.166   1.311   1.535 -0.1798  0.0875 -0.4497
   53MOL    C8539709   4.250   1.192   1.586  0.0069 -1.2392  0.4775
   53MOL    O8639710   4.211   1.133   1.715 -0.0398 -0.1024 -0.1867
   53MOL    C8739711   4.276   1.194   1.822 -0.1895 -0.1921  0.6334
   53MOL    O8839712   4.328   1.305   1.811  0.2696 -0.5361  0.5303
   53MOL    C8939713   4.278   1.121   1.950  0.5490  0.0189 -0.0650
   53MOL    C9039714   4.205   1.001   1.974 -0.0852  0.1181  0.1647
   53MOL    C9139715   4.226   0.928   2.096  0.7076 -0.6432  0.0044
   53MOL    C9239716   4.327   0.968   2.191  0.2014 -0.6419 -0.2743
   53MOL    C9339717   4.356   0.891   2.311  0.2566 -0.7097  0.7523
   53MOL    O9439718   4.438   0.919   2.397  0.1962 -0.5631 -0.1883
   53MOL    O9539719   4.294   0.772   2.309  0.7639  0.3823 -0.2726
   53MOL    C9639720   4.397   1.090   2.170  0.3920 -1.0253  0.2693
   53MOL    C9739721   4.371   1.164   2.050  0.1851  0.1353  0.4647
   53MOL    H9839722   4.014   1.180   1.443 -1.4407  0.5738 -0.7443
   53MOL    H9939723   3.974   1.246   1.599 -0.0184 -1.2893  0.1335
   53MOL   H10039724   3.912   1.465   1.497 -1.7286  1.0591 -1.8202
   53MOL   H10139725   3.831   1.342   1.403  0.3455  2.8193 -4.5324
   53MOL   H10239726   4.020   1.346   1.239  1.7654  0.8318  0.8464
   53MOL   H10339727   3.864   1.475   1.165 -0.3689 -0.0656  1.2300
   53MOL   H10439728   4.001   1.573   1.149  1.9306 -0.1605  2.0686
   53MOL   H10539729   4.136   1.555   1.414 -2.1776 -0.4882  0.3412
   53MOL   H10639730   4.197   1.509   1.250  0.0929 -0.5380  0.3152
   53MOL   H10739731   4.271   1.297   1.348  1.2704  0.8026 -0.2326
   53MOL   H10839732   4.333   1.425   1.446 -1.1876  1.2365  0.2481
   53MOL   H10939733   4.165   1.383   1.617  0.4637 -1.5069  0.9762
   53MOL   H11039734   4.355   1.218   1.591 -0.8106  2.4477  0.0678
   53MOL   H11139735   4.231   1.113   1.514  1.7207 -0.0219 -1.3808
   53MOL   H11239736   4.132   0.965   1.903  0.7059 -0.0063 -0.5824
   53MOL   H11339737   4.172   0.836   2.108  0.0486 -0.0014  2.2761
   53MOL   H11439738   4.467   1.125   2.245  1.0253  0.1377 -0.8322
   53MOL   H11539739   4.432   1.250   2.028 -1.7579  1.4442  0.0910
   53MOL   C11639740   4.013   0.427   2.474  0.1749 -0.1678  0.2428
   53MOL   C11739741   4.102   0.543   2.518 -0.4367  0.0344 -0.1326
   53MOL   C11839742   4.201   0.565   2.406  0.0111 -0.3186 -0.2118
   53MOL   C11939743   4.291   0.691   2.432 -0.5589 -0.2690  0.2345
   53MOL   C12039744   4.284   0.438   2.367  0.5086  0.1737 -0.6634
   53MOL   C12139745   4.183   0.321   2.337 -0.2126  0.2686 -0.2721
   53MOL   C12239746   4.087   0.290   2.450  0.5116 -0.2969 -0.4232
   53MOL   C12339747   3.989   0.175   2.416  0.2394 -0.4446  0.3638
   53MOL   O12439748   3.892   0.183   2.516 -0.3190 -0.2723 -1.0340
   53MOL   C12539749   3.780   0.106   2.500  0.1394 -0.5777 -0.0050
   53MOL   O12639750   3.767   0.029   2.403  0.0023  0.9532  0.3038
   53MOL   C12739751   3.679   0.137   2.598  0.4707 -0.1682  0.5565
   53MOL   C12839752   3.545   0.110   2.565  0.2019  0.5344  0.1663
   53MOL   C12939753   3.447   0.138   2.666  0.3708 -0.3544  0.3361
   53MOL   C13039754   3.486   0.178   2.798 -0.5228 -0.0133  0.3791
   53MOL   C13139755   3.382   0.211   2.901  0.3532  0.5569  0.2760
   53MOL   O13239756   3.402   0.210   3.022  0.0789  0.0126  0.4420
   53MOL   O13339757   3.267   0.250   2.842  0.2526 -0.1137 -0.0391
   53MOL   C13439758   3.625   0.178   2.832  0.3560 -0.0551 -0.0505
   53MOL   C13539759   3.718   0.174   2.728  0.2225  0.4622 -0.3135
   53MOL   H13639760   3.949   0.447   2.389  0.4771  1.9069  0.4869
   53MOL   H13739761   3.936   0.422   2.551 -0.2617 -0.1660 -0.1962
   53MOL   H13839762   4.160   0.510   2.604  0.0371  0.1001 -0.4311
   53MOL   H13939763   4.046   0.632   2.547 -0.9623  0.1867 -1.5660
   53MOL   H14039764   4.138   0.582   2.319  1.5886 -0.6449 -1.4407
   53MOL   H14139765   4.390   0.668   2.469  0.1296  1.8871 -0.1830
   53MOL   H14239766   4.246   0.751   2.511  0.9934 -1.1208  1.8020
   53MOL   H14339767   4.350   0.405   2.447  0.8585  0.4261 -0.8465
   53MOL   H14439768   4.344   0.457   2.278  0.4213  1.0582 -0.5436
   53MOL   H14539769   4.117   0.354   2.257 -0.0169 -1.8912 -1.3689
   53MOL   H14639770   4.234   0.232   2.300  1.8805  1.1519  0.4184
   53MOL   H14739771   4.140   0.268   2.543  0.3358  1.3083  0.0830
   53MOL   H14839772   4.051   0.085   2.419 -0.8029 -1.1329  1.2486
   53MOL   H14939773   3.946   0.181   2.316  0.6958 -0.0029  0.1879
   53MOL   H15039774   3.512   0.091   2.464  0.3410 -1.2611  0.4508
   53MOL   H15139775   3.341   0.137   2.644  0.0915  0.9497  1.5569
   53MOL   H15239776   3.648   0.200   2.935 -3.1187 -0.1894  0.8337
   53MOL   H15339777   3.825   0.185   2.742 -0.2963  3.1602  2.2426
   53MOL   C15439778   3.144   0.674   2.917 -0.2882 -0.4966 -0.1883
   53MOL   C15539779   3.194   0.531   2.953  0.4519  0.6594  0.4414
   53MOL   C15639780   3.107   0.428   2.879  0.4107 -0.3265 -0.9572
   53MOL   C15739781   3.149   0.287   2.913 -0.9166  0.2790  0.1356
   53MOL   C15839782   2.957   0.439   2.920 -0.2509  0.0639  0.4297
   53MOL   C15939783   2.909   0.580   2.900  0.8832  1.1332  0.0844
   53MOL   C16039784   2.997   0.689   2.966  0.0614 -0.3383  0.4507
   53MOL   C16139785   2.945   0.831   2.940 -0.7286 -0.5777 -0.7961
   53MOL   O16239786   2.808   0.841   2.975  0.6094  0.2437 -0.2073
   53MOL   C16339787   2.769   0.879   3.101 -0.1161 -0.2086  0.2266
   53MOL   O16439788   2.851   0.921   3.187 -0.3501  0.6026  0.4884
   53MOL   C16539789   2.622   0.868   3.131  0.3096 -0.6845  0.4521
   53MOL   C16639790   2.570   0.936   3.240 -0.1132 -0.4655 -0.3459
   53MOL   C16739791   2.430   0.920   3.278 -0.2571 -0.2136 -0.5751
   53MOL   C16839792   2.344   0.837   3.210 -0.9147 -0.6486 -0.6874
   53MOL   C16939793   2.209   0.819   3.267 -0.0446 -0.5242 -0.2171
   53MOL   O17039794   2.131   0.732   3.229 -0.5682 -0.5972  0.0542
   53MOL   O17139795   2.176   0.909   3.364  0.2529 -0.3823  0.0003
   53MOL   C17239796   2.399   0.766   3.097  0.5756  0.1435 -0.3945
   53MOL   C17339797   2.531   0.785   3.061 -0.4084 -0.1997 -0.3275
   53MOL   H17439798   3.148   0.691   2.809  1.2788  2.0072  0.2505
   53MOL   H17539799   3.222   0.738   2.957 -2.5722  1.4957  1.2229
   53MOL   H17639800   3.190   0.519   3.061  3.7363  2.7071  0.8464
   53MOL   H17739801   3.300   0.522   2.930  0.3181  0.0354  0.0766
   53MOL   H17839802   3.115   0.440   2.771  1.8312  1.9085 -0.6448
   53MOL   H17939803   3.069   0.215   2.903 -0.5246 -0.3454  1.3741
   53MOL   H18039804   3.163   0.287   3.021 -0.3343  0.8043  0.0663
   53MOL   H18139805   2.960   0.443   3.029  2.0461  1.8317  0.3523
   53MOL   H18239806   2.890   0.360   2.888 -1.1954  0.8866  0.3527
   53MOL   H18339807   2.879   0.600   2.797 -0.2053  0.8028  0.3262
   53MOL   H18439808   2.815   0.585   2.957 -0.7503 -0.6440 -2.3813
   53MOL   H18539809   2.988   0.664   3.072  1.9436 -0.9343  0.4948
   53MOL   H18639810   2.941   0.842   2.831  0.2438  0.6549 -0.7179
   53MOL   H18739811   2.998   0.915   2.984 -0.2543 -0.3852 -1.7116
   53MOL   H18839812   2.644   0.985   3.301  0.6640 -2.1380  0.0600
   53MOL   H18939813   2.386   0.978   3.358 -1.0325  2.1378 -2.6262
   53MOL   H19039814   2.341   0.689   3.049 -0.1464  2.7324 -3.9019
   53MOL   H19139815   2.582   0.727   2.986 -0.1799  1.2111 -1.2850
   53MOL   C19239816   2.066   0.926   3.817  0.2611  0.4522 -0.0916
   53MOL   C19339817   2.097   0.875   3.670 -0.9251 -0.9207 -0.3622
   53MOL   C19439818   2.050   0.974   3.564  0.4180  0.4702 -0.3234
   53MOL   C19539819   2.050   0.905   3.422  0.3644 -0.0804  0.3720
   53MOL   C19639820   1.914   1.040   3.585  0.3814 -0.1281 -0.9837
   53MOL   C19739821   1.913   1.112   3.723  0.4035 -0.1913  0.0616
   53MOL   C19839822   1.934   0.995   3.840 -0.4940  0.2487  0.3275
   53MOL   C19939823   1.914   1.056   3.979  0.1917 -0.1973 -0.2684
   53MOL   O20039824   1.780   1.107   3.977 -0.1983 -0.2686  0.0279
   53MOL   C20139825   1.759   1.228   4.021  0.0249 -0.6973 -0.1009
   53MOL   O20239826   1.849   1.299   4.065 -0.0086 -0.2401 -0.2040
   53MOL   C20339827   1.624   1.275   4.014  0.4753 -0.0915  0.3814
   53MOL   C20439828   1.518   1.188   4.008  0.6283  0.6816 -0.6683
   53MOL   C20539829   1.385   1.240   3.997 -0.8604 -0.2175 -0.3563
   53MOL   C20639830   1.369   1.375   3.980 -0.4869  0.6035  0.1078
   53MOL   C20739831   1.232   1.437   3.952 -0.3295 -0.9642  0.1322
   53MOL   O20839832   1.216   1.556   3.963  0.0818  0.3643  0.3507
   53MOL   O20939833   1.137   1.355   3.923  0.4018  0.3517 -0.0936
   53MOL   C21039834   1.475   1.458   3.962 -0.6481 -0.1312  0.0200
   53MOL   C21139835   1.604   1.416   3.990 -0.1825 -0.6351  0.4904
   53MOL   H21239836   2.137   1.003   3.847  2.6711 -1.3725 -0.8732
   53MOL   H21339837   2.081   0.848   3.891 -1.7466 -0.3191 -0.4558
   53MOL   H21439838   2.054   0.776   3.653 -1.3714 -0.6275 -0.9183
   53MOL   H21539839   2.203   0.851   3.662 -0.4199  1.1234  0.0748
   53MOL   H21639840   2.125   1.053   3.561  0.0487  0.8068 -0.8169
   53MOL   H21739841   1.980   0.956   3.357  0.0269  0.4737  1.1568
   53MOL   H21839842   2.004   0.806   3.432  0.0681  0.0004 -0.2133
   53MOL   H21939843   1.832   0.971   3.567  1.0355 -0.3045 -3.4607
   53MOL   H22039844   1.905   1.115   3.506 -1.4245  0.2149 -0.4757
   53MOL   H22139845   1.980   1.197   3.734  0.0455  0.1790 -0.5897
   53MOL   H22239846   1.816   1.161   3.735  0.8004  1.4021 -2.7767
   53MOL   H22339847   1.861   0.916   3.821  1.4702 -1.7213  0.7633
   53MOL   H22439848   1.996   1.128   3.984 -0.7918  0.9238  0.0438
   53MOL   H22539849   1.932   0.977   4.051  1.7931 -0.2727 -0.7410
   53MOL   H22639850   1.535   1.083   4.024 -0.7780  0.5743  0.2718
   53MOL   H22739851   1.298   1.177   3.993 -0.7292 -0.3493 -1.1241
   53MOL   H22839852   1.459   1.564   3.943  1.8427 -0.1202 -2.1879
   53MOL   H22939853   1.689   1.482   3.991 -0.1552 -0.6716  0.6045
   53MOL   C23039854   0.793   1.472   4.182 -0.4322  0.9736  0.2004
   53MOL   C23139855   0.918   1.459   4.094  0.3392  0.5688  0.1848
   53MOL   C23239856   0.893   1.393   3.952 -0.3379 -0.5086  0.2198
   53MOL   C23339857   1.018   1.402   3.859  0.5138  0.0279 -0.5385
   53MOL   C23439858   0.829   1.253   3.982  0.0429 -0.2625 -0.1178
   53MOL   C23539859   0.697   1.272   4.063  0.0279 -0.2446  0.0292
   53MOL   C23639860   0.717   1.335   4.202 -0.6213 -1.2305 -0.4288
   53MOL   C23739861   0.584   1.343   4.278 -0.4990 -1.3770 -0.1664
   53MOL   O23839862   0.617   1.369   4.411 -0.0557  0.2151 -0.3265
   53MOL   C23939863   0.533   1.467   4.472  0.0336  0.5494 -0.3970
   53MOL   O24039864   0.444   1.529   4.415  0.0625  0.1224 -0.4082
   53MOL   C24139865   0.579   1.495   4.613 -0.2415  0.0878  0.1555
   53MOL   C24239866   0.676   1.410   4.675 -1.0478  0.0066 -0.4405
   53MOL   C24339867   0.721   1.429   4.804  0.1128 -0.2116  0.2997
   53MOL   C24439868   0.674   1.540   4.877  0.0233  0.5144 -0.1925
   53MOL   C24539869   0.744   1.571   5.012 -0.2190  0.2917  0.7398
   53MOL   O24639870   0.847   1.509   5.054  0.1821  0.3959 -0.1113
   53MOL   O24739871   0.688   1.664   5.078 -0.2630  0.4974  0.5670
   53MOL   C24839872   0.565   1.617   4.826 -0.0639 -0.4308  0.5011
   53MOL   C24939873   0.522   1.595   4.690 -0.2279 -0.1052 -0.5425
   53MOL   H25039874   0.726   1.541   4.131 -0.2439  0.9785 -0.0444
   53MOL   H25139875   0.815   1.520   4.277 -0.9072  2.6596 -0.5101
   53MOL   H25239876   0.997   1.423   4.159  1.2723  1.1347 -0.6238
   53MOL   H25339877   0.959   1.560   4.089  0.9798  0.2352 -1.5992
   53MOL   H25439878   0.814   1.445   3.898 -1.7502 -0.2644  2.4519
   53MOL   H25539879   1.027   1.496   3.804  0.1825 -0.5101 -1.5257
   53MOL   H25639880   0.999   1.334   3.776  1.3636  0.3670 -1.0192
   53MOL   H25739881   0.884   1.186   4.049  0.1957 -1.0813 -1.0530
   53MOL   H25839882   0.808   1.198   3.890 -0.0522  0.3104 -0.4409
   53MOL   H25939883   0.624   1.331   4.006 -1.9162 -1.4378  1.2213
   53MOL   H26039884   0.646   1.177   4.081 -0.3762  0.0354  0.3627
   53MOL   H26139885   0.787   1.279   4.266  0.1377 -0.6678 -0.7572
   53MOL   H26239886   0.535   1.246   4.264 -1.5950 -0.9155  0.4661
   53MOL   H26339887   0.530   1.417   4.220  0.2926 -1.8490 -1.5526
   53MOL   H26439888   0.729   1.330   4.625  0.9419  0.1210  1.4360
   53MOL   H26539889   0.805   1.367   4.833  0.0991  0.0104  0.8135
   53MOL   H26639890   0.517   1.698   4.881 -2.3056 -0.0366 -1.9048
   53MOL   H26739891   0.455   1.665   4.642  1.9918  0.6494 -2.6132
   53MOL   C26839892   0.361   1.724   5.371 -0.5748  0.5019 -0.7375
   53MOL   C26939893   0.484   1.654   5.305 -0.5522  0.3703  0.0766
   53MOL   C27039894   0.606   1.753   5.285 -0.0358  0.1119  0.6548
   53MOL   C27139895   0.726   1.690   5.207 -0.0293  0.6009  0.0249
   53MOL   C27239896   0.548   1.873   5.201  0.3378  0.1992 -0.4373
   53MOL   C27339897   0.436   1.946   5.282  0.7073 -0.3202  0.6970
   53MOL   C27439898   0.321   1.854   5.292 -0.2202 -0.4267 -0.4566
   53MOL   C27539899   0.195   1.918   5.344  0.5648  0.3617 -0.1883
   53MOL   O27639900   0.134   2.001   5.249 -0.0050 -0.4599  0.5089
   53MOL   C27739901   0.144   2.139   5.261  0.5866  0.3839 -0.2259
   53MOL   O27839902   0.210   2.186   5.350 -0.1938  0.0006 -0.1244
   53MOL   C27939903   0.059   2.222   5.164 -0.2775  0.3891  0.6215
   53MOL   C28039904   0.043   2.362   5.177  0.0024  0.1435  0.6964
   53MOL   C28139905   7.980   2.435   5.096 -0.3403 -0.1615  0.4075
   53MOL   C28239906   7.904   2.369   4.997 -0.2680 -0.2320  0.6120
   53MOL   C28339907   7.804   2.433   4.916  0.9968  0.0272 -0.5267
   53MOL   O28439908   7.809   2.553   4.873  0.3227 -0.3627 -0.1431
   53MOL   O28539909   7.700   2.348   4.902  0.2064 -1.1115 -0.2322
   53MOL   C28639910   7.928   2.229   4.980 -0.5544  0.1095  0.0238
   53MOL   C28739911   8.018   2.155   5.061 -0.1982 -0.2557  0.8326
   53MOL   H28839912   0.375   1.749   5.476  0.0245  2.2749 -1.2238
   53MOL   H28939913   0.274   1.659   5.380 -0.6737  0.9021  1.5494
   53MOL   H29039914   0.453   1.621   5.205  0.8664  1.5706 -0.7791
   53MOL   H29139915   0.509   1.559   5.353 -0.5453  0.2418 -0.1802
   53MOL   H29239916   0.649   1.780   5.381 -0.8712 -0.0625  1.0836
   53MOL   H29339917   0.771   1.607   5.262 -0.1950 -0.2100 -1.0404
   53MOL   H29439918   0.801   1.768   5.204 -1.5367  2.0683  0.1186
   53MOL   H29539919   0.515   1.844   5.101 -1.6692  0.0415  0.2541
   53MOL   H29639920   0.636   1.936   5.186  1.1410 -1.2707 -2.0482
   53MOL   H29739921   0.467   1.993   5.375 -1.2509  0.6208  0.8794
   53MOL   H29839922   0.412   2.029   5.215  0.6521 -0.8409  0.0580
   53MOL   H29939923   0.301   1.816   5.192  2.1147 -0.3163 -0.9948
   53MOL   H30039924   0.228   1.960   5.439  0.7929 -0.7670  0.2495
   53MOL   H30139925   0.130   1.834   5.370  1.8801 -1.4618 -2.5924
   53MOL   H30239926   0.096   2.418   5.253  1.0848  2.7585 -1.8870
   53MOL   H30339927   7.988   2.543   5.098  0.4946 -0.2130  0.4028
   53MOL   H30439928   7.878   2.184   4.896 -0.0163  0.6539 -0.5983
   53MOL   H30539929   8.030   2.050   5.039 -1.8352 -0.0902 -0.9984
   53MOL   C30639930   7.351   2.075   4.882  0.0617 -0.4906 -0.1894
   53MOL   C30739931   7.445   2.197   4.925 -0.0935 -0.7437  0.2563
   53MOL   C30839932   7.491   2.280   4.798  0.5224 -0.0269  0.3675
   53MOL   C30939933   7.583   2.398   4.836  0.4197  0.0872  0.0416
   53MOL   C31039934   7.554   2.177   4.706  0.0683 -0.4130 -0.3220
   53MOL   C31139935   7.465   2.067   4.664  0.0481  0.0713 -0.4811
   53MOL   C31239936   7.431   1.980   4.788  0.5951 -0.0784 -0.2363
   53MOL   C31339937   7.342   1.858   4.745  0.3531 -0.0255  0.2082
   53MOL   O31439938   7.421   1.794   4.650  0.6393 -0.2546 -0.7298
   53MOL   C31539939   7.398   1.671   4.614  0.3315 -0.2109 -0.6293
   53MOL   O31639940   7.303   1.605   4.654  0.1452  0.0144  0.0698
   53MOL   C31739941   7.496   1.618   4.507 -0.1643  0.3296 -0.2546
   53MOL   C31839942   7.617   1.686   4.479  0.3431  0.2227 -1.4952
   53MOL   C31939943   7.707   1.624   4.383  0.0779  0.0055 -0.0566
   53MOL   C32039944   7.680   1.491   4.341 -0.8933 -0.1527 -0.2877
   53MOL   C32139945   7.784   1.433   4.256  0.2666 -0.4937  0.2225
   53MOL   O32239946   7.865   1.498   4.187  0.1056  0.1466  0.2796
   53MOL   O32339947   7.776   1.299   4.262 -0.8668  0.2148  0.2739
   53MOL   C32439948   7.557   1.429   4.372  0.7236 -0.3015  0.0982
   53MOL   C32539949   7.463   1.488   4.453 -0.2232 -0.2022 -0.0621
   53MOL   H32639950   7.262   2.120   4.838 -0.3967 -2.2000 -1.0674
   53MOL   H32739951   7.328   2.029   4.978 -2.0029 -0.5338 -0.6803
   53MOL   H32839952   7.529   2.153   4.980 -1.1718 -2.8775  0.2489
   53MOL   H32939953   7.403   2.272   4.992 -1.3403 -0.2416 -1.0586
   53MOL   H33039954   7.400   2.319   4.753  0.5415 -0.8541 -0.3982
   53MOL   H33139955   7.524   2.475   4.885  0.0324 -0.8055  1.0025
   53MOL   H33239956   7.618   2.438   4.740  1.9111  0.2167  0.6275
   53MOL   H33339957   7.649   2.148   4.750  0.1694 -0.2336 -0.4242
   53MOL   H33439958   7.582   2.227   4.613 -0.7711  1.0525  0.1879
   53MOL   H33539959   7.374   2.107   4.620  0.0846  1.1155  0.3717
   53MOL   H33639960   7.515   2.005   4.589  1.3763  1.6296 -0.9261
   53MOL   H33739961   7.522   1.943   4.835  1.2309  2.0353  0.2523
   53MOL   H33839962   7.242   1.889   4.713 -0.2196 -1.4310  0.5700
   53MOL   H33939963   7.332   1.789   4.829 -0.1270 -0.1648  0.0384
   53MOL   H34039964   7.647   1.786   4.509  2.4671 -0.1579 -2.2337
   53MOL   H34139965   7.793   1.685   4.357 -0.2319  0.8245  0.8110
   53MOL   H34239966   7.529   1.331   4.334 -1.4286 -0.0791  1.0247
   53MOL   H34339967   7.370   1.432   4.462 -1.2714  1.4325 -0.5656
   53MOL   C34439968   7.720   1.092   3.877  0.4879 -0.1772 -0.0341
   53MOL   C34539969   7.756   1.197   3.986 -0.8943  0.2525  0.3156
   53MOL   C34639970   7.823   1.123   4.102 -0.1315  0.2653 -0.0416
   53MOL   C34739971   7.883   1.214   4.217  0.3725  0.2736  0.1844
   53MOL   C34839972   7.724   1.023   4.161 -0.7051  0.1410 -0.0728
   53MOL   C34939973   7.693   0.920   4.054  0.4549  0.7166  0.0282
   53MOL   C35039974   7.630   0.978   3.925  0.0916 -0.6459 -0.2101
   53MOL   C35139975   7.610   0.870   3.812 -0.0031  0.2508 -0.7597
   53MOL   O35239976   7.498   0.803   3.837 -0.0565  0.1485  0.5141
   53MOL   C35339977   7.420   0.745   3.748 -0.2942 -0.1148  0.0237
   53MOL   O35439978   7.453   0.739   3.628 -0.0266  0.1241  0.1659
   53MOL   C35539979   7.303   0.677   3.815  0.2197  0.9787  0.2332
   53MOL   C35639980   7.282   0.670   3.958  0.1162  0.4756  0.5726
   53MOL   C35739981   7.175   0.605   4.019  0.3764 -0.2922  0.4536
   53MOL   C35839982   7.075   0.554   3.934  0.3481 -0.2810  1.0096
   53MOL   C35939983   6.943   0.506   3.989 -0.5805  0.5899 -0.8559
   53MOL   O36039984   6.935   0.461   4.102  0.0051  0.5908  0.0765
   53MOL   O36139985   6.854   0.519   3.900  0.5374 -0.4509 -0.1019
   53MOL   C36239986   7.095   0.549   3.788 -0.3520  0.0081  0.1072
   53MOL   C36339987   7.208   0.612   3.736  0.0894 -0.3390 -0.0619
   53MOL   H36439988   7.810   1.041   3.844  0.7265 -0.0858  0.4748
   53MOL   H36539989   7.681   1.143   3.788  0.1401 -1.0544 -0.3974
   53MOL   H36639990   7.671   1.252   4.027 -0.9914  1.0096 -0.8781
   53MOL   H36739991   7.812   1.280   3.944  1.4731 -1.2489  0.4470
   53MOL   H36839992   7.909   1.066   4.066  0.0334 -0.1441  0.9811
   53MOL   H36939993   7.963   1.276   4.177  0.0736  1.7365  1.7617
   53MOL   H37039994   7.923   1.147   4.294 -0.2194 -3.1477 -2.3507
   53MOL   H37139995   7.639   1.074   4.206  0.4897  1.4006  0.8177
   53MOL   H37239996   7.780   0.971   4.240 -0.8226  0.4602  0.2225
   53MOL   H37339997   7.787   0.876   4.019 -0.6507 -0.1515 -1.8612
   53MOL   H37439998   7.632   0.838   4.092  0.4127  0.1885 -1.1699
   53MOL   H37539999   7.528   1.013   3.938  0.3173 -0.1816  0.3336
   53MOL   H37640000   7.687   0.794   3.805 -0.1248 -0.1253  1.6908
   53MOL   H37740001   7.608   0.920   3.715 -1.2770  0.3223 -0.7030
   53MOL   H37840002   7.353   0.715   4.025 -0.0485  1.4400  0.1066
   53MOL   H37940003   7.150   0.630   4.121  0.4691 -0.1803  0.4488
   53MOL   H38040004   7.029   0.492   3.724  0.6428  0.4595 -1.3639
   53MOL   H38140005   7.234   0.608   3.631  0.4569  1.1336 -0.0469
   53MOL   C38240006   6.595   0.160   3.690 -0.7142  1.0549  0.5412
   53MOL   C38340007   6.593   0.284   3.771 -0.6159 -0.6346 -0.2695
   53MOL   C38440008   6.733   0.340   3.802 -0.4078 -0.9137  0.0646
   53MOL   C38540009   6.729   0.445   3.910  0.3616 -0.7731 -0.0249
   53MOL   C38640010   6.842   0.236   3.829 -0.2315  0.5615 -0.6821
   53MOL   C38740011   6.839   0.126   3.730  0.0606  0.3097 -0.0218
   53MOL   C38840012   6.705   0.051   3.722  0.4472 -0.3520  0.2229
   53MOL   C38940013   6.707   7.974   3.611  0.4259  0.2873 -0.0682
   53MOL   O39040014   6.700   8.021   3.479 -1.1024  0.0642 -0.5795
   53MOL   C39140015   6.655   7.935   3.382  0.5256 -0.3726  0.2488
   53MOL   O39240016   6.609   7.824   3.405  0.6465 -0.3734 -0.1604
   53MOL   C39340017   6.676   7.991   3.246  0.1329 -0.6947  0.3272
   53MOL   C39440018   6.633   7.915   3.137  0.1672  0.3087 -0.1868
   53MOL   C39540019   6.662   7.951   3.009 -0.0589  0.1994  0.1563
   53MOL   C39640020   6.738   0.031   2.982 -0.2909  0.1382 -0.2304
   53MOL   C39740021   6.765   0.081   2.840 -0.0966 -0.1252 -0.0724
   53MOL   O39840022   6.724   0.027   2.735 -0.7027 -0.2518 -0.3083
   53MOL   O39940023   6.828   0.207   2.843 -0.5852 -0.1594 -0.4686
   53MOL   C40040024   6.790   0.103   3.087  0.4179 -0.0700  0.0269
   53MOL   C40140025   6.753   0.073   3.224  0.5217 -0.4296  0.3180
   53MOL   H40240026   6.612   0.189   3.586  0.1794 -1.1750  0.0285
   53MOL   H40340027   6.496   0.115   3.691 -0.2875  0.0017 -1.4867
   53MOL   H40440028   6.542   0.262   3.864 -0.3261 -2.0470 -0.4312
   53MOL   H40540029   6.534   0.353   3.710 -2.1068 -0.3045  1.5265
   53MOL   H40640030   6.768   0.398   3.716 -0.1881 -1.1953 -0.0397
   53MOL   H40740031   6.718   0.395   4.006 -1.0063  0.5166  0.5133
   53MOL   H40840032   6.646   0.513   3.892 -0.2369 -1.5546 -0.2775
   53MOL   H40940033   6.820   0.195   3.927  3.1487 -0.7815 -0.4322
   53MOL   H41040034   6.939   0.285   3.819 -0.0713  0.6131  0.9632
   53MOL   H41140035   6.863   0.173   3.635  2.3838  0.2897  0.5304
   53MOL   H41240036   6.924   0.058   3.736 -0.3834 -0.0915  2.2485
   53MOL   H41340037   6.681   0.017   3.823  0.5306 -1.6221 -0.1814
   53MOL   H41440038   6.617   7.917   3.631 -0.1535  1.2601  0.1095
   53MOL   H41540039   6.791   7.904   3.609 -0.8356 -1.2650  0.2182
   53MOL   H41640040   6.567   7.836   3.167 -0.7499  0.7223 -1.0757
   53MOL   H41740041   6.623   7.893   2.927 -0.2824  0.7003 -0.0906
   53MOL   H41840042   6.858   0.185   3.066  2.1994 -1.5432 -0.0890
   53MOL   H41940043   6.783   0.137   3.306 -0.5714  0.9207 -0.3167
   53MOL   C42040044   7.078   0.573   2.616  0.2371 -0.0453 -0.3446
   53MOL   C42140045   6.965   0.466   2.611 -0.0363 -0.1800  0.4177
   53MOL   C42240046   6.963   0.376   2.737  1.0291  0.3115  0.3906
   53MOL   C42340047   6.857   0.267   2.721 -0.0882  0.0301 -0.3307
   53MOL   C42440048   7.102   0.312   2.769 -0.2155 -0.8599 -0.1076
   53MOL   C42540049   7.218   0.417   2.768  0.3747 -0.0692 -0.3272
   53MOL   C42640050   7.221   0.505   2.641  0.6078  0.2721 -0.0767
   53MOL   C42740051   7.332   0.607   2.633 -0.8561  0.0867 -0.0876
   53MOL   O42840052   7.308   0.704   2.738  0.0779 -0.1931 -0.2061
   53MOL   C42940053   7.401   0.804   2.755  0.5880 -0.4396 -0.0663
   53MOL   O43040054   7.504   0.801   2.693 -0.2158 -0.5897 -0.3573
   53MOL   C43140055   7.358   0.913   2.852  0.8432 -0.8439 -0.5008
   53MOL   C43240056   7.221   0.914   2.887 -0.0102 -1.3670  0.0072
   53MOL   C43340057   7.177   1.012   2.980  0.0249 -0.4823 -0.2972
   53MOL   C43440058   7.262   1.110   3.025  0.0485 -0.7044  0.1553
   53MOL   C43540059   7.221   1.201   3.137 -0.6459 -0.9311 -0.2579
   53MOL   O43640060   7.258   1.317   3.160 -0.6737 -0.3630 -0.4475
   53MOL   O43740061   7.141   1.137   3.230 -0.4599 -0.4617 -0.1854
   53MOL   C43840062   7.393   1.117   2.977  0.5286 -0.7462  0.1411
   53MOL   C43940063   7.444   1.012   2.897 -0.1220 -0.4976 -0.0332
   53MOL   H44040064   7.062   0.643   2.698  0.7319 -0.4064  0.0609
   53MOL   H44140065   7.080   0.633   2.526 -0.8000  1.5460  0.6727
   53MOL   H44240066   6.973   0.399   2.525  1.3672 -0.1637  0.5368
   53MOL   H44340067   6.871   0.522   2.607 -0.2011 -0.4914 -0.1719
   53MOL   H44440068   6.937   0.439   2.822  2.7344  0.8163  0.5450
   53MOL   H44540069   6.888   0.186   2.655 -1.8830  0.6513 -2.0101
   53MOL   H44640070   6.774   0.316   2.669 -0.7519  0.2197  0.8747
   53MOL   H44740071   7.112   0.224   2.706 -3.3566 -1.8058  0.6370
   53MOL   H44840072   7.093   0.267   2.868  1.0408 -4.5550 -1.6047
   53MOL   H44940073   7.201   0.475   2.859 -0.1834 -0.8035  0.0415
   53MOL   H45040074   7.306   0.358   2.794 -0.3459 -0.4492  1.3196
   53MOL   H45140075   7.243   0.438   2.557  0.2370 -0.1359  0.1453
   53MOL   H45240076   7.355   0.666   2.543 -0.7585 -0.1224 -0.2002
   53MOL   H45340077   7.425   0.555   2.656 -2.2786 -2.6347 -0.2490
   53MOL   H45440078   7.146   0.841   2.862  0.1756 -2.0013  1.2644
   53MOL   H45540079   7.070   1.017   2.995 -0.0977 -0.5673 -1.0789
   53MOL   H45640080   7.459   1.194   3.014 -0.1978 -0.4729  0.8878
   53MOL   H45740081   7.544   1.018   2.857 -0.2270  1.6359 -0.0352
   53MOL   C45840082   7.061   0.841   3.523 -0.0600  0.1367  0.6227
   53MOL   C45940083   7.126   0.967   3.448  0.2109  0.1921  0.2151
   53MOL   C46040084   7.039   1.094   3.436  0.1150  0.2111 -0.9920
   53MOL   C46140085   7.101   1.201   3.350  0.2103  0.6618 -0.2359
   53MOL   C46240086   6.899   1.062   3.399 -0.1379  0.0505 -0.7105
   53MOL   C46340087   6.837   0.942   3.482  0.2777  0.0658 -0.2092
   53MOL   C46440088   6.913   0.813   3.486  0.2024 -0.3833  0.3496
   53MOL   C46540089   6.847   0.698   3.569 -0.4617  0.1571 -0.0151
   53MOL   O46640090   6.711   0.677   3.519 -0.2226 -0.2003 -0.3830
   53MOL   C46740091   6.683   0.553   3.467  0.6518  0.2987 -0.4566
   53MOL   O46840092   6.772   0.465   3.462  0.6153 -0.6432  0.4216
   53MOL   C46940093   6.547   0.544   3.412  0.1618  0.2587 -0.0920
   53MOL   C47040094   6.459   0.652   3.393  0.1388 -0.4405  0.1312
   53MOL   C47140095   6.329   0.634   3.333 -0.0024 -0.0421  0.6902
   53MOL   C47240096   6.284   0.505   3.295 -0.4489  0.5108 -0.1178
   53MOL   C47340097   6.152   0.487   3.226  0.8130  0.1573 -0.5769
   53MOL   O47440098   6.117   0.394   3.153 -0.4666  0.0149  0.0169
   53MOL   O47540099   6.064   0.586   3.261  0.3123  0.4898 -0.3457
   53MOL   C47640100   6.375   0.401   3.313  0.2263 -0.4596  0.6938
   53MOL   C47740101   6.500   0.413   3.381 -0.4530 -1.0916  0.6800
   53MOL   H47840102   7.060   0.859   3.630 -0.3914  1.9570  0.3276
   53MOL   H47940103   7.116   0.750   3.501  0.0694  0.8787 -2.2794
   53MOL   H48040104   7.146   0.921   3.352  1.1542  0.0351  0.4824
   53MOL   H48140105   7.217   0.987   3.504  0.5305 -0.8560  0.0763
   53MOL   H48240106   7.029   1.138   3.535 -1.0554 -0.2980 -0.8767
   53MOL   H48340107   7.184   1.251   3.398  1.4553 -0.6510 -0.9800
   53MOL   H48440108   7.023   1.274   3.330  0.6158  1.0370 -0.4510
   53MOL   H48540109   6.900   1.036   3.293  0.1504  0.3159 -0.7753
   53MOL   H48640110   6.837   1.152   3.391  0.4852  0.4450 -1.1413
   53MOL   H48740111   6.821   0.982   3.582  2.0749  2.9759 -1.0344
   53MOL   H48840112   6.735   0.919   3.451  0.0874  0.4362  0.1337
   53MOL   H48940113   6.917   0.770   3.385  1.9820  0.0110  0.2423
   53MOL   H49040114   6.843   0.706   3.678  2.0153  1.3099  0.0181
   53MOL   H49140115   6.909   0.610   3.552  0.0422 -0.1279  2.9036
   53MOL   H49240116   6.490   0.750   3.426 -1.0425  0.0257 -0.0956
   53MOL   H49340117   6.262   0.715   3.312  0.1261 -0.1139  0.0076
   53MOL   H49440118   6.348   0.302   3.278 -0.5729  0.3943 -1.1334
   53MOL   H49540119   6.567   0.328   3.386 -1.3466 -1.7657  1.3047
   53MOL   C49640120   6.037   0.814   2.876  0.8410  0.1105 -0.2347
   53MOL   C49740121   6.022   0.695   2.974 -0.2389 -0.6091 -0.5976
   53MOL   C49840122   5.940   0.725   3.105  0.1361  0.3807  0.0322
   53MOL   C49940123   5.938   0.606   3.204  0.0016  0.1758 -0.5487
   53MOL   C50040124   5.981   0.857   3.172  0.7375 -0.2916 -0.6524
   53MOL   C50140125   6.003   0.973   3.073 -0.2406 -0.0789  0.4437
   53MOL   C50240126   6.096   0.932   2.955  0.1383  0.1634  0.3789
   53MOL   C50340127   6.107   1.058   2.861  0.7807  0.2860 -0.2218
   53MOL   O50440128   6.203   1.039   2.759 -0.6529 -0.2144 -0.1005
   53MOL   C50540129   6.247   1.138   2.680 -0.3508 -0.3426 -0.2539
   53MOL   O50640130   6.199   1.249   2.689 -0.5798  0.3232  0.0099
   53MOL   C50740131   6.363   1.095   2.596  0.4585 -0.3565 -0.0779
   53MOL   C50840132   6.418   1.194   2.505  0.4728 -0.3211 -0.0916
   53MOL   C50940133   6.533   1.166   2.433 -0.3740 -0.6821  0.4049
   53MOL   C51040134   6.599   1.049   2.458 -0.1903 -0.5090  0.4722
   53MOL   C51140135   6.726   1.021   2.385 -0.7430  0.0724 -0.2588
   53MOL   O51240136   6.781   0.912   2.389 -0.1935  0.5362  1.2996
   53MOL   O51340137   6.768   1.122   2.309  0.2535 -0.2692  0.1794
   53MOL   C51440138   6.544   0.950   2.544 -0.2917  0.2408 -0.4769
   53MOL   C51540139   6.421   0.966   2.607 -0.3002 -0.1240 -0.0114
   53MOL   H51640140   5.948   0.833   2.817  0.0973  1.9215  1.4481
   53MOL   H51740141   6.110   0.786   2.799  1.1517 -0.1305  0.1420
   53MOL   H51840142   6.115   0.653   3.010 -0.0453 -0.4434 -0.9054
   53MOL   H51940143   5.976   0.611   2.923 -0.5613 -0.5116 -0.4720
   53MOL   H52040144   5.836   0.735   3.074 -0.5769 -0.8150  1.9516
   53MOL   H52140145   5.898   0.520   3.150  1.5087 -1.1256  0.3661
   53MOL   H52240146   5.859   0.626   3.275 -0.4380 -0.9576 -0.7017
   53MOL   H52340147   6.071   0.860   3.233 -1.3292 -2.3716  2.6321
   53MOL   H52440148   5.908   0.877   3.251 -0.3993  0.2402 -1.8173
   53MOL   H52540149   5.909   1.019   3.046  0.6107  1.1287 -0.5088
   53MOL   H52640150   6.045   1.058   3.126  0.7058 -0.7243  0.7506
   53MOL   H52740151   6.195   0.899   2.987 -0.4392 -1.0658  0.9493
   53MOL   H52840152   6.156   1.136   2.919 -1.2313  1.5046 -0.1283
   53MOL   H52940153   6.011   1.099   2.831  0.2710 -0.6705  0.0650
   53MOL   H53040154   6.380   1.295   2.502  0.5749 -0.3100 -1.1190
   53MOL   H53140155   6.582   1.243   2.377 -2.6238  0.8908  0.5328
   53MOL   H53240156   6.602   0.859   2.557 -0.4014  0.3802  1.0170
   53MOL   H53340157   6.377   0.889   2.669 -2.0632 -0.8548 -2.0808
   53MOL   C53440158   6.786   1.297   1.896 -0.8355  0.4813 -0.4133
   53MOL   C53540159   6.795   1.172   1.983 -0.0067  0.3544  0.0981
   53MOL   C53640160   6.878   1.206   2.106  0.3107 -0.4073 -0.3710
   53MOL   C53740161   6.876   1.097   2.218 -0.1701  0.6819  0.0117
   53MOL   C53840162   7.026   1.248   2.066 -0.0723 -0.2963 -0.0355
   53MOL   C53940163   7.014   1.370   1.978 -0.1737 -0.4822  0.4066
   53MOL   C54040164   6.923   1.357   1.857  0.3910  0.0260 -0.4271
   53MOL   C54140165   6.903   1.496   1.800 -0.1615 -0.4733  0.3297
   53MOL   O54240166   7.019   1.560   1.749  0.2698  0.3174  0.6739
   53MOL   C54340167   7.075   1.666   1.807 -0.2188  0.1887 -0.2565
   53MOL   O54440168   7.035   1.719   1.909  0.1838 -0.0298  0.3956
   53MOL   C54540169   7.182   1.711   1.726 -0.1876  0.8439 -0.1920
   53MOL   C54640170   7.291   1.768   1.790  0.3084 -0.8420  0.2385
   53MOL   C54740171   7.400   1.816   1.715  0.3358 -0.0207  0.1413
   53MOL   C54840172   7.401   1.805   1.572 -0.0367  0.0228  0.6745
   53MOL   C54940173   7.507   1.868   1.490 -0.7093 -0.6559 -0.2991
   53MOL   O55040174   7.497   1.895   1.370  0.1573  0.4178  0.3852
   53MOL   O55140175   7.619   1.895   1.560  0.3220  0.0158  0.1310
   53MOL   C55240176   7.291   1.752   1.512 -0.3657  0.2297  0.3933
   53MOL   C55340177   7.180   1.700   1.586  0.3791 -0.5712  0.4990
   53MOL   H55440178   6.728   1.370   1.952 -0.1847  0.6555  0.0244
   53MOL   H55540179   6.731   1.275   1.804 -0.7378  0.9766 -0.5922
   53MOL   H55640180   6.839   1.096   1.918  1.5243  1.1612  0.1578
   53MOL   H55740181   6.699   1.136   2.019  0.2845  1.2729  1.8371
   53MOL   H55840182   6.831   1.295   2.148  2.2572 -0.5314  2.1571
   53MOL   H55940183   6.970   1.099   2.273  0.6051  0.8063 -1.3006
   53MOL   H56040184   6.871   1.001   2.168  1.7797 -0.8172  2.5762
   53MOL   H56140185   7.059   1.164   2.005 -1.0607 -2.8981  2.8984
   53MOL   H56240186   7.094   1.259   2.150 -0.5082  1.1635  0.1326
   53MOL   H56340187   6.972   1.449   2.039  1.6443  0.9185 -0.1240
   53MOL   H56440188   7.113   1.404   1.947  0.1085 -1.6022  0.0277
   53MOL   H56540189   6.957   1.291   1.778 -2.3531 -0.7852 -0.9613
   53MOL   H56640190   6.865   1.557   1.882 -0.9729 -1.2920  0.5769
   53MOL   H56740191   6.823   1.494   1.726  0.8297  0.3648 -0.7852
   53MOL   H56840192   7.298   1.765   1.897  0.6071  1.4792  0.3043
   53MOL   H56940193   7.482   1.863   1.767  0.1180 -0.1207  0.5712
   53MOL   H57040194   7.276   1.754   1.405 -0.2641 -1.0569  0.3463
   53MOL   H57140195   7.093   1.664   1.533 -0.5587  0.5195  1.2857
   53MOL   C57240196   7.998   1.701   1.647  0.3405 -0.5852  0.3209
   53MOL   C57340197   7.885   1.798   1.631  0.4304  0.0661  0.3210
   53MOL   C57440198   7.848   1.828   1.491  0.1851 -0.1326 -0.0731
   53MOL   C57540199   7.734   1.934   1.495 -0.4382 -0.0510 -0.0300
   53MOL   C57640200   7.974   1.878   1.416 -0.0107 -0.2257  0.2632
   53MOL   C57740201   0.058   1.773   1.425 -0.0649  0.2365 -0.2261
   53MOL   C57840202   0.097   1.748   1.576  0.2458  0.1767  0.4179
   53MOL   C57940203   0.195   1.633   1.597  0.7122 -0.0535  0.2242
   53MOL   O58040204   0.313   1.626   1.512 -0.4500 -0.0195  0.0875
   53MOL   C58140205   0.423   1.706   1.534 -0.1515  0.0836  0.4915
   53MOL   O58240206   0.417   1.809   1.596  0.0268  0.2033 -0.0757
   53MOL   C58340207   0.550   1.651   1.479 -0.2627  0.2263  0.6767
   53MOL   C58440208   0.651   1.739   1.438  0.0746 -0.4544 -0.1413
   53MOL   C58540209   0.761   1.690   1.367  0.1776 -0.9290 -0.0841
   53MOL   C58640210   0.768   1.552   1.340 -0.7191  0.2653  1.0757
   53MOL   C58740211   0.887   1.509   1.260 -0.2478  0.2923  0.1802
   53MOL   O58840212   0.950   1.580   1.179 -0.3780 -0.2066 -0.2027
   53MOL   O58940213   0.919   1.387   1.279 -0.6295 -0.0087  0.5388
   53MOL   C59040214   0.668   1.467   1.385  0.0570  0.3710 -0.7208
   53MOL   C59140215   0.558   1.516   1.456  0.6225  0.1567  0.5523
   53MOL   H59240216   7.956   1.604   1.619  0.0465 -0.4528  0.3015
   53MOL   H59340217   8.026   1.699   1.752 -1.3120  1.9810  0.8643
   53MOL   H59440218   7.911   1.890   1.684 -0.1301  0.7337 -0.5522
   53MOL   H59540219   7.798   1.761   1.686 -0.7953 -1.7618 -2.7395
   53MOL   H59640220   7.803   1.747   1.433 -1.2971  1.3051 -0.9902
   53MOL   H59740221   7.709   1.971   1.396 -3.1217 -2.3910 -0.3021
   53MOL   H59840222   7.769   2.024   1.546  0.8561  0.6340 -2.0740
   53MOL   H59940223   8.006   1.973   1.459  2.3876 -1.0425  0.3674
   53MOL   H60040224   7.964   1.899   1.309 -0.8617  0.2710  0.4355
   53MOL   H60140225   0.030   1.679   1.378 -1.0090 -0.1257  1.0368
   53MOL   H60240226   0.150   1.805   1.377  0.4457 -0.5877  0.1934
   53MOL   H60340227   0.140   1.839   1.617 -2.4547  0.6252  2.3808
   53MOL   H60440228   0.138   1.543   1.573  1.7336 -0.7521  0.3884
   53MOL   H60540229   0.220   1.612   1.701 -0.3206  0.3965  0.5635
   53MOL   H60640230   0.637   1.843   1.464 -2.0931 -0.5659 -0.8377
   53MOL   H60740231   0.832   1.764   1.333 -2.4905  0.2292 -3.4153
   53MOL   H60840232   0.670   1.360   1.370  0.8505  0.1678  0.7147
   53MOL   H60940233   0.481   1.444   1.479  0.5624 -0.6058 -1.8799
   53MOL   C61040234   1.208   1.012   1.400  0.0114 -0.2012 -0.5799
   53MOL   C61140235   1.207   1.152   1.324 -0.3114 -0.5494  0.0286
   53MOL   C61240236   1.059   1.198   1.311 -0.6241  0.1761 -0.7486
   53MOL   C61340237   1.047   1.334   1.247  0.2816 -0.1123  0.2359
   53MOL   C61440238   0.981   1.088   1.225  0.7503  0.2856 -0.0019
   53MOL   C61540239   0.983   0.956   1.307 -0.4685 -0.1307 -0.3877
   53MOL   C61640240   1.130   0.912   1.318  0.2281 -0.1495  0.3697
   53MOL   C61740241   1.130   0.767   1.360  0.2460  0.8516 -0.5098
   53MOL   O61840242   1.086   0.767   1.494  0.3221  0.3504  0.5036
   53MOL   C61940243   1.041   0.653   1.543 -0.0095 -0.1203  0.2927
   53MOL   O62040244   1.032   0.545   1.475  0.0191  0.3496 -0.6866
   53MOL   C62140245   1.018   0.672   1.694 -0.2588  0.0949  0.2332
   53MOL   C62240246   1.055   0.793   1.763  0.4879 -0.1230  0.1792
   53MOL   C62340247   1.037   0.804   1.904  0.1966 -0.5703  0.3860
   53MOL   C62440248   0.972   0.699   1.972 -0.1234 -0.3503  0.0169
   53MOL   C62540249   0.943   0.712   2.117 -0.2383  0.3404 -0.1418
   53MOL   O62640250   0.890   0.629   2.191  0.0863 -0.3624 -0.6993
   53MOL   O62740251   0.994   0.821   2.163  0.1063 -0.2139  0.6059
   53MOL   C62840252   0.919   0.590   1.903  0.4257  0.5061 -0.2129
   53MOL   C62940253   0.951   0.568   1.769  0.3649 -0.0309 -0.4702
   53MOL   H63040254   1.178   1.035   1.503 -0.8219  0.9442 -1.0741
   53MOL   H63140255   1.311   0.976   1.398 -1.2303 -3.9805 -0.1668
   53MOL   H63240256   1.256   1.138   1.228 -1.0201  0.6879 -0.5336
   53MOL   H63340257   1.272   1.227   1.370  0.3503 -0.5675 -0.8716
   53MOL   H63440258   1.025   1.190   1.414 -0.5381 -1.2029 -0.8242
   53MOL   H63540259   1.066   1.328   1.140 -1.3258 -0.0444 -0.0615
   53MOL   H63640260   1.117   1.409   1.285 -0.7328  0.1389  1.6501
   53MOL   H63740261   1.006   1.076   1.120  0.4059 -1.1797  0.0646
   53MOL   H63840262   0.878   1.123   1.219  0.6630  0.1978  0.9141
   53MOL   H63940263   0.939   0.971   1.406 -2.0590  0.9004 -1.2309
   53MOL   H64040264   0.924   0.887   1.248  0.4278 -0.3757 -1.0046
   53MOL   H64140265   1.163   0.911   1.214 -1.0707 -0.4571 -0.0482
   53MOL   H64240266   1.230   0.725   1.359 -0.1867 -0.1886 -0.6759
   53MOL   H64340267   1.071   0.701   1.296  0.7836  0.9773 -1.1371
   53MOL   H64440268   1.110   0.872   1.716 -1.3184  0.8435 -0.3475
   53MOL   H64540269   1.080   0.892   1.950 -0.2627  1.2979 -2.6396
   53MOL   H64640270   0.868   0.510   1.955  0.0714  0.4149 -0.6998
   53MOL   H64740271   0.926   0.473   1.724 -0.0606 -0.2663  0.2367
   53MOL   C64840272   1.275   1.054   2.527 -0.0592  0.0362 -0.0965
   53MOL   C64940273   1.154   0.966   2.483  0.3623  1.1239  1.2373
   53MOL   C65040274   1.130   0.945   2.328 -0.2198 -0.1900 -1.3271
   53MOL   C65140275   1.015   0.847   2.299 -0.6222  0.6160 -0.0385
   53MOL   C65240276   1.112   1.077   2.268  1.0152 -0.3504 -0.1866
   53MOL   C65340277   1.235   1.161   2.299  0.5211 -0.6403  0.1596
   53MOL   C65440278   1.263   1.185   2.449 -0.1988  0.5581  0.0018
   53MOL   C65540279   1.379   1.278   2.468  0.1196  0.0004  0.2173
   53MOL   O65640280   1.390   1.310   2.607 -0.0763  0.5719  0.2595
   53MOL   C65740281   1.472   1.406   2.648 -0.1746  0.9115  0.1565
   53MOL   O65840282   1.495   1.499   2.572 -0.2988 -0.3095  0.1531
   53MOL   C65940283   1.518   1.400   2.793  0.1935  0.0956  0.1472
   53MOL   C66040284   1.438   1.329   2.886 -0.0952 -0.6254 -0.0434
   53MOL   C66140285   1.481   1.321   3.017 -0.5217  0.2209  0.7683
   53MOL   C66240286   1.586   1.405   3.068  0.4527 -0.1553 -0.1860
   53MOL   C66340287   1.609   1.415   3.215  0.5347 -0.0370  0.8205
   53MOL   O66440288   1.673   1.501   3.272  0.1451  0.0531 -0.2450
   53MOL   O66540289   1.547   1.308   3.281  0.5654 -0.4383 -0.1733
   53MOL   C66640290   1.667   1.476   2.981 -0.4851  0.6820 -0.0580
   53MOL   C66740291   1.632   1.470   2.842  0.3304 -0.0040 -0.7617
   53MOL   H66840292   1.364   0.996   2.501 -0.7122 -0.0554 -2.2165
   53MOL   H66940293   1.270   1.077   2.633 -0.4601  0.3312 -0.1755
   53MOL   H67040294   1.062   1.010   2.521 -2.8745 -2.6783 -1.7768
   53MOL   H67140295   1.150   0.872   2.538  1.5741 -0.5346 -1.4056
   53MOL   H67240296   1.220   0.908   2.277  0.1887  0.0013 -0.7550
   53MOL   H67340297   0.925   0.895   2.337 -0.5294  1.9545 -1.4618
   53MOL   H67440298   1.031   0.760   2.363 -0.6602 -0.7772 -1.8710
   53MOL   H67540299   1.031   1.127   2.320  0.0295  0.7974 -2.7494
   53MOL   H67640300   1.085   1.069   2.163  0.0806 -2.3693  0.1781
   53MOL   H67740301   1.323   1.118   2.249  0.8829  1.8892 -1.4768
   53MOL   H67840302   1.225   1.263   2.261  1.3823 -0.4679  0.3850
   53MOL   H67940303   1.176   1.243   2.480 -0.6316  0.0800 -0.3038
   53MOL   H68040304   1.347   1.363   2.408  0.4354  0.9001  1.2931
   53MOL   H68140305   1.468   1.228   2.430  0.0608 -1.1205  1.5170
   53MOL   H68240306   1.350   1.278   2.850 -3.0464  4.2825 -0.2391
   53MOL   H68340307   1.422   1.254   3.078 -2.4487  1.4385  0.2864
   53MOL   H68440308   1.740   1.547   3.016 -1.5068  1.5583  0.3409
   53MOL   H68540309   1.688   1.525   2.767 -2.3606  2.0949 -1.3444
   53MOL   C68640310   1.254   1.183   3.650  0.2699  0.4144 -0.2988
   53MOL   C68740311   1.393   1.231   3.608 -0.2405 -0.3555  0.0519
   53MOL   C68840312   1.416   1.228   3.460 -0.6401 -0.4498  0.2877
   53MOL   C68940313   1.550   1.292   3.421 -0.2611  0.7157 -0.2098
   53MOL   C69040314   1.393   1.093   3.400 -0.0431  0.7840  0.0051
   53MOL   C69140315   1.245   1.060   3.437  0.1567 -0.0694 -0.3146
   53MOL   C69240316   1.195   1.060   3.579  0.2473  0.6148 -0.1225
   53MOL   C69340317   1.040   1.073   3.594  0.2583 -0.1232  0.1924
   53MOL   O69440318   0.980   0.948   3.564 -0.3068  0.0432 -0.8258
   53MOL   C69540319   0.971   0.860   3.663 -0.4005 -0.6672  0.2084
   53MOL   O69640320   0.995   0.876   3.783 -0.2693  0.4638 -0.2044
   53MOL   C69740321   0.911   0.734   3.617 -0.5423  0.1436 -0.4249
   53MOL   C69840322   0.827   0.725   3.506 -1.1618 -0.0180 -0.7729
   53MOL   C69940323   0.775   0.600   3.462 -0.1869 -0.1077  0.0670
   53MOL   C70040324   0.797   0.483   3.536 -0.2456 -1.0506  0.6283
   53MOL   C70140325   0.750   0.352   3.485  0.4796 -0.7675 -0.0870
   53MOL   O70240326   0.771   0.247   3.550  0.2077  0.5806  0.2305
   53MOL   O70340327   0.672   0.367   3.371  0.1982 -0.2433 -0.4115
   53MOL   C70440328   0.868   0.497   3.657  0.0980 -0.1774 -0.2963
   53MOL   C70540329   0.932   0.619   3.689  0.0951 -0.3575 -0.3288
   53MOL   H70640330   1.190   1.269   3.628  2.1936  2.2323  1.0008
   53MOL   H70740331   1.244   1.164   3.757 -1.1418 -0.2478 -0.5416
   53MOL   H70840332   1.466   1.164   3.653 -2.1654 -2.3830  0.2706
   53MOL   H70940333   1.399   1.331   3.649  2.6541  0.0087 -1.1551
   53MOL   H71040334   1.332   1.292   3.434 -0.8275 -0.8975 -0.2072
   53MOL   H71140335   1.637   1.228   3.438 -1.4211 -0.5188  1.2327
   53MOL   H71240336   1.580   1.391   3.457  0.9928  0.7720 -1.3585
   53MOL   H71340337   1.463   1.014   3.429 -2.2414 -0.6650  1.5239
   53MOL   H71440338   1.402   1.099   3.292 -0.8281  0.7737 -0.0641
   53MOL   H71540339   1.182   1.133   3.385 -0.9706 -0.2418  0.7767
   53MOL   H71640340   1.220   0.970   3.381  0.3383  0.3832 -1.1423
   53MOL   H71740341   1.234   0.971   3.629  1.5807 -2.1364 -5.6252
   53MOL   H71840342   1.001   1.151   3.527  1.3489 -0.6525 -1.0898
   53MOL   H71940343   0.990   1.099   3.687 -0.5963  0.7991 -0.5042
   53MOL   H72040344   0.813   0.816   3.450  1.7715  1.0913  0.2278
   53MOL   H72140345   0.715   0.599   3.372  0.9941 -0.7487 -0.7344
   53MOL   H72240346   0.897   0.408   3.711  1.5919  1.3731  1.5161
   53MOL   H72340347   0.993   0.630   3.778 -0.6718 -0.4623  0.2181
   53MOL   C72440348   0.229   0.323   3.270  0.0967  0.2256 -0.5487
   53MOL   C72540349   0.386   0.328   3.239 -0.4369  0.0826  0.2864
   53MOL   C72640350   0.468   0.225   3.335 -0.3080  0.5834  0.2724
   53MOL   C72740351   0.616   0.243   3.308 -0.4096  0.0033  0.4752
   53MOL   C72840352   0.424   0.244   3.479 -0.4703  0.2551 -0.6511
   53MOL   C72940353   0.274   0.231   3.502  0.2800 -0.0820 -0.2265
   53MOL   C73040354   0.193   0.330   3.418 -0.3782  0.4115  0.0052
   53MOL   C73140355   0.043   0.302   3.436  0.5157  0.7487  0.2031
   53MOL   O73240356   7.986   0.401   3.394  0.5542  0.2490  0.6817
   53MOL   C73340357   7.972   0.514   3.465 -0.3730  0.0359 -0.2925
   53MOL   O73440358   0.013   0.545   3.557 -0.4505  0.5312 -0.6006
   53MOL   C73540359   7.875   0.601   3.399  0.1862 -0.3606  0.2373
   53MOL   C73640360   7.803   0.689   3.487 -0.1332  0.0311  0.5279
   53MOL   C73740361   7.696   0.759   3.442 -0.3156 -0.1567  0.3865
   53MOL   C73840362   7.654   0.741   3.314 -0.1558  1.1447 -0.0558
   53MOL   C73940363   7.531   0.813   3.263 -0.6116 -0.6255  0.2137
   53MOL   O74040364   7.449   0.860   3.335  0.5701  0.3271  0.1743
   53MOL   O74140365   7.514   0.797   3.131  0.2044 -0.9854  0.6084
   53MOL   C74240366   7.728   0.662   3.223  0.6497 -0.3519  0.0026
   53MOL   C74340367   7.834   0.584   3.267  0.7045  0.0521  0.1940
   53MOL   H74440368   0.179   0.238   3.224 -2.9357  0.9314  1.3426
   53MOL   H74540369   0.178   0.410   3.228 -0.1023  0.5364  0.3267
   53MOL   H74640370   0.434   0.424   3.253  2.8521 -1.3296 -0.8427
   53MOL   H74740371   0.401   0.282   3.141 -0.0245 -0.1100  0.4352
   53MOL   H74840372   0.437   0.124   3.308 -1.1337  1.2316 -1.2555
   53MOL   H74940373   0.640   0.243   3.202 -0.1347 -0.3410  0.5375
   53MOL   H75040374   0.669   0.158   3.350  1.5536  1.5589  1.2620
   53MOL   H75140375   0.459   0.337   3.523  0.4163 -1.4506  2.3907
   53MOL   H75240376   0.480   0.171   3.538  0.9679  2.2362  0.5101
   53MOL   H75340377   0.246   0.127   3.487  0.7052 -0.3829  0.9807
   53MOL   H75440378   0.249   0.252   3.606 -0.4344 -1.8878 -0.0044
   53MOL   H75540379   0.209   0.428   3.464 -0.1553  1.2694 -1.8336
   53MOL   H75640380   0.024   0.276   3.540 -0.8074  2.3062  0.3798
   53MOL   H75740381   0.022   0.213   3.377  0.2491 -1.0908  2.9991
   53MOL   H75840382   7.842   0.709   3.586  0.8982 -0.4256  0.2101
   53MOL   H75940383   7.650   0.833   3.505 -3.1587 -1.7311  0.2442
   53MOL   H76040384   7.695   0.653   3.121 -1.6626  2.9473  0.3874
   53MOL   H76140385   7.887   0.519   3.199  0.8429 -0.5403  0.8593
   53MOL   H76240386   7.422   0.820   3.128  0.4346 -0.1668 -0.2856
   54MOL     C140387   6.825   4.538   7.045 -0.2977  0.0697  0.0488
   54MOL     C240388   6.702   4.560   6.960  0.3612  0.3456  0.5255
   54MOL     C340389   6.606   4.668   7.021  0.4708  0.0796  0.5562
   54MOL     C440390   6.478   4.697   6.935  0.5028 -0.0065  0.5546
   54MOL     C540391   6.573   4.639   7.168 -0.3651  0.5395  0.2856
   54MOL     C640392   6.706   4.631   7.246 -0.1742  0.3728  0.1741
   54MOL     C740393   6.801   4.521   7.190 -0.0145 -0.4652 -0.5263
   54MOL     C840394   6.944   4.517   7.267  0.2203  0.3622  0.6118
   54MOL     O940395   6.917   4.498   7.406 -0.6210  0.7308  0.3180
   54MOL    C1040396   7.009   4.446   7.485 -1.0266 -0.2070 -0.5722
   54MOL    O1140397   7.113   4.402   7.440  0.0006  0.5385  0.1387
   54MOL    C1240398   6.978   4.462   7.627 -0.2274  0.8566  0.3757
   54MOL    C1340399   7.059   4.406   7.727 -0.4989 -0.3676  0.5181
   54MOL    C1440400   7.033   4.417   7.869 -0.4734 -0.3034  0.5831
   54MOL    C1540401   6.918   4.485   7.916  0.6455 -0.0014  0.0230
   54MOL    C1640402   6.881   4.505   0.027 -0.1976 -0.2501 -0.5160
   54MOL    O1740403   6.786   4.566   0.065  0.2246  0.0194 -0.1989
   54MOL    O1840404   6.970   4.456   0.109  0.0777  0.3863 -0.5062
   54MOL    C1940405   6.832   4.536   7.811 -0.1166 -0.7104 -0.1359
   54MOL    C2040406   6.867   4.528   7.676  0.3675  0.4930  0.0811
   54MOL    H2140407   6.873   4.635   7.038 -0.7760  0.2693 -0.5540
   54MOL    H2240408   6.892   4.458   7.014  0.3715  0.6743 -0.0726
   54MOL    H2340409   6.648   4.465   6.964 -1.0593  1.1555  0.7980
   54MOL    H2440410   6.728   4.574   6.856 -0.9613  0.8469  0.2633
   54MOL    H2540411   6.660   4.762   7.021  0.1112  0.2852  1.3561
   54MOL    H2640412   6.396   4.630   6.962 -0.1699  0.9058  0.7934
   54MOL    H2740413   6.504   4.691   6.830  1.8028 -4.2561  1.0032
   54MOL    H2840414   6.521   4.543   7.172  1.2120 -0.5024 -2.4368
   54MOL    H2940415   6.513   4.720   7.209 -0.2664  1.1025 -0.6570
   54MOL    H3040416   6.757   4.727   7.241  0.5872  0.3101  4.2625
   54MOL    H3140417   6.691   4.612   7.353  1.3291  0.1641  0.3578
   54MOL    H3240418   6.749   4.427   7.209 -1.1703  0.4738  1.1180
   54MOL    H3340419   7.005   4.607   7.267  1.7807 -0.6580 -1.5209
   54MOL    H3440420   7.012   4.443   7.225  0.6403  0.8659  0.4008
   54MOL    H3540421   7.152   4.357   7.703 -0.7697 -0.5278 -0.2087
   54MOL    H3640422   7.096   4.377   7.947 -3.3628 -2.2466  1.9726
   54MOL    H3740423   6.740   4.589   7.831 -0.3604 -0.8282 -0.9575
   54MOL    H3840424   6.797   4.568   7.604  1.2930  0.3903 -0.8863
   54MOL    H3940425   6.430   4.795   6.936  2.4775  1.0084 -1.0413
   54MOL    C4040426   6.880   4.296   0.569 -0.0301 -0.5017 -0.3335
   54MOL    C4140427   6.920   4.413   0.475  0.3044  0.5050 -0.4093
   54MOL    C4240428   6.926   4.375   0.331 -0.4529  0.3036  0.9627
   54MOL    C4340429   6.971   4.502   0.246 -0.2399  0.6811  0.2542
   54MOL    C4440430   7.020   4.251   0.320 -0.7517  0.8614  0.1576
   54MOL    C4540431   6.964   4.131   0.408 -0.1042 -0.0316 -0.4365
   54MOL    C4640432   6.953   4.166   0.550 -0.1875  0.0572 -0.1613
   54MOL    C4740433   6.880   4.058   0.627 -0.1153  0.0685  0.3105
   54MOL    O4840434   6.920   3.929   0.587  0.1799 -0.2276  0.1865
   54MOL    C4940435   7.037   3.876   0.626 -0.0965  0.5552  0.3259
   54MOL    O5040436   7.110   3.936   0.703 -0.3591  0.1071  0.3545
   54MOL    C5140437   7.071   3.741   0.565 -0.2190 -0.4576  0.1328
   54MOL    C5240438   7.174   3.666   0.616  0.1148 -0.0787 -0.1872
   54MOL    C5340439   7.209   3.536   0.560 -0.1150 -0.5230  0.5641
   54MOL    C5440440   7.121   3.485   0.459 -0.4077  0.0680 -1.0421
   54MOL    C5540441   7.142   3.347   0.411 -0.3507  0.2520 -0.6960
   54MOL    O5640442   7.232   3.277   0.464 -0.0072 -0.1590 -0.0929
   54MOL    O5740443   7.063   3.314   0.302 -0.0598 -0.7787 -0.4309
   54MOL    C5840444   7.012   3.563   0.405 -0.8347  0.4308  0.1017
   54MOL    C5940445   6.987   3.688   0.461  0.7321  0.4291 -0.8022
   54MOL    H6040446   6.775   4.270   0.557  0.4556 -2.2246 -1.1037
   54MOL    H6140447   6.896   4.335   0.669 -0.9323 -1.0588  0.0335
   54MOL    H6240448   7.020   4.444   0.507  1.2937 -1.8739 -1.0637
   54MOL    H6340449   6.850   4.497   0.478 -0.8594 -0.4024 -1.6137
   54MOL    H6440450   6.826   4.345   0.299 -0.3600  0.4019  0.5730
   54MOL    H6540451   7.073   4.521   0.279  0.8457 -1.2410 -1.8155
   54MOL    H6640452   6.911   4.592   0.260  1.2810  1.5411  1.3314
   54MOL    H6740453   7.121   4.275   0.352 -0.5056 -0.5569  0.4888
   54MOL    H6840454   7.021   4.217   0.216  0.1149  2.6334 -0.4281
   54MOL    H6940455   6.866   4.105   0.368 -0.4485 -0.4838  0.6705
   54MOL    H7040456   7.025   4.042   0.391 -0.7896 -0.6012  0.0437
   54MOL    H7140457   7.057   4.181   0.579  0.2263  1.2716 -2.1474
   54MOL    H7240458   6.777   4.051   0.593  0.5578 -1.5123 -1.5399
   54MOL    H7340459   6.891   4.068   0.735  1.0754  0.9604  0.1289
   54MOL    H7440460   7.227   3.705   0.702  1.0548  0.8806 -1.1820
   54MOL    H7540461   7.284   3.474   0.606 -1.1719 -0.9453  1.7617
   54MOL    H7640462   6.953   3.511   0.331  0.2592 -0.5913 -0.0716
   54MOL    H7740463   6.904   3.747   0.425 -0.4747 -0.5248  0.3581
   54MOL    C7840464   7.283   3.158   7.974  0.1957  0.0902  0.1162
   54MOL    C7940465   7.168   3.211   0.031  0.0920 -0.1284  0.4808
   54MOL    C8040466   7.171   3.140   0.174  0.3245 -0.8483  0.4768
   54MOL    C8140467   7.062   3.181   0.263  0.1992  0.5950  0.0681
   54MOL    C8240468   7.158   2.988   0.150 -0.0935  0.1837  0.6123
   54MOL    C8340469   7.271   2.936   0.057 -0.7514  0.6088  0.2815
   54MOL    C8440470   7.272   3.008   7.955 -0.3570 -0.2253 -0.0773
   54MOL    C8540471   7.390   2.966   7.860  0.3796  0.3838 -0.1936
   54MOL    O8640472   7.409   2.824   7.841 -0.3457 -0.2492 -0.3413
   54MOL    C8740473   7.354   2.766   7.736 -0.0425 -0.2249  0.0699
   54MOL    O8840474   7.281   2.820   7.652 -0.1589 -0.5743 -0.7602
   54MOL    C8940475   7.402   2.626   7.724 -0.5950  0.1389 -0.2169
   54MOL    C9040476   7.393   2.560   7.600  0.3884  0.2066 -0.1409
   54MOL    C9140477   7.449   2.432   7.584  0.1546 -0.3127 -0.1417
   54MOL    C9240478   7.504   2.368   7.695 -0.8128 -0.2499 -0.0100
   54MOL    C9340479   7.554   2.230   7.682 -0.2582 -0.8431  0.9684
   54MOL    O9440480   7.562   2.173   7.574 -0.2998  0.5009 -0.0706
   54MOL    O9540481   7.591   2.178   7.803  0.3418  0.0355  0.0178
   54MOL    C9640482   7.516   2.429   7.816 -0.2045 -0.2519 -0.4196
   54MOL    C9740483   7.462   2.555   7.834  0.2548 -0.6638 -0.5940
   54MOL    H9840484   7.378   3.185   8.020 -0.8223 -0.9500  2.9923
   54MOL    H9940485   7.300   3.220   7.886  0.6520  0.7871  0.6899
   54MOL   H10040486   7.071   3.195   8.015  0.8133  1.5598 -1.6246
   54MOL   H10140487   7.180   3.319   0.040  1.0904 -0.3818  2.3151
   54MOL   H10240488   7.267   3.162   0.219  0.4951 -1.1342  0.2563
   54MOL   H10340489   7.064   3.108   0.344 -0.4632 -1.2972 -1.5752
   54MOL   H10440490   6.966   3.155   0.218  0.5515  0.8268 -0.8394
   54MOL   H10540491   7.068   2.968   0.093  0.0874  1.0865 -0.0075
   54MOL   H10640492   7.144   2.922   0.236  0.7989  1.7798  2.0109
   54MOL   H10740493   7.367   2.933   0.109 -0.5472 -3.4061 -0.1538
   54MOL   H10840494   7.257   2.829   0.039  0.6594  0.1779  1.5910
   54MOL   H10940495   7.180   2.983   7.902 -0.1163 -0.8356 -0.2149
   54MOL   H11040496   7.476   3.021   7.898  0.9096 -0.9251  0.5294
   54MOL   H11140497   7.374   3.007   7.760 -2.1496 -0.2277 -0.0711
   54MOL   H11240498   7.363   2.615   7.511  0.7252 -2.6113 -2.0591
   54MOL   H11340499   7.439   2.379   7.491 -0.0687  1.6608 -1.2607
   54MOL   H11440500   7.572   2.393   7.901 -0.1521 -0.3430 -0.4930
   54MOL   H11540501   7.460   2.606   7.929 -0.9902 -0.0904 -0.9219
   54MOL   C11640502   8.007   2.121   7.883 -0.4691  0.5012  0.2256
   54MOL   C11740503   7.876   2.105   7.807  0.7378  0.1452  0.5345
   54MOL   C11840504   7.766   2.046   7.900  0.2362  0.0462  0.8290
   54MOL   C11940505   7.638   2.047   7.828 -0.0985  0.6149  0.5565
   54MOL   C12040506   7.805   1.902   7.939  0.0986 -0.1460 -0.9251
   54MOL   C12140507   7.939   1.916   8.016 -0.3573  0.1621  0.1288
   54MOL   C12240508   0.021   1.986   7.933  0.4101 -0.0198  0.4130
   54MOL   C12340509   0.152   1.993   8.013 -0.2399 -0.7704 -0.5029
   54MOL   O12440510   0.246   2.068   7.925 -0.0800 -0.6088  0.0075
   54MOL   C12540511   0.371   2.073   7.970 -0.2640 -0.5967  0.3289
   54MOL   O12640512   0.411   2.029   0.044 -0.5164 -0.4023 -0.2939
   54MOL   C12740513   0.464   2.148   7.875  0.2944 -0.3061 -0.2690
   54MOL   C12840514   0.429   2.169   7.738 -0.1814 -0.1354 -0.0204
   54MOL   C12940515   0.530   2.220   7.653 -0.1525  0.0932 -0.5017
   54MOL   C13040516   0.656   2.261   7.701 -0.1443  0.0392 -0.2705
   54MOL   C13140517   0.753   2.322   7.610  0.3105  0.1545  0.1331
   54MOL   O13240518   0.865   2.361   7.641  0.0741  0.3463 -0.1849
   54MOL   O13340519   0.701   2.346   7.487 -0.4515 -0.4115  0.4043
   54MOL   C13440520   0.685   2.258   7.837 -0.0512 -0.1872 -1.0335
   54MOL   C13540521   0.586   2.199   7.921  0.0639 -0.2936 -0.0489
   54MOL   H13640522   7.998   2.185   7.970 -1.6284  1.1785 -0.3820
   54MOL   H13740523   0.055   2.155   7.817 -0.8134  0.6642 -0.1086
   54MOL   H13840524   7.899   2.038   7.724  1.9206 -0.2683  1.1880
   54MOL   H13940525   7.846   2.202   7.767  0.4672  0.0797  0.5776
   54MOL   H14040526   7.749   2.101   7.992 -0.4562 -3.1935  2.7445
   54MOL   H14140527   7.561   1.989   7.879 -1.1547  1.7030  0.2213
   54MOL   H14240528   7.654   1.999   7.732  4.5746 -0.4849  1.7513
   54MOL   H14340529   7.809   1.843   7.847  2.0515  0.5687 -1.3314
   54MOL   H14440530   7.732   1.862   8.009 -0.7318 -0.7789 -2.1447
   54MOL   H14540531   7.932   1.976   0.075  3.0108  3.3555 -1.5649
   54MOL   H14640532   7.970   1.821   0.028  2.8361  1.9058  1.8673
   54MOL   H14740533   0.045   1.918   7.851 -0.0848  0.5904 -0.2454
   54MOL   H14840534   0.205   1.902   0.009 -0.0688 -0.6218 -0.3438
   54MOL   H14940535   0.126   2.055   0.067 -0.0081 -0.6281 -0.5357
   54MOL   H15040536   0.333   2.131   7.707 -0.3068 -0.1280  0.3459
   54MOL   H15140537   0.507   2.222   7.547 -0.5381 -2.0190 -0.4838
   54MOL   H15240538   0.783   2.289   7.872 -0.3364  0.7658 -1.0725
   54MOL   H15340539   0.610   2.200   8.026 -3.0249 -0.4284  0.6987
   54MOL   C15440540   0.466   2.716   7.543  0.2691 -0.1959 -0.2086
   54MOL   C15540541   0.522   2.587   7.480 -0.2802 -0.2875  0.1619
   54MOL   C15640542   0.678   2.585   7.468 -0.2910  0.2215  0.2367
   54MOL   C15740543   0.742   2.454   7.406 -0.4768 -0.4282 -0.2158
   54MOL   C15840544   0.718   2.716   7.396  0.6185  0.9726  0.2655
   54MOL   C15940545   0.661   2.851   7.458 -0.1051  0.9380 -1.2709
   54MOL   C16040546   0.510   2.845   7.476 -0.3186  1.0470  0.2721
   54MOL   C16140547   0.455   2.966   7.556  0.2082  0.3774  0.1827
   54MOL   O16240548   0.463   3.087   7.491  1.0323 -0.2412 -0.4733
   54MOL   C16340549   0.380   3.110   7.393  0.1288  0.0089  0.2389
   54MOL   O16440550   0.298   3.035   7.350  0.0409 -0.6515 -0.9849
   54MOL   C16540551   0.401   3.246   7.342 -0.2480 -0.2932  0.3856
   54MOL   C16640552   0.474   3.345   7.408 -0.2468  0.6976 -0.0442
   54MOL   C16740553   0.494   3.473   7.359 -0.3753 -0.0228 -0.0060
   54MOL   C16840554   0.442   3.509   7.230 -0.3166  0.0376  0.1028
   54MOL   C16940555   0.472   3.645   7.172  0.3529  0.3396 -0.1955
   54MOL   O17040556   0.407   3.691   7.077  0.0525 -0.0759  0.5655
   54MOL   O17140557   0.578   3.705   7.235 -0.2471 -0.3272  0.3965
   54MOL   C17240558   0.361   3.414   7.168 -0.2239 -1.6045 -0.4283
   54MOL   C17340559   0.333   3.290   7.229  0.2865  0.8897 -0.1058
   54MOL   H17440560   0.491   2.719   7.649  2.1657  0.1686 -0.6496
   54MOL   H17540561   0.357   2.705   7.549  0.3235 -0.9582 -0.5592
   54MOL   H17640562   0.480   2.584   7.379  1.1686 -0.7254 -0.4356
   54MOL   H17740563   0.490   2.499   7.536  2.6487 -2.0802 -0.8933
   54MOL   H17840564   0.736   2.600   7.560  1.1116  1.0745 -0.7602
   54MOL   H17940565   0.850   2.449   7.416 -0.4833  0.0198  0.1210
   54MOL   H18040566   0.706   2.439   7.304 -0.5805 -0.1623 -0.2214
   54MOL   H18140567   0.681   2.704   7.294  0.6783  0.6286  0.2835
   54MOL   H18240568   0.827   2.723   7.402  0.7358 -0.5555 -0.0012
   54MOL   H18340569   0.714   2.873   7.551  2.3297 -1.0879 -2.1044
   54MOL   H18440570   0.676   2.933   7.388  1.8471  3.2093  1.6587
   54MOL   H18540571   0.459   2.830   7.381 -1.6883  1.0582  0.9990
   54MOL   H18640572   0.510   2.977   7.649 -0.3005 -0.6795  0.6182
   54MOL   H18740573   0.353   2.944   7.589  0.1224 -0.2091 -0.4495
   54MOL   H18840574   0.517   3.315   7.503 -1.1428 -2.4219 -0.5515
   54MOL   H18940575   0.557   3.543   7.413  0.2720 -0.6273  0.0234
   54MOL   H19040576   0.312   3.444   7.077 -2.5525 -0.4957  1.1253
   54MOL   H19140577   0.259   3.223   7.189  0.4849  0.1777  0.6979
   54MOL   C19240578   0.510   4.184   7.167 -0.2915  0.2226 -0.3595
   54MOL   C19340579   0.615   4.080   7.180 -0.0832  0.0470 -0.2328
   54MOL   C19440580   0.536   3.949   7.197 -0.1348 -0.1423 -0.7346
   54MOL   C19540581   0.631   3.822   7.185  0.3859 -0.1489 -0.1643
   54MOL   C19640582   0.471   3.963   7.340  0.4222  0.2254 -0.0217
   54MOL   C19740583   0.361   4.074   7.342 -0.0071 -0.2943  0.1522
   54MOL   C19840584   0.430   4.202   7.296 -0.1069  0.3159  0.3620
   54MOL   C19940585   0.323   4.307   7.276 -0.9394  0.1065  0.5610
   54MOL   O20040586   0.268   4.351   7.399  0.8410  0.1238  0.4022
   54MOL   C20140587   0.240   4.476   7.414  0.3223 -0.2176  0.2265
   54MOL   O20240588   0.275   4.569   7.340 -0.0975  0.2222 -0.1371
   54MOL   C20340589   0.153   4.502   7.532  0.2631  0.2997 -0.4032
   54MOL   C20440590   0.074   4.619   7.539  0.0089  0.5570 -0.6344
   54MOL   C20540591   0.003   4.645   7.659  0.2391 -0.2388  0.1823
   54MOL   C20640592   0.002   4.552   7.766  0.3855 -0.6759 -0.4378
   54MOL   C20740593   7.959   4.586   7.891 -0.1534 -0.2077 -0.0355
   54MOL   O20840594   7.910   4.701   7.913 -0.2506 -0.0581  0.1342
   54MOL   O20940595   7.947   4.481   7.972  0.3053  0.3169 -0.1480
   54MOL   C21040596   0.081   4.435   7.759 -0.2287  0.1836  0.2992
   54MOL   C21140597   0.157   4.416   7.644 -0.4848 -0.0930 -0.2962
   54MOL   H21240598   0.443   4.168   7.082  0.8155  3.2873 -1.9015
   54MOL   H21340599   0.549   4.284   7.146  1.0728 -0.0667  0.7413
   54MOL   H21440600   0.678   4.096   7.267 -0.3924 -1.9795  0.3792
   54MOL   H21540601   0.679   4.075   7.092 -0.7124 -1.3395 -0.6184
   54MOL   H21640602   0.455   3.929   7.127 -3.2506  0.9831  2.4132
   54MOL   H21740603   0.709   3.847   7.256 -0.8215  1.4280  0.6447
   54MOL   H21840604   0.684   3.807   7.092  1.7957 -2.4223  0.9542
   54MOL   H21940605   0.557   3.982   7.405 -0.4534 -0.3979  1.3659
   54MOL   H22040606   0.424   3.871   7.377 -1.0116  0.9989  0.1300
   54MOL   H22140607   0.287   4.051   7.265  2.1773 -0.7156 -1.8735
   54MOL   H22240608   0.311   4.094   7.437 -1.1224 -1.2002 -0.2264
   54MOL   H22340609   0.493   4.232   7.379 -1.5203 -0.5546  1.7661
   54MOL   H22440610   0.241   4.266   7.218 -1.6329 -0.6421  2.0257
   54MOL   H22540611   0.348   4.394   7.216 -0.2577 -0.7802 -0.4505
   54MOL   H22640612   0.052   4.676   7.449  2.1453  1.4622 -0.6037
   54MOL   H22740613   7.989   4.742   7.665  0.0318 -0.1820 -1.9046
   54MOL   H22840614   0.103   4.357   7.830  0.0508 -0.6676 -0.7213
   54MOL   H22940615   0.211   4.323   7.630 -1.5689 -1.0083  1.5621
   54MOL   C23040616   0.150   4.355   0.299  0.0505 -0.5772  0.4720
   54MOL   C23140617   0.077   4.460   0.200 -0.0029 -0.4248 -0.3123
   54MOL   C23240618   7.951   4.431   0.183 -0.5457 -0.0250  0.7885
   54MOL   C23340619   7.886   4.509   0.067  0.0915  0.1484 -0.4425
   54MOL   C23440620   7.931   4.281   0.166  0.4070 -0.4279  0.2024
   54MOL   C23540621   7.992   4.194   0.275  0.4055 -0.7737  0.4688
   54MOL   C23640622   0.116   4.212   0.263 -0.2887  0.0258 -0.5349
   54MOL   C23740623   0.193   4.110   0.348  0.4346 -0.0087  0.3970
   54MOL   O23840624   0.320   4.110   0.289  0.2136  0.0069 -0.1651
   54MOL   C23940625   0.434   4.080   0.357  0.0352 -0.1999 -0.3767
   54MOL   O24040626   0.445   4.059   0.478  0.1014  0.3627 -0.4496
   54MOL   C24140627   0.551   4.081   0.271 -0.5681 -0.3208 -0.2524
   54MOL   C24240628   0.625   3.969   0.286 -0.4081  0.0060  0.1044
   54MOL   C24340629   0.740   3.954   0.208  0.1228 -0.8857 -0.7070
   54MOL   C24440630   0.773   4.042   0.108  0.6696 -0.0790 -0.3162
   54MOL   C24540631   0.889   4.008   0.018 -0.1587  0.0716 -0.3380
   54MOL   O24640632   0.925   4.087   7.962 -0.2335  0.3706  0.5508
   54MOL   O24740633   0.941   3.891   0.039 -0.0494  0.2251  0.5478
   54MOL   C24840634   0.691   4.154   0.089  0.4620 -0.3842 -0.5620
   54MOL   C24940635   0.577   4.176   0.174 -0.1293  0.0614 -0.4735
   54MOL   H25040636   0.113   4.383   0.397  2.0036  2.4934  0.4037
   54MOL   H25140637   0.257   4.374   0.305 -0.1045  1.4266 -2.1659
   54MOL   H25240638   0.123   4.473   0.102  2.1879  0.5921  0.8154
   54MOL   H25340639   0.094   4.557   0.247 -1.8197 -1.6828  3.1665
   54MOL   H25440640   7.900   4.451   0.277  0.8850 -0.7374  1.7370
   54MOL   H25540641   7.893   4.615   0.091 -0.0359  0.3885 -1.4253
   54MOL   H25640642   7.778   4.493   0.062  0.2450 -0.5613 -1.7676
   54MOL   H25740643   7.976   4.258   0.070  0.2243 -0.0297  0.0235
   54MOL   H25840644   7.825   4.257   0.156  0.0969  0.8295  0.3915
   54MOL   H25940645   7.962   4.221   0.377 -0.1419  1.1077 -0.1773
   54MOL   H26040646   7.963   4.090   0.268  1.2582 -1.1130  1.7391
   54MOL   H26140647   0.144   4.203   0.159 -1.0237 -0.7248 -0.6719
   54MOL   H26240648   0.155   4.008   0.336 -1.2054  0.5026  1.0688
   54MOL   H26340649   0.192   4.125   0.456  2.3286 -0.6845  0.5273
   54MOL   H26440650   0.594   3.890   0.353  1.0599  0.3963  1.2819
   54MOL   H26540651   0.802   3.869   0.231  0.2258 -0.1869  1.7359
   54MOL   H26640652   0.708   4.227   0.011 -0.5762 -0.8185 -1.2198
   54MOL   H26740653   0.520   4.267   0.166 -0.0283  0.3241  1.5431
   54MOL   C26840654   0.986   3.447   0.022  0.4631 -0.0182 -0.0500
   54MOL   C26940655   1.012   3.596   0.039 -0.2128 -0.1988 -0.5244
   54MOL   C27040656   0.971   3.686   7.953  0.1410 -0.4499  0.0057
   54MOL   C27140657   1.018   3.831   7.968  0.7036 -0.0927  0.4475
   54MOL   C27240658   1.032   3.627   7.825 -0.0469  0.6712 -0.5314
   54MOL   C27340659   0.994   3.478   7.801  0.0819 -0.4124  0.1634
   54MOL   C27440660   1.041   3.387   7.919 -0.0203 -0.2774 -0.1756
   54MOL   C27540661   1.016   3.242   7.919 -0.1637  0.0915  0.8230
   54MOL   O27640662   0.879   3.215   7.936 -0.2249 -0.1374 -0.2012
   54MOL   C27740663   0.844   3.092   7.904  0.3504  0.6333 -0.3245
   54MOL   O27840664   0.913   2.999   7.864  0.3493  0.4897  0.2500
   54MOL   C27940665   0.701   3.076   7.927  0.3495 -0.6614  0.0344
   54MOL   C28040666   0.605   3.175   7.891 -0.2179 -0.3085 -0.4024
   54MOL   C28140667   0.466   3.149   7.910  0.1997  0.4137 -0.1451
   54MOL   C28240668   0.422   3.016   7.945 -0.2425 -0.5888  1.0634
   54MOL   C28340669   0.274   2.984   7.938 -0.4506 -0.2517 -0.8742
   54MOL   O28440670   0.228   2.884   7.998  0.1991 -0.1051 -0.0861
   54MOL   O28540671   0.214   3.065   7.852 -0.1669 -0.1077 -0.5083
   54MOL   C28640672   0.523   2.921   7.989  0.4685 -0.2853 -0.8818
   54MOL   C28740673   0.657   2.952   7.971  0.0347  0.2212 -0.0416
   54MOL   H28840674   0.879   3.431   0.037  0.2422  3.2232  2.4927
   54MOL   H28940675   1.029   3.400   0.110  0.2472  0.5412  0.3582
   54MOL   H29040676   1.115   3.621   0.065 -0.4074  1.7653 -1.5554
   54MOL   H29140677   0.954   3.618   0.129  0.2479  1.2002 -0.5624
   54MOL   H29240678   0.863   3.687   7.936  0.4400 -2.1492 -2.3028
   54MOL   H29340679   1.009   3.883   7.873 -2.4071 -0.3946  0.5307
   54MOL   H29440680   1.118   3.843   8.010  0.4048  0.4510  0.9999
   54MOL   H29540681   1.140   3.645   7.825  0.0234  0.2313 -1.0869
   54MOL   H29640682   1.009   3.686   7.736 -0.6723  1.5985  0.2286
   54MOL   H29740683   0.888   3.462   7.779  0.3900  0.5137 -2.1174
   54MOL   H29840684   1.049   3.462   7.708 -0.8754 -0.0472 -0.4753
   54MOL   H29940685   1.150   3.390   7.907  0.1449 -1.2223  0.9690
   54MOL   H30040686   1.067   3.203   8.007  0.6623  1.2274  0.8653
   54MOL   H30140687   1.057   3.192   7.832  0.7596 -2.7211  2.8127
   54MOL   H30240688   0.638   3.271   7.856  0.4904 -0.8363 -1.1990
   54MOL   H30340689   0.402   3.231   7.881 -1.4349 -1.4063 -1.8027
   54MOL   H30440690   0.500   2.819   8.016  1.2667 -0.0995  0.5075
   54MOL   H30540691   0.727   2.872   7.989  0.6132  0.4773 -1.1065
   54MOL   C30640692   0.098   3.309   7.519  0.5735  0.0891  0.0247
   54MOL   C30740693   0.113   3.182   7.604 -0.9850  0.2130  0.3656
   54MOL   C30840694   0.031   3.180   7.741 -0.3887  0.0301  0.1690
   54MOL   C30940695   0.071   3.055   7.823  0.3200  0.3693 -0.2930
   54MOL   C31040696   0.051   3.310   7.806 -0.4154 -0.7701  0.1205
   54MOL   C31140697   0.038   3.435   7.716 -0.2978  0.0251 -0.3293
   54MOL   C31240698   0.136   3.434   7.596 -0.4203 -0.4275  0.4354
   54MOL   C31340699   0.114   3.554   7.499 -0.0645 -0.1333  0.4371
   54MOL   O31440700   0.172   3.673   7.558  0.5267  0.2548 -0.2360
   54MOL   C31540701   0.085   3.760   7.620  0.0936  0.1162  0.6052
   54MOL   O31640702   7.995   3.749   7.614  0.0517  0.1035  0.0976
   54MOL   C31740703   0.160   3.871   7.687  0.5230 -0.6805  0.0744
   54MOL   C31840704   0.087   3.969   7.760 -0.4677 -0.1418 -0.1159
   54MOL   C31940705   0.152   4.075   7.819 -0.1939  0.1737  0.0319
   54MOL   C32040706   0.297   4.091   7.811  0.4626 -0.0908 -0.2996
   54MOL   C32140707   0.357   4.210   7.874 -0.2788  0.0319 -0.1349
   54MOL   O32240708   0.321   4.278   7.971  0.6601  0.0798  0.4170
   54MOL   O32340709   0.467   4.246   7.805  0.0476  0.2249 -0.0855
   54MOL   C32440710   0.369   4.000   7.740  0.2823  0.0315  0.8370
   54MOL   C32540711   0.301   3.894   7.673 -0.1364  0.0504  0.3712
   54MOL   H32640712   8.027   3.312   7.482  0.9919  1.1728 -1.1040
   54MOL   H32740713   0.152   3.279   7.429  0.5109  0.4657 -0.1411
   54MOL   H32840714   0.218   3.160   7.622 -1.2826 -0.8113  0.9049
   54MOL   H32940715   0.076   3.093   7.552 -1.3261 -1.3377  3.1370
   54MOL   H33040716   7.958   3.168   7.714  0.0887 -0.0253 -1.7178
   54MOL   H33140717   0.059   2.967   7.759  3.0381  0.5734 -1.1702
   54MOL   H33240718   0.013   3.049   7.915  0.2094 -3.2684 -0.5442
   54MOL   H33340719   0.157   3.311   7.832 -0.1957 -0.6543 -0.7678
   54MOL   H33440720   8.020   3.323   7.894  0.6993  2.1651  0.5255
   54MOL   H33540721   7.968   3.453   7.683 -0.1147  0.7971 -0.4947
   54MOL   H33640722   0.060   3.526   7.772  3.2881  0.0246 -1.6313
   54MOL   H33740723   0.241   3.424   7.624 -0.3177 -1.3002 -0.2335
   54MOL   H33840724   0.009   3.564   7.470  0.3833  0.8375 -0.9341
   54MOL   H33940725   0.166   3.530   7.407  0.0012  1.4843  0.0216
   54MOL   H34040726   8.012   3.951   7.767  0.1776 -4.0795  1.2224
   54MOL   H34140727   0.091   4.155   7.859  0.0317  0.8706 -0.9956
   54MOL   H34240728   0.467   4.012   7.696 -0.4332 -0.2028 -0.8683
   54MOL   H34340729   0.349   3.821   7.610 -2.4073 -0.6404 -0.6258
   54MOL   C34440730   0.639   4.462   7.483  0.1043  0.0213 -0.3890
   54MOL   C34540731   0.551   4.422   7.610  0.5945 -0.1434  0.7072
   54MOL   C34640732   0.619   4.422   7.739  0.5483 -0.1162  0.1212
   54MOL   C34740733   0.529   4.369   7.849  0.4343 -0.5327 -0.1603
   54MOL   C34840734   0.757   4.349   7.720  0.6152  0.4016 -0.0738
   54MOL   C34940735   0.845   4.407   7.613 -0.3959 -0.7190 -0.3969
   54MOL   C35040736   0.778   4.404   7.478  0.0245 -0.4360  0.6595
   54MOL   C35140737   0.870   4.466   7.369 -0.2165  0.1012  0.5209
   54MOL   O35240738   0.995   4.403   7.375 -0.0889  0.4663  0.5670
   54MOL   C35340739   1.083   4.412   7.269 -0.5456  0.1492 -0.0819
   54MOL   O35440740   1.065   4.485   7.172 -0.4414 -0.2852  0.3490
   54MOL   C35540741   1.206   4.325   7.290  0.0672 -0.0847  0.0145
   54MOL   C35640742   1.312   4.335   7.192 -0.1922 -0.9023  0.4280
   54MOL   C35740743   1.424   4.247   7.211  0.7982  0.8808 -0.1857
   54MOL   C35840744   1.433   4.155   7.318 -0.2273  0.2018 -0.4022
   54MOL   C35940745   1.556   4.071   7.327 -0.3123 -0.2555 -0.0291
   54MOL   O36040746   1.659   4.102   7.261 -0.2648  0.7767 -0.2508
   54MOL   O36140747   1.533   3.956   7.412 -1.1335  0.0462 -0.2714
   54MOL   C36240748   1.325   4.145   7.405  0.7373  0.5398 -0.2434
   54MOL   C36340749   1.211   4.224   7.393  0.0104 -0.2944 -0.4386
   54MOL   H36440750   0.653   4.570   7.473 -0.2512 -0.0731 -2.0195
   54MOL   H36540751   0.602   4.434   7.385 -0.5810  3.0963 -1.0564
   54MOL   H36640752   0.505   4.327   7.584 -0.6215  0.0520  2.1059
   54MOL   H36740753   0.464   4.486   7.620 -1.6817 -2.6545 -2.1787
   54MOL   H36840754   0.658   4.517   7.775  2.8659 -1.1044  0.3815
   54MOL   H36940755   0.461   4.451   7.874  2.2764  0.8708  0.3706
   54MOL   H37040756   0.585   4.357   7.941 -0.4364 -1.9161  0.2071
   54MOL   H37140757   0.719   4.248   7.708 -2.6997  1.5811  0.1500
   54MOL   H37240758   0.806   4.354   7.818  2.4367  1.1883 -0.9997
   54MOL   H37340759   0.886   4.507   7.634 -0.2045 -0.7073 -0.8080
   54MOL   H37440760   0.935   4.346   7.606 -0.5745 -0.8817 -1.4257
   54MOL   H37540761   0.769   4.298   7.458  0.0120 -0.5849  1.4444
   54MOL   H37640762   0.878   4.574   7.384  0.6838  0.2083 -0.6182
   54MOL   H37740763   0.823   4.436   7.276 -1.2042  1.3523  0.5963
   54MOL   H37840764   1.312   4.408   7.112 -0.2375 -0.1913  1.0698
   54MOL   H37940765   1.499   4.251   7.134 -0.3747  0.4359 -1.3739
   54MOL   H38040766   1.340   4.085   7.494 -0.7437 -0.7145 -0.8159
   54MOL   H38140767   1.136   4.215   7.470 -0.9630 -0.3255 -1.3647
   54MOL   C38240768   1.917   3.952   7.675 -0.2999  0.6459  0.0076
   54MOL   C38340769   1.830   3.961   7.550 -0.1148  0.9792  0.1932
   54MOL   C38440770   1.715   3.854   7.546  0.4732 -0.2646 -0.7206
   54MOL   C38540771   1.633   3.847   7.417  0.5679 -0.5473  0.3868
   54MOL   C38640772   1.761   3.709   7.570 -0.7567  0.0130 -0.4162
   54MOL   C38740773   1.843   3.704   7.694 -0.2723 -0.0742 -0.6569
   54MOL   C38840774   1.967   3.806   7.697 -0.5035 -0.0062 -0.4549
   54MOL   C38940775   2.065   3.789   7.814  0.1657 -0.4167  0.0433
   54MOL   O39040776   2.112   3.656   7.836  0.2922  0.2734 -0.1466
   54MOL   C39140777   2.241   3.628   7.841  0.2424 -0.5880  0.2207
   54MOL   O39240778   2.334   3.713   7.831  0.0102 -0.1484 -0.0883
   54MOL   C39340779   2.263   3.483   7.853 -0.4138  0.0672  0.2167
   54MOL   C39440780   2.153   3.398   7.862 -0.6010  0.6154 -0.6398
   54MOL   C39540781   2.164   3.264   7.876 -0.0042  0.1804 -1.0038
   54MOL   C39640782   2.290   3.200   7.886 -0.4282 -0.4657  0.3732
   54MOL   C39740783   2.302   3.052   7.878  0.0223  0.7218  0.2114
   54MOL   O39840784   2.386   2.988   7.936 -0.1268 -0.2396  0.5581
   54MOL   O39940785   2.201   3.001   7.803  0.1084  0.0312  0.2431
   54MOL   C40040786   2.404   3.283   7.885 -0.2940  1.1044  0.2472
   54MOL   C40140787   2.390   3.422   7.872  0.7073  0.0154 -0.1280
   54MOL   H40240788   1.858   3.988   7.760 -0.4295  0.1701  0.1204
   54MOL   H40340789   1.992   4.031   7.666  1.8339 -1.5411 -2.0615
   54MOL   H40440790   1.901   3.955   7.468 -0.4834  0.2106 -0.0768
   54MOL   H40540791   1.791   4.060   7.528 -1.5216  0.0157 -1.8916
   54MOL   H40640792   1.644   3.882   7.624 -0.3128  0.2737 -1.6182
   54MOL   H40740793   1.583   3.750   7.408 -0.9833  0.3254 -0.7684
   54MOL   H40840794   1.704   3.858   7.335 -0.3018  2.0208 -0.0799
   54MOL   H40940795   1.819   3.675   7.485 -2.1144  0.1729 -1.4266
   54MOL   H41040796   1.674   3.643   7.563  0.2215 -1.1070 -2.6854
   54MOL   H41140797   1.776   3.717   7.779 -1.0252 -0.6349 -1.1532
   54MOL   H41240798   1.890   3.606   7.709 -0.2598 -0.3856 -2.6484
   54MOL   H41340799   2.024   3.787   7.606  1.1248  0.1619  0.5227
   54MOL   H41440800   2.017   3.820   7.907 -1.2355  2.4428 -1.5833
   54MOL   H41540801   2.144   3.859   7.790 -1.4918  1.4268 -0.1827
   54MOL   H41640802   2.053   3.438   7.861 -0.7170  0.4462  1.5184
   54MOL   H41740803   2.069   3.213   7.882  0.0960  0.0284 -0.6439
   54MOL   H41840804   2.497   3.229   7.896 -1.2679 -0.4541  1.1565
   54MOL   H41940805   2.482   3.479   7.867  0.6181  0.3834  1.9710
   54MOL   C42040806   2.380   2.772   7.463 -0.8075  0.1150  0.0615
   54MOL   C42140807   2.297   2.846   7.562 -0.2129 -0.1041 -0.3929
   54MOL   C42240808   2.268   2.775   7.689  0.0658  0.0607  0.1307
   54MOL   C42340809   2.186   2.857   7.791 -0.4638 -0.5946 -0.1006
   54MOL   C42440810   2.209   2.638   7.659 -0.6254 -0.6029 -0.4582
   54MOL   C42540811   2.297   2.563   7.567 -0.5828 -0.0095 -0.5443
   54MOL   C42640812   2.324   2.630   7.432 -0.1340 -0.1307 -0.2007
   54MOL   C42740813   2.424   2.551   7.345  0.2160  0.0228  0.7884
   54MOL   O42840814   2.363   2.432   7.308  0.1051 -0.3333  0.5028
   54MOL   C42940815   2.430   2.337   7.232  0.2436 -0.8331  0.0692
   54MOL   O43040816   2.552   2.344   7.211  0.9459  0.1901 -0.7060
   54MOL   C43140817   2.337   2.228   7.189  0.7090 -0.1206 -0.5547
   54MOL   C43240818   2.388   2.102   7.149 -0.3081  0.7472  0.4096
   54MOL   C43340819   2.303   1.994   7.120  0.3879  0.1349 -0.0202
   54MOL   C43440820   2.160   2.010   7.130  0.1834  0.0390 -0.5342
   54MOL   C43540821   2.081   1.892   7.100  0.4912 -0.5284 -0.2597
   54MOL   O43640822   2.128   1.781   7.068 -0.5199 -0.4723  0.0247
   54MOL   O43740823   1.948   1.926   7.116 -0.4689  0.0949  0.2468
   54MOL   C43840824   2.111   2.135   7.170  0.1912  0.3468 -0.0452
   54MOL   C43940825   2.193   2.244   7.195 -0.4507  0.7083  0.0644
   54MOL   H44040826   2.478   2.757   7.509  0.2318  3.4634 -0.9155
   54MOL   H44140827   2.393   2.827   7.370 -0.8142  0.4322  0.2481
   54MOL   H44240828   2.207   2.880   7.510  0.3696  0.5562 -0.9827
   54MOL   H44340829   2.355   2.936   7.580  0.1203 -0.2560 -0.7103
   54MOL   H44440830   2.366   2.776   7.735 -0.4232  1.2429  1.1833
   54MOL   H44540831   2.185   2.799   7.883 -0.0931 -1.8807 -0.8881
   54MOL   H44640832   2.087   2.849   7.744 -0.7669 -0.4175  0.5099
   54MOL   H44740833   2.106   2.627   7.627  0.4524 -4.0315 -3.1214
   54MOL   H44840834   2.209   2.586   7.755  0.4517  0.3411  0.0738
   54MOL   H44940835   2.386   2.558   7.628 -1.4627  1.2002  0.8629
   54MOL   H45040836   2.264   2.459   7.565  2.2060 -0.9574  1.2443
   54MOL   H45140837   2.231   2.650   7.378  0.7789 -0.9449 -2.0979
   54MOL   H45240838   2.515   2.534   7.403  0.6201  0.5608  0.3216
   54MOL   H45340839   2.441   2.610   7.255  0.8315  0.2799  1.0711
   54MOL   H45440840   2.495   2.093   7.161 -0.3764 -2.6125 -0.9130
   54MOL   H45540841   2.342   1.898   7.090 -1.5967 -0.8999  0.6135
   54MOL   H45640842   2.009   2.158   7.198 -0.0409 -0.5701 -0.1461
   54MOL   H45740843   2.151   2.335   7.235 -1.0168  0.0933  0.8737
   54MOL   C45840844   1.745   1.519   7.305 -0.1654  0.2496  0.9949
   54MOL   C45940845   1.733   1.618   7.184  0.1400  0.3096 -0.0306
   54MOL   C46040846   1.836   1.731   7.217  0.7949  0.2638 -0.7461
   54MOL   C46140847   1.850   1.835   7.103 -0.0646 -0.5814  0.9406
   54MOL   C46240848   1.782   1.801   7.345 -0.4870  0.5047 -0.2806
   54MOL   C46340849   1.794   1.712   7.466 -0.5383 -0.0837  0.4028
   54MOL   C46440850   1.710   1.582   7.442  0.2212  0.8408  0.7458
   54MOL   C46540851   1.738   1.472   7.548  0.3444 -0.1652  0.3338
   54MOL   O46640852   1.648   1.478   7.661 -0.1584  0.1545  0.3505
   54MOL   C46740853   1.523   1.441   7.637  0.2679  0.4813  0.4424
   54MOL   O46840854   1.487   1.403   7.524 -0.5691  0.4192  0.0315
   54MOL   C46940855   1.437   1.460   7.760  0.1355 -0.0655  0.1095
   54MOL   C47040856   1.304   1.416   7.762 -0.4509  0.0806 -0.3399
   54MOL   C47140857   1.213   1.444   7.865 -0.3200  0.5325 -0.2456
   54MOL   C47240858   1.262   1.519   7.975 -0.1190  0.2193 -0.3142
   54MOL   C47340859   1.168   1.554   0.052  0.2982  0.5549  0.0346
   54MOL   O47440860   1.164   1.659   0.108  0.0092  0.5875  0.7165
   54MOL   O47540861   1.082   1.456   0.076  0.2551  0.0464  0.5747
   54MOL   C47640862   1.400   1.551   7.983  0.0849  0.0828  0.2113
   54MOL   C47740863   1.482   1.529   7.875  0.5383 -0.0405  0.4720
   54MOL   H47840864   1.839   1.466   7.317  0.4810  1.5817  1.9748
   54MOL   H47940865   1.674   1.442   7.277  0.7814 -0.2733 -0.0391
   54MOL   H48040866   1.633   1.660   7.184 -0.3973 -0.9466  0.0482
   54MOL   H48140867   1.729   1.567   7.088 -1.4877 -1.7447  1.0906
   54MOL   H48240868   1.924   1.671   7.240 -0.8959 -1.4973  1.3728
   54MOL   H48340869   1.755   1.884   7.081 -0.0147 -1.0282 -0.3253
   54MOL   H48440870   1.880   1.779   7.015  0.6755  1.4957 -0.1662
   54MOL   H48540871   1.676   1.820   7.330 -0.6833  0.1669  0.6604
   54MOL   H48640872   1.828   1.899   7.359  3.7569 -1.1465 -1.6170
   54MOL   H48740873   1.897   1.688   7.492 -0.3868  0.5832  0.4346
   54MOL   H48840874   1.755   1.765   7.553 -0.3715  1.3032 -0.3659
   54MOL   H48940875   1.605   1.609   7.435  0.0477 -0.0177 -0.0809
   54MOL   H49040876   1.841   1.484   7.582  1.0020 -0.6209 -1.4129
   54MOL   H49140877   1.734   1.372   7.503 -0.5680  0.0819 -0.1428
   54MOL   H49240878   1.269   1.351   7.682 -0.2079 -0.3577 -0.0893
   54MOL   H49340879   1.116   1.397   7.864  0.0783 -0.3306  0.8743
   54MOL   H49440880   1.442   1.609   0.032 -0.9542  1.8241 -0.4595
   54MOL   H49540881   1.578   1.578   7.878  0.1684  0.7005  0.3222
   54MOL   C49640882   0.601   1.586   0.149 -0.1657  0.3064  0.3109
   54MOL   C49740883   0.720   1.502   0.200  0.2115  0.5145  0.1821
   54MOL   C49840884   0.845   1.523   0.110  1.5220 -0.3828  0.6081
   54MOL   C49940885   0.975   1.467   0.170 -0.2344 -0.0301  0.3871
   54MOL   C50040886   0.812   1.469   8.003  0.3273  0.4316  0.0046
   54MOL   C50140887   0.696   1.562   7.945  0.0975  0.2410  0.0886
   54MOL   C50240888   0.568   1.547   0.002 -0.0851  0.0964 -0.3999
   54MOL   C50340889   0.447   1.632   7.989 -0.7334 -0.0646 -0.0808
   54MOL   O50440890   0.325   1.584   0.017 -0.3037 -0.1706 -0.0677
   54MOL   C50540891   0.213   1.579   7.986 -0.0908  0.5947 -0.4455
   54MOL   O50640892   0.203   1.599   7.866  0.3631 -0.3121 -0.5382
   54MOL   C50740893   0.097   1.554   0.045  0.4088 -0.8056  0.3769
   54MOL   C50840894   0.094   1.591   0.179  0.1250 -0.4962  0.2345
   54MOL   C50940895   8.025   1.559   0.268 -0.5913 -0.3103 -0.4885
   54MOL   C51040896   7.914   1.486   0.226  0.2038  0.3070  0.0037
   54MOL   C51140897   7.804   1.474   0.325  0.5408  1.3231 -0.1183
   54MOL   O51240898   7.805   1.511   0.440 -0.0818 -0.1627  0.2145
   54MOL   O51340899   7.703   1.397   0.275  0.3643  0.0963 -0.0420
   54MOL   C51440900   7.918   1.432   0.095  0.0462  1.0819 -0.2902
   54MOL   C51540901   8.016   1.476   0.001  0.4573  0.6873 -0.0777
   54MOL   H51640902   0.624   1.693   0.149 -0.8233  0.4533  0.5425
   54MOL   H51740903   0.506   1.574   0.202 -0.8723  0.8406 -0.8242
   54MOL   H51840904   0.711   1.393   0.208 -0.9511  0.7379  2.5594
   54MOL   H51940905   0.736   1.532   0.304  1.4704  0.2507  0.0811
   54MOL   H52040906   0.871   1.628   0.104 -1.4691  0.3096 -1.4981
   54MOL   H52140907   0.957   1.368   0.213 -0.5240 -0.0830  0.1472
   54MOL   H52240908   1.014   1.531   0.249  2.0617 -0.7647 -0.1403
   54MOL   H52340909   0.786   1.363   8.005 -0.0453  0.5458  2.0446
   54MOL   H52440910   0.897   1.485   7.937  1.4333  3.5677  2.0692
   54MOL   H52540911   0.729   1.664   7.927 -1.3070  1.1311  2.4012
   54MOL   H52640912   0.672   1.518   7.847 -1.2419 -0.3270  0.6537
   54MOL   H52740913   0.540   1.442   8.031 -0.5755  0.1771  0.7854
   54MOL   H52840914   0.444   1.640   7.880  2.0532  0.4505 -0.1613
   54MOL   H52940915   0.463   1.733   8.026  0.2587  0.2917 -1.4008
   54MOL   H53040916   0.180   1.649   0.210  1.4133 -1.4884 -1.4294
   54MOL   H53140917   8.026   1.598   0.368 -0.6033  2.4578 -1.5296
   54MOL   H53240918   7.836   1.368   0.064  2.9720 -1.8689 -2.2354
   54MOL   H53340919   8.016   1.448   7.928  0.9382 -0.4657  0.2276
   54MOL   C53440920   7.438   1.015   0.482  0.1519  0.3140 -0.2653
   54MOL   C53540921   7.449   1.159   0.438 -0.3317 -0.0888 -0.0876
   54MOL   C53640922   7.587   1.196   0.370  0.3747  0.6317  0.0121
   54MOL   C53740923   7.600   1.353   0.356 -0.1887 -0.1339 -0.8593
   54MOL   C53840924   7.698   1.137   0.466  0.4325 -0.5230  0.6898
   54MOL   C53940925   7.679   0.984   0.486 -0.5471 -0.3428  0.7232
   54MOL   C54040926   7.557   0.964   0.572  0.7223 -0.8851  0.4118
   54MOL   C54140927   7.539   0.821   0.623 -0.6584  0.4059 -0.5953
   54MOL   O54240928   7.533   0.734   0.509 -0.0846 -0.3993 -0.0736
   54MOL   C54340929   7.427   0.656   0.475 -0.0637 -0.5130 -0.2793
   54MOL   O54440930   7.342   0.622   0.561  0.2041  0.4718 -0.0079
   54MOL   C54540931   7.434   0.615   0.335  0.0207 -0.6156 -0.4730
   54MOL   C54640932   7.544   0.653   0.253  1.1428  0.3641 -0.4665
   54MOL   C54740933   7.554   0.607   0.123  0.6485 -0.1335 -0.0087
   54MOL   C54840934   7.441   0.539   0.070 -0.5158  0.3435 -0.0393
   54MOL   C54940935   7.428   0.500   7.961 -0.2097 -0.3098 -0.1735
   54MOL   O55040936   7.336   0.430   7.916  0.3377  0.1843  0.5223
   54MOL   O55140937   7.530   0.544   7.881  0.1231  0.0178  0.0814
   54MOL   C55240938   7.340   0.490   0.156  0.0588 -0.2067  0.1035
   54MOL   C55340939   7.342   0.525   0.292 -0.3215 -0.5136  0.4764
   54MOL   H55440940   7.419   0.945   0.402  2.1692 -2.3732  1.5114
   54MOL   H55540941   7.348   1.011   0.543 -2.4467 -1.2524 -4.0576
   54MOL   H55640942   7.441   1.214   0.532  0.0742  1.4739 -0.9439
   54MOL   H55740943   7.375   1.193   0.366  1.3885  0.8181 -1.4808
   54MOL   H55840944   7.595   1.147   0.273 -0.8615  0.3299  0.0596
   54MOL   H55940945   7.603   1.392   0.458  1.0909 -1.2172 -0.4636
   54MOL   H56040946   7.517   1.398   0.302  0.3567  1.9126 -0.0770
   54MOL   H56140947   7.703   1.196   0.557  0.6294 -0.7504  0.8281
   54MOL   H56240948   7.796   1.162   0.425  0.2584  1.2345  1.3005
   54MOL   H56340949   7.671   0.931   0.391 -1.5121  1.2081 -0.0736
   54MOL   H56440950   7.767   0.956   0.545  0.7981  2.6059  0.2318
   54MOL   H56540951   7.571   1.028   0.659 -1.6338  0.0122  0.1705
   54MOL   H56640952   7.466   0.799   0.700  0.3266 -0.1479  0.1972
   54MOL   H56740953   7.634   0.810   0.676 -1.9277 -1.9498  1.2877
   54MOL   H56840954   7.619   0.724   0.282  2.0678 -1.5687  2.0931
   54MOL   H56940955   7.622   0.647   0.050  0.7896 -0.8604 -0.2787
   54MOL   H57040956   7.260   0.431   0.113  0.7355 -1.0988  0.0651
   54MOL   H57140957   7.261   0.491   0.354  0.1053 -0.4127  1.0918
   54MOL   C57240958   7.541   0.910   7.657  0.5365 -0.5051  0.0579
   54MOL   C57340959   7.476   0.781   7.699 -0.6089  0.5561 -0.3159
   54MOL   C57440960   7.564   0.659   7.664  0.5152  0.0562 -0.1430
   54MOL   C57540961   7.522   0.530   7.738  0.6532 -0.0194  0.4511
   54MOL   C57640962   7.580   0.648   7.511  0.1127 -0.4580 -0.4863
   54MOL   C57740963   7.641   0.783   7.466 -0.0780 -0.1231  0.5973
   54MOL   C57840964   7.558   0.907   7.504  0.2989  0.8798  0.6310
   54MOL   C57940965   7.619   1.034   7.457  0.2205 -0.5470 -0.5850
   54MOL   O58040966   7.633   1.034   7.319  0.1323  0.1083 -0.4885
   54MOL   C58140967   7.645   1.162   7.253 -0.4108  0.3438 -0.4757
   54MOL   O58240968   7.652   1.267   7.321  0.2533  0.2636  0.4067
   54MOL   C58340969   7.659   1.147   7.102  0.1203 -0.6067 -0.0420
   54MOL   C58440970   7.691   1.016   7.047  0.4963 -0.1598 -0.8209
   54MOL   C58540971   7.701   1.009   6.910  0.2549 -0.3800 -0.0394
   54MOL   C58640972   7.651   1.114   6.827 -0.6126  0.9626  0.0693
   54MOL   C58740973   7.620   1.100   6.685 -0.2943 -0.1623  0.1664
   54MOL   O58840974   7.553   1.181   6.623  0.2240  0.4890  0.0309
   54MOL   O58940975   7.664   0.983   6.644 -0.3652  0.6074 -0.2110
   54MOL   C59040976   7.616   1.240   6.882  0.2031 -0.0674 -0.9376
   54MOL   C59140977   7.633   1.260   7.018  0.3652  0.1182  0.3949
   54MOL   H59240978   7.627   0.937   7.717  1.3680 -2.8186 -0.0246
   54MOL   H59340979   7.471   0.990   7.683  1.1550  0.1721 -0.3887
   54MOL   H59440980   7.373   0.767   7.665 -0.1881 -2.4887 -0.4657
   54MOL   H59540981   7.465   0.789   7.807  1.5866  0.9583 -0.1153
   54MOL   H59640982   7.666   0.669   7.702  0.4615 -0.4359  0.1410
   54MOL   H59740983   7.594   0.452   7.716  1.1099  0.6658 -0.5286
   54MOL   H59840984   7.425   0.503   7.697 -0.1884  4.1028 -0.5116
   54MOL   H59940985   7.484   0.640   7.459 -0.7874  2.0402  0.7025
   54MOL   H60040986   7.643   0.564   7.483 -0.9894 -1.7206  0.7498
   54MOL   H60140987   7.742   0.800   7.502  0.3778 -0.8995 -0.2820
   54MOL   H60240988   7.641   0.773   7.358  1.6808 -0.3407  0.6124
   54MOL   H60340989   7.461   0.903   7.455  0.7531 -1.3022 -0.1214
   54MOL   H60440990   7.716   1.055   7.502 -0.3278 -0.5027  0.5928
   54MOL   H60540991   7.555   1.120   7.477  1.2844  0.9883 -3.4329
   54MOL   H60640992   7.722   0.928   7.101 -1.1824 -0.5449 -0.4684
   54MOL   H60740993   7.731   0.916   6.862  0.9575  0.2714 -0.8775
   54MOL   H60840994   7.595   1.324   6.817 -0.7053  0.7005  0.3079
   54MOL   H60940995   7.610   1.358   7.055 -1.3259  0.2958 -1.1062
   54MOL   C61040996   7.911   1.015   6.223 -0.9789  0.7100 -0.5041
   54MOL   C61140997   7.772   0.989   6.284 -0.0364 -0.1948  0.7483
   54MOL   C61240998   7.793   0.969   6.438  0.5470 -0.1220  0.0963
   54MOL   C61340999   7.659   0.948   6.505 -0.1336  0.2608  0.2440
   54MOL   C61441000   7.890   0.849   6.460 -0.2738 -0.5079  0.0076
   54MOL   C61541001   0.001   0.879   6.404 -0.2759 -0.7280 -0.4454
   54MOL   C61641002   8.022   0.919   6.257 -0.5885  0.1159  0.8447
   54MOL   C61741003   0.129   0.967   6.195  0.1779 -0.2765 -0.0180
   54MOL   O61841004   0.236   0.882   6.225  0.0659 -0.3168 -0.3515
   54MOL   C61941005   0.244   0.758   6.160 -0.4692  0.0292  0.0947
   54MOL   O62041006   0.157   0.716   6.087  0.0262 -0.3561  0.5272
   54MOL   C62141007   0.371   0.682   6.195  0.0747  0.4866  0.1505
   54MOL   C62241008   0.461   0.726   6.292  0.2363 -0.3994 -0.0967
   54MOL   C62341009   0.576   0.647   6.319 -0.1365  0.3929  0.5936
   54MOL   C62441010   0.606   0.528   6.247  0.4920  0.0457 -0.7274
   54MOL   C62541011   0.729   0.445   6.272 -0.2265  0.4709 -0.1819
   54MOL   O62641012   0.833   0.493   6.305 -0.2588 -0.2647 -0.0302
   54MOL   O62741013   0.715   0.314   6.244 -0.1757  0.6182  0.1375
   54MOL   C62841014   0.504   0.480   6.164 -0.0970 -0.5299 -0.1459
   54MOL   C62941015   0.393   0.561   6.131  0.1526  0.3638 -0.2038
   54MOL   H63041016   7.945   1.112   6.260 -0.6071  0.3707  0.0529
   54MOL   H63141017   7.896   1.028   6.116 -2.5398  3.2086 -0.0285
   54MOL   H63241018   7.721   0.903   6.242 -3.4959  1.9744  0.3131
   54MOL   H63341019   7.700   1.067   6.261 -1.3002 -1.4971  0.2487
   54MOL   H63441020   7.818   1.061   6.490  0.6437  0.7981 -1.5706
   54MOL   H63541021   7.640   0.842   6.486  3.6564 -0.2792 -0.8733
   54MOL   H63641022   7.575   0.995   6.455 -0.6635 -1.5130 -0.5832
   54MOL   H63741023   7.835   0.768   6.412 -0.6919 -0.0202 -0.3469
   54MOL   H63841024   7.896   0.819   6.565  0.7056  1.7272  0.6202
   54MOL   H63941025   0.046   0.963   6.457 -1.8261 -0.1640 -0.0051
   54MOL   H64041026   0.070   0.798   6.427  0.0363 -0.1108  0.8206
   54MOL   H64141027   8.005   0.823   6.208  1.7249 -0.6846  1.5271
   54MOL   H64241028   0.144   1.072   6.219 -1.5607 -0.2038  0.7681
   54MOL   H64341029   0.113   0.960   6.087  1.1067  0.4564 -0.2092
   54MOL   H64441030   0.440   0.822   6.337  1.8774  1.2837 -2.7285
   54MOL   H64541031   0.657   0.689   6.377 -0.0500  1.4195 -0.2681
   54MOL   H64641032   0.499   0.394   6.099 -1.7553 -2.8071  2.8456
   54MOL   H64741033   0.315   0.529   6.064  0.6310  0.6854 -0.9297
   54MOL   C64841034   0.916   0.188   5.852  0.6548  0.0140  0.5073
   54MOL   C64941035   0.848   0.165   5.987 -0.7035  0.4974  0.0034
   54MOL   C65041036   0.910   0.244   6.105 -0.3054  0.7186  0.1538
   54MOL   C65141037   0.828   0.225   6.236 -0.0444  0.1418  0.1638
   54MOL   C65241038   1.054   0.203   6.112 -0.4363 -0.3263 -0.1227
   54MOL   C65341039   1.126   0.239   5.980  0.3409  1.0340 -0.3016
   54MOL   C65441040   1.067   0.165   5.862  0.0827 -0.6700  0.1540
   54MOL   C65541041   1.143   0.195   5.725  0.4208  0.0683  0.0338
   54MOL   O65641042   1.144   0.336   5.704 -0.4646  0.2154 -0.1792
   54MOL   C65741043   1.185   0.378   5.583 -1.1300 -0.1555 -0.6605
   54MOL   O65841044   1.210   0.305   5.490 -0.0189  0.4372 -0.1276
   54MOL   C65941045   1.216   0.525   5.586  0.0685  0.2684 -0.7597
   54MOL   C66041046   1.221   0.602   5.707  0.4099  0.1377 -0.4084
   54MOL   C66141047   1.252   0.736   5.707  0.3539 -0.1444  0.1779
   54MOL   C66241048   1.251   0.809   5.587  0.5647  0.1587  0.6786
   54MOL   C66341049   1.260   0.959   5.581 -1.0138  0.1135 -0.9827
   54MOL   O66441050   1.239   1.028   5.483  1.0222  0.1806 -0.1029
   54MOL   O66541051   1.313   1.000   5.697  0.4888  0.0934  0.5164
   54MOL   C66641052   1.240   0.734   5.466 -0.8078  0.2707  0.9114
   54MOL   C66741053   1.229   0.597   5.461 -0.3412  0.3428  0.3127
   54MOL   H66841054   0.897   0.289   5.817 -0.3786  0.2750  1.7836
   54MOL   H66941055   0.872   0.124   5.775  0.0841  1.0063  0.0002
   54MOL   H67041056   0.846   0.057   6.000 -2.3792  0.4270 -0.6343
   54MOL   H67141057   0.740   0.182   5.979 -0.9048 -0.6926  0.1175
   54MOL   H67241058   0.908   0.352   6.097 -1.4740  0.6856 -0.1569
   54MOL   H67341059   0.895   0.227   6.322  1.0761 -0.2996 -0.6856
   54MOL   H67441060   0.780   0.128   6.232 -1.4171  0.8783 -2.1400
   54MOL   H67541061   1.056   0.096   6.132  1.8698 -0.8555 -2.8510
   54MOL   H67641062   1.105   0.260   6.189 -0.9560 -0.5208  0.3755
   54MOL   H67741063   1.125   0.348   5.974  0.2764  1.0680  0.2561
   54MOL   H67841064   1.233   0.220   5.982  0.0709 -0.6149 -0.6926
   54MOL   H67941065   1.089   0.060   5.881 -0.4287 -0.6191  1.0639
   54MOL   H68041066   1.085   0.153   5.642 -0.5212  0.4609  0.4883
   54MOL   H68141067   1.245   0.160   5.711  0.2098  0.0318 -1.5879
   54MOL   H68241068   1.191   0.557   5.801  2.2249 -0.9451 -0.3253
   54MOL   H68341069   1.243   0.801   5.793 -2.6269  1.6585 -1.4224
   54MOL   H68441070   1.227   0.793   5.377 -1.4658 -2.2456 -0.7047
   54MOL   H68541071   1.233   0.535   5.372 -2.6551  0.3926  0.1380
   54MOL   C68641072   1.365   1.103   6.108 -0.1716  1.1537  0.2924
   54MOL   C68741073   1.301   1.118   5.972 -0.7867 -0.1772  0.0637
   54MOL   C68841074   1.410   1.133   5.865 -0.1334  0.3371 -0.6073
   54MOL   C68941075   1.352   1.131   5.716  1.0746  0.1951  0.8074
   54MOL   C69041076   1.494   1.255   5.904  0.5729 -0.0217 -0.6608
   54MOL   C69141077   1.571   1.237   6.038 -0.6202  0.0537 -0.2972
   54MOL   C69241078   1.468   1.205   6.151 -0.0311 -0.8206 -0.3238
   54MOL   C69341079   1.529   1.159   6.293  0.1121  0.1094 -0.1540
   54MOL   O69441080   1.643   1.069   6.278 -0.0247  0.5187 -0.2686
   54MOL   C69541081   1.635   0.940   6.319 -0.1749 -0.4402 -0.7183
   54MOL   O69641082   1.527   0.883   6.346 -0.8347 -0.4344  0.5857
   54MOL   C69741083   1.769   0.869   6.328  0.5416 -0.6540 -0.8699
   54MOL   C69841084   1.772   0.726   6.332  0.4507  0.6111 -0.0156
   54MOL   C69941085   1.893   0.662   6.353 -0.7706 -0.9861 -0.2894
   54MOL   C70041086   2.015   0.734   6.357 -0.3486 -0.1989 -0.0306
   54MOL   C70141087   2.141   0.663   6.369  0.6545 -0.4726 -0.8427
   54MOL   O70241088   2.153   0.547   6.345  0.1506 -0.7445  0.4660
   54MOL   O70341089   2.235   0.741   6.413 -0.3727  0.1704  0.3508
   54MOL   C70441090   2.009   0.874   6.350 -0.6522 -0.1837  0.2344
   54MOL   C70541091   1.886   0.944   6.335  0.1244 -0.1605  0.0857
   54MOL   H70641092   1.414   1.005   6.115 -1.9418  0.2117 -0.2168
   54MOL   H70741093   1.291   1.093   6.187  0.2928  1.5496  0.7857
   54MOL   H70841094   1.234   1.205   5.972  1.1005  1.3210  1.6141
   54MOL   H70941095   1.238   1.032   5.951 -0.8400 -0.2476  0.5097
   54MOL   H71041096   1.473   1.046   5.885 -1.5548 -0.7334 -0.7425
   54MOL   H71141097   1.428   1.147   5.639  0.1660  0.4338 -0.0501
   54MOL   H71241098   1.275   1.205   5.696  1.7396  0.0693 -2.5314
   54MOL   H71341099   1.431   1.343   5.892 -0.6825 -0.7872  0.1528
   54MOL   H71441100   1.570   1.282   5.831  2.8279 -3.6440  0.2505
   54MOL   H71541101   1.654   1.166   6.034  2.1033  3.1306 -0.3785
   54MOL   H71641102   1.630   1.327   6.052 -0.6783  0.1982 -0.9692
   54MOL   H71741103   1.399   1.289   6.155  1.6823  0.6127 -0.1512
   54MOL   H71841104   1.459   1.115   6.364  0.7436 -1.4762 -0.4961
   54MOL   H71941105   1.556   1.250   6.346 -0.0736 -0.3331  0.7194
   54MOL   H72041106   1.679   0.673   6.322  0.7330 -0.3394  2.0748
   54MOL   H72141107   1.895   0.554   6.363  1.7207 -0.8401  1.2354
   54MOL   H72241108   2.096   0.935   6.368 -1.4254  0.6602  1.1663
   54MOL   H72341109   1.892   1.052   6.337  1.5997 -0.1882 -1.2432
   54MOL   C72441110   2.649   0.700   6.149  0.2193  0.2608 -0.3520
   54MOL   C72541111   2.579   0.679   6.276 -0.1908  0.7952  0.4638
   54MOL   C72641112   2.441   0.737   6.287  0.2724  0.3441 -0.5270
   54MOL   C72741113   2.373   0.702   6.418  0.8546 -0.1441  0.7859
   54MOL   C72841114   2.453   0.890   6.272  1.0325 -0.2841 -0.1567
   54MOL   C72941115   2.529   0.928   6.153  0.6407 -0.3824  0.5202
   54MOL   C73041116   2.668   0.860   6.141 -0.2198 -0.0216 -0.3019
   54MOL   C73141117   2.757   0.911   6.024 -0.2660 -0.2693  0.2495
   54MOL   O73241118   2.778   1.048   6.040 -0.1350 -0.1708 -0.4202
   54MOL   C73341119   2.865   1.095   5.965 -0.0798 -0.2599 -0.7530
   54MOL   O73441120   2.939   1.034   5.885  0.3400  0.5488 -0.4529
   54MOL   C73541121   2.885   1.239   5.987 -0.1504 -0.3579 -0.4423
   54MOL   C73641122   2.788   1.322   6.044 -0.2767  0.4185  0.1626
   54MOL   C73741123   2.817   1.457   6.077  0.4412 -0.8416  0.1075
   54MOL   C73841124   2.952   1.501   6.066 -0.2314  0.4378 -0.9796
   54MOL   C73941125   2.995   1.636   6.122  0.5272 -0.6201  0.7102
   54MOL   O74041126   3.111   1.676   6.120 -0.5392 -0.5443 -0.0118
   54MOL   O74141127   2.896   1.706   6.182  0.0252  0.2020 -0.1251
   54MOL   C74241128   3.044   1.416   6.000 -0.4681 -0.5574  0.3939
   54MOL   C74341129   3.010   1.292   5.946 -0.0087  0.1390 -0.4409
   54MOL   H74441130   2.601   0.671   6.056  0.1475 -0.7413 -0.0184
   54MOL   H74541131   2.742   0.643   6.153  0.3790  0.4956 -0.7388
   54MOL   H74641132   2.631   0.714   6.366  0.9289  0.6359 -0.1119
   54MOL   H74741133   2.566   0.571   6.285  0.0363  0.8497  1.5672
   54MOL   H74841134   2.379   0.701   6.204 -1.8568  0.8208  0.8299
   54MOL   H74941135   2.421   0.737   6.509  0.3323 -1.3655  1.5347
   54MOL   H75041136   2.370   0.594   6.433  0.8575 -0.1631  0.6518
   54MOL   H75141137   2.516   0.923   6.355 -1.5040  0.8620  1.3847
   54MOL   H75241138   2.355   0.936   6.284  1.1439 -0.4935  1.7137
   54MOL   H75341139   2.461   0.917   6.069  0.5688 -0.4894  0.5934
   54MOL   H75441140   2.553   1.034   6.160  0.3604 -0.3372  0.8286
   54MOL   H75541141   2.728   0.886   6.229  0.7293 -2.6241 -0.1410
   54MOL   H75641142   2.731   0.872   5.926  1.2059 -1.3017  0.2496
   54MOL   H75741143   2.852   0.859   6.040 -0.5757 -0.3942  1.7103
   54MOL   H75841144   2.692   1.278   6.068 -0.3539  1.5937  2.1256
   54MOL   H75941145   2.740   1.519   6.119  1.7342 -1.1198  3.0063
   54MOL   H76041146   3.143   1.454   5.980 -1.0328 -0.5539 -2.6913
   54MOL   H76141147   3.087   1.237   5.894 -1.2406  0.3083 -2.4959
   54MOL   H76241148   2.935   1.776   6.232  0.0730  0.7463 -0.9139
   55MOL     C141149   4.643   2.305   2.527 -0.4492  0.9512 -0.0805
   55MOL     C241150   4.759   2.235   2.460  0.9067 -0.3477  0.3918
   55MOL     C341151   4.779   2.088   2.496 -0.1556 -0.4253 -0.3278
   55MOL     C441152   4.913   2.032   2.446 -0.2799  0.2070 -0.6553
   55MOL     C541153   4.766   2.070   2.651  0.7868  0.2761  0.1453
   55MOL     C641154   4.633   2.122   2.693 -0.0814 -0.0473 -0.4188
   55MOL     C741155   4.626   2.279   2.673  0.2816 -0.0223  0.3671
   55MOL     C841156   4.502   2.341   2.728  0.1187  0.2137  0.1066
   55MOL     O941157   4.480   2.326   2.865  0.9454 -0.4885 -0.6019
   55MOL    C1041158   4.553   2.385   2.961 -0.0346 -0.3205  0.4636
   55MOL    O1141159   4.650   2.458   2.933  0.7474  0.1639  0.0752
   55MOL    C1241160   4.495   2.367   3.094 -0.5379  0.0344  0.0129
   55MOL    C1341161   4.574   2.375   3.211 -0.6409 -0.8074  0.3433
   55MOL    C1441162   4.527   2.350   3.337 -0.9987 -0.3716  0.2588
   55MOL    C1541163   4.394   2.299   3.352  0.3726  0.2275 -0.0997
   55MOL    C1641164   4.340   2.258   3.486  0.6070  0.0746 -0.6525
   55MOL    O1741165   4.222   2.232   3.507  0.3164  0.3129 -0.1356
   55MOL    O1841166   4.433   2.260   3.582 -0.0701 -0.4342  0.0773
   55MOL    C1941167   4.321   2.290   3.237 -0.1272 -0.3404 -0.1980
   55MOL    C2041168   4.366   2.314   3.108 -0.4908  0.6010 -0.2520
   55MOL    H2141169   4.545   2.272   2.495 -0.1652 -0.7303  0.7566
   55MOL    H2241170   4.658   2.411   2.504  1.3235  0.6033 -0.5889
   55MOL    H2341171   4.858   2.279   2.470  0.6504  0.1914  0.5630
   55MOL    H2441172   4.743   2.259   2.355  0.2048  1.0371  0.8016
   55MOL    H2541173   4.699   2.033   2.446 -0.9441 -0.8413  1.3548
   55MOL    H2641174   4.932   1.930   2.481 -0.7851  0.2972 -0.1113
   55MOL    H2741175   4.990   2.095   2.491 -1.5344  0.1513  1.6849
   55MOL    H2841176   4.848   2.120   2.702  0.2293  1.1424  0.2082
   55MOL    H2941177   4.771   1.965   2.679  0.3011 -0.0309 -0.8557
   55MOL    H3041178   4.546   2.070   2.652 -1.2681  1.4445  0.1254
   55MOL    H3141179   4.643   2.100   2.800  0.8433  3.0162  0.1871
   55MOL    H3241180   4.714   2.322   2.720 -0.8276  2.0165  0.6560
   55MOL    H3341181   4.410   2.303   2.685 -0.7209  1.4057  0.8347
   55MOL    H3441182   4.490   2.446   2.700 -1.9775 -0.0668 -0.0991
   55MOL    H3541183   4.673   2.416   3.214 -0.5677 -0.9365 -0.1228
   55MOL    H3641184   4.592   2.382   3.417 -0.2246 -0.3872 -0.3681
   55MOL    H3741185   4.219   2.259   3.257 -0.5421  0.4965 -0.9585
   55MOL    H3841186   4.298   2.288   3.028  1.2887 -0.0927 -1.5861
   55MOL    H3941187   4.931   2.052   2.341  1.5224  1.6172 -0.0950
   55MOL    C4041188   4.714   2.006   3.794 -0.1450 -0.3463 -0.2553
   55MOL    C4141189   4.629   2.127   3.765 -0.3718 -0.3294 -0.4675
   55MOL    C4241190   4.489   2.093   3.739 -0.2124 -0.0035 -0.7045
   55MOL    C4341191   4.403   2.217   3.715  0.1509 -0.2247  0.0666
   55MOL    C4441192   4.469   1.983   3.635  0.3144  0.3700  0.8093
   55MOL    C4541193   4.556   1.859   3.665  0.2920 -0.1965  0.0766
   55MOL    C4641194   4.704   1.895   3.693 -0.6245 -0.0459  0.7420
   55MOL    C4741195   4.789   1.769   3.727  0.2109  0.0104  0.1947
   55MOL    O4841196   4.920   1.819   3.748 -0.6486 -0.6953 -0.1881
   55MOL    C4941197   5.032   1.742   3.758  0.2602 -0.0612 -0.3160
   55MOL    O5041198   5.021   1.620   3.747 -0.2169  0.0655  0.1271
   55MOL    C5141199   5.148   1.831   3.783  0.1987 -0.3465  0.0781
   55MOL    C5241200   5.280   1.801   3.740 -0.7334 -0.6344  0.2192
   55MOL    C5341201   5.387   1.896   3.753  0.3731 -0.4167  0.3956
   55MOL    C5441202   5.365   2.018   3.816 -1.4982 -0.4567 -0.0676
   55MOL    C5541203   5.479   2.113   3.836 -0.6610  0.0314 -0.1581
   55MOL    O5641204   5.600   2.073   3.861 -0.2684  0.7429 -0.3990
   55MOL    O5741205   5.446   2.240   3.828  0.3059  0.5705 -0.2392
   55MOL    C5841206   5.238   2.047   3.865 -0.1810  0.4738 -0.6636
   55MOL    C5941207   5.129   1.959   3.841 -0.2839  0.1221 -0.2353
   55MOL    H6041208   4.684   1.975   3.894  0.9909  0.2171  0.2663
   55MOL    H6141209   4.816   2.041   3.810 -0.5801  0.5879  0.5553
   55MOL    H6241210   4.674   2.165   3.673  1.3152 -3.5353 -1.0559
   55MOL    H6341211   4.638   2.187   3.855  1.7012  1.0872 -1.5633
   55MOL    H6441212   4.447   2.056   3.832 -0.1481 -0.0166 -0.6810
   55MOL    H6541213   4.425   2.299   3.782 -2.2304  0.8941 -0.4470
   55MOL    H6641214   4.299   2.197   3.743  0.6368 -2.1427  0.5677
   55MOL    H6741215   4.495   2.021   3.536 -0.9452 -2.4749 -0.6992
   55MOL    H6841216   4.368   1.942   3.634  1.1900 -1.8294 -0.3376
   55MOL    H6941217   4.516   1.806   3.751 -0.9988  0.0248 -0.3685
   55MOL    H7041218   4.549   1.788   3.582 -1.0066  1.2053 -1.0421
   55MOL    H7141219   4.751   1.922   3.599  0.5182 -1.8078  0.7888
   55MOL    H7241220   4.790   1.699   3.643 -0.5424 -0.9603  0.9832
   55MOL    H7341221   4.759   1.709   3.813 -0.1514 -0.6883 -0.4156
   55MOL    H7441222   5.302   1.705   3.696  1.9379  0.4392 -0.9412
   55MOL    H7541223   5.489   1.883   3.720  0.5830 -0.5290  1.0753
   55MOL    H7641224   5.226   2.135   3.926  0.6399  0.6993 -0.8155
   55MOL    H7741225   5.033   1.992   3.877 -0.3903 -0.3276 -0.0994
   55MOL    C7841226   5.607   2.712   3.768 -0.2175 -0.3855 -0.7742
   55MOL    C7941227   5.635   2.565   3.794  0.8701 -0.5532  0.1850
   55MOL    C8041228   5.509   2.472   3.788 -0.0910 -0.8757 -0.6884
   55MOL    C8141229   5.547   2.332   3.834 -0.1553 -0.7473  0.2864
   55MOL    C8241230   5.388   2.528   3.869 -0.2589  0.0502 -0.1540
   55MOL    C8341231   5.365   2.682   3.848 -0.0954 -0.3120 -0.0179
   55MOL    C8441232   5.494   2.765   3.852  0.8791 -0.0433 -0.2522
   55MOL    C8541233   5.468   2.919   3.836  0.0054  0.8352  0.5745
   55MOL    O8641234   5.389   2.952   3.940 -0.1102 -0.0678  0.2793
   55MOL    C8741235   5.375   3.080   3.974 -0.7399  0.3282  0.0894
   55MOL    O8841236   5.440   3.173   3.933  0.1621  0.1146 -0.1855
   55MOL    C8941237   5.251   3.103   4.064  0.1244 -0.6044  0.6392
   55MOL    C9041238   5.186   2.994   4.128 -0.8091 -0.4549  0.4547
   55MOL    C9141239   5.071   3.015   4.210 -0.0947  0.0483  0.4882
   55MOL    C9241240   5.021   3.147   4.234 -0.6351 -0.2969  0.2267
   55MOL    C9341241   4.900   3.178   4.321 -0.4462  0.2474 -0.4714
   55MOL    O9441242   4.860   3.093   4.398  0.5291 -0.2146 -0.8439
   55MOL    O9541243   4.842   3.306   4.294 -0.5636 -0.1533  0.0423
   55MOL    C9641244   5.095   3.255   4.177 -0.1776  0.8569  0.5131
   55MOL    C9741245   5.209   3.232   4.091  1.1181 -0.2698  0.3473
   55MOL    H9841246   5.559   2.715   3.670  0.1908  0.4853 -0.9466
   55MOL    H9941247   5.692   2.779   3.761 -1.4661  1.4932  1.5161
   55MOL   H10041248   5.682   2.552   3.891 -0.4706  0.8296  1.0359
   55MOL   H10141249   5.711   2.549   3.717 -1.3510 -1.0567 -1.9815
   55MOL   H10241250   5.475   2.454   3.686 -1.7063 -0.3067 -0.2638
   55MOL   H10341251   5.592   2.329   3.933  2.2787  0.1734 -0.7391
   55MOL   H10441252   5.636   2.296   3.781  1.9323 -1.4961  4.0848
   55MOL   H10541253   5.431   2.521   3.968 -0.8641  1.4515  0.2243
   55MOL   H10641254   5.300   2.464   3.874 -0.2900  0.2146  1.5417
   55MOL   H10741255   5.323   2.694   3.748  0.5591  1.2204 -0.1214
   55MOL   H10841256   5.297   2.733   3.916 -1.0022  1.6429 -2.3396
   55MOL   H10941257   5.549   2.768   3.946  2.6886 -0.7115 -1.2628
   55MOL   H11041258   5.421   2.948   3.743 -0.6339 -1.8855  0.0157
   55MOL   H11141259   5.564   2.970   3.852  1.6137 -2.5343  2.3614
   55MOL   H11241260   5.214   2.891   4.117 -1.1135 -0.7743  2.4941
   55MOL   H11341261   5.016   2.936   4.259 -1.7939  0.2413 -1.0671
   55MOL   H11441262   5.070   3.356   4.206 -0.9212  0.7883  0.1216
   55MOL   H11541263   5.262   3.314   4.044  0.2970 -1.0886 -2.0704
   55MOL   C11641264   4.744   3.434   4.751 -0.5246  0.5926 -0.1873
   55MOL   C11741265   4.674   3.391   4.623  0.1080 -0.0083  0.6052
   55MOL   C11841266   4.780   3.400   4.509 -0.3822 -1.0268  0.0976
   55MOL   C11941267   4.729   3.343   4.373  0.1366  0.8089  0.5979
   55MOL   C12041268   4.842   3.541   4.502  0.1725  0.1482 -0.0201
   55MOL   C12141269   4.915   3.573   4.629 -0.7634 -0.0169  0.2168
   55MOL   C12241270   4.821   3.572   4.754 -0.5531  0.4182  0.0543
   55MOL   C12341271   4.896   3.592   4.882  1.0041 -0.2965 -0.3624
   55MOL   O12441272   4.934   3.731   4.898 -0.1942 -0.1288 -0.6257
   55MOL   C12541273   5.061   3.773   4.907  1.1633 -0.8712 -0.2296
   55MOL   O12641274   5.154   3.697   4.885  0.0808 -0.3548  0.0880
   55MOL   C12741275   5.062   3.916   4.933 -0.8209 -0.6071 -0.6803
   55MOL   C12841276   4.946   4.003   4.915 -0.5376 -0.0862  0.4086
   55MOL   C12941277   4.958   4.141   4.937  1.0363 -0.1521 -0.0297
   55MOL   C13041278   5.076   4.193   4.994 -0.1519 -0.9894  0.1249
   55MOL   C13141279   5.074   4.333   5.047 -0.3884 -0.9695  0.8904
   55MOL   O13241280   4.972   4.386   5.093  0.2528 -0.8687 -0.1032
   55MOL   O13341281   5.194   4.383   5.059  0.2118 -0.6367 -0.0619
   55MOL   C13441282   5.189   4.110   5.017 -0.2281  0.0735  0.6488
   55MOL   C13541283   5.182   3.971   4.989 -0.1607  0.4582  0.6344
   55MOL   H13641284   4.811   3.358   4.789 -0.8592  0.5209  0.2716
   55MOL   H13741285   4.663   3.444   4.823 -0.0762  2.0987  0.1346
   55MOL   H13841286   4.600   3.462   4.585  2.1930  2.4143  0.9259
   55MOL   H13941287   4.627   3.293   4.629 -0.0594  0.0410  0.1277
   55MOL   H14041288   4.864   3.339   4.542  0.1382 -0.9381 -1.0336
   55MOL   H14141289   4.667   3.416   4.322  1.1794  2.6676  1.9187
   55MOL   H14241290   4.662   3.260   4.394  1.8575 -0.8691 -0.3882
   55MOL   H14341291   4.768   3.619   4.483  0.1017 -0.1667 -1.0857
   55MOL   H14441292   4.906   3.542   4.414  0.0779 -0.6548 -0.1055
   55MOL   H14541293   4.986   3.491   4.633 -0.9337 -0.0973  1.8716
   55MOL   H14641294   4.960   3.672   4.620 -1.7959  0.4373 -0.1349
   55MOL   H14741295   4.750   3.652   4.735 -2.1461 -0.0011  3.7618
   55MOL   H14841296   4.985   3.531   4.870  0.0891 -2.0107  1.1940
   55MOL   H14941297   4.840   3.565   4.972 -1.8930  2.1576 -1.3494
   55MOL   H15041298   4.851   3.971   4.874 -1.6017  3.6329 -0.1736
   55MOL   H15141299   4.872   4.201   4.913  0.1927 -1.3181  0.0248
   55MOL   H15241300   5.276   4.163   5.052 -0.2814 -0.5142  1.7012
   55MOL   H15341301   5.262   3.900   5.004  1.2952  2.0354  0.4629
   55MOL   C15441302   5.601   4.502   5.042  0.5024  0.3050 -0.1576
   55MOL   C15541303   5.452   4.504   5.024  0.5343 -0.0374 -0.4535
   55MOL   C15641304   5.374   4.504   5.160  0.6396 -0.0663  0.5814
   55MOL   C15741305   5.226   4.501   5.131  0.4941 -0.3746  0.3837
   55MOL   C15841306   5.437   4.386   5.246  0.8696  0.1776 -0.8837
   55MOL   C15941307   5.590   4.407   5.260  0.0968  0.4284  0.0871
   55MOL   C16041308   5.664   4.396   5.127  0.0167  0.2281 -0.5507
   55MOL   C16141309   5.817   4.417   5.132  0.1273 -0.3577 -0.5515
   55MOL   O16241310   5.887   4.303   5.195 -0.2117  0.2904 -0.0393
   55MOL   C16341311   6.022   4.285   5.177 -0.1571 -0.3793  0.2040
   55MOL   O16441312   6.093   4.371   5.119  0.0333 -0.1431 -0.1928
   55MOL   C16541313   6.067   4.148   5.216 -0.3714  0.1171  0.6130
   55MOL   C16641314   6.173   4.080   5.149 -0.4305  0.4911  0.2088
   55MOL   C16741315   6.208   3.948   5.177  0.4652  0.0951 -0.5879
   55MOL   C16841316   6.121   3.877   5.268 -0.2802 -0.2752 -0.1301
   55MOL   C16941317   6.137   3.728   5.290  0.4302  0.7750 -0.6385
   55MOL   O17041318   6.217   3.662   5.226 -0.1014 -0.1840  0.3410
   55MOL   O17141319   6.060   3.675   5.382 -0.4834  0.5111  0.5268
   55MOL   C17241320   6.015   3.945   5.330 -0.4105 -0.4169  0.1646
   55MOL   C17341321   5.981   4.077   5.294  0.5650  0.1999  0.0545
   55MOL   H17441322   5.634   4.596   5.086  0.0518  0.3092  0.1744
   55MOL   H17541323   5.644   4.497   4.942  0.3092  0.7831 -0.2696
   55MOL   H17641324   5.438   4.414   4.965  2.5725 -0.5592 -0.1745
   55MOL   H17741325   5.426   4.591   4.965 -0.2179 -0.1575 -0.3095
   55MOL   H17841326   5.401   4.592   5.218  3.0336 -0.0281 -0.5258
   55MOL   H17941327   5.201   4.592   5.076  1.8064 -0.7325 -0.8201
   55MOL   H18041328   5.161   4.504   5.218 -0.0263  1.9876 -0.0615
   55MOL   H18141329   5.415   4.296   5.188 -1.1978  1.5734 -2.3402
   55MOL   H18241330   5.388   4.364   5.341 -0.9267 -2.1173 -2.2686
   55MOL   H18341331   5.620   4.495   5.317  0.8601  0.0203  0.3174
   55MOL   H18441332   5.624   4.331   5.330 -1.0610 -0.8243 -0.7030
   55MOL   H18541333   5.637   4.298   5.090  0.7053  0.0758 -0.6464
   55MOL   H18641334   5.836   4.501   5.198  1.2269 -0.7161 -0.4016
   55MOL   H18741335   5.844   4.433   5.028 -1.3983 -0.2312 -0.9296
   55MOL   H18841336   6.225   4.135   5.072 -0.0906  0.0555  0.1275
   55MOL   H18941337   6.298   3.901   5.141  1.0464  1.5990 -1.1186
   55MOL   H19041338   5.948   3.890   5.394 -0.1026 -0.8632  0.1042
   55MOL   H19141339   5.893   4.116   5.342  1.5490  1.3570  0.9546
   55MOL   C19241340   5.677   3.503   5.307 -0.4226  0.4172  0.2916
   55MOL   C19341341   5.799   3.558   5.379  0.3211 -0.2341 -0.1261
   55MOL   C19441342   5.924   3.484   5.335 -0.2371  0.2358  0.0302
   55MOL   C19541343   6.051   3.535   5.398  0.4019 -0.4788  0.7599
   55MOL   C19641344   5.906   3.336   5.361 -0.0211  0.6142  1.1888
   55MOL   C19741345   5.776   3.266   5.301  0.7596  0.1090  0.0587
   55MOL   C19841346   5.655   3.352   5.317 -0.4569  0.5945  0.4882
   55MOL   C19941347   5.549   3.326   5.207  0.0577  0.7922  0.3846
   55MOL   O20041348   5.522   3.192   5.199 -0.0976 -0.0406  0.2413
   55MOL   C20141349   5.412   3.132   5.157 -0.0807 -0.1674  0.0308
   55MOL   O20241350   5.299   3.189   5.140  0.0886 -0.1304  0.0138
   55MOL   C20341351   5.427   2.985   5.140  0.8205  0.4690 -0.2614
   55MOL   C20441352   5.310   2.903   5.129 -0.0024  0.0493  0.1155
   55MOL   C20541353   5.331   2.761   5.116  0.0275  0.2508 -0.2188
   55MOL   C20641354   5.462   2.705   5.110  0.2717 -0.0111  0.0953
   55MOL   C20741355   5.478   2.559   5.100 -0.0251  0.4546 -0.5639
   55MOL   O20841356   5.389   2.480   5.120  0.0283  0.3823  0.1476
   55MOL   O20941357   5.607   2.517   5.077  0.4243  0.0686 -0.2501
   55MOL   C21041358   5.572   2.795   5.126  0.4968  0.2579  0.0742
   55MOL   C21141359   5.561   2.930   5.150  0.5371  0.3754 -0.0573
   55MOL   H21241360   5.692   3.525   5.201  0.4453  0.7936  0.4930
   55MOL   H21341361   5.591   3.560   5.342 -2.2867 -1.5900 -0.8889
   55MOL   H21441362   5.789   3.548   5.487  1.1002 -0.0703 -0.0316
   55MOL   H21541363   5.805   3.664   5.354  0.4884 -0.2237 -0.0435
   55MOL   H21641364   5.929   3.494   5.227  2.6105 -2.5638 -0.1795
   55MOL   H21741365   6.139   3.480   5.367  1.8466  1.7992  0.7206
   55MOL   H21841366   6.052   3.528   5.506  0.6348 -2.1905  0.6580
   55MOL   H21941367   5.897   3.310   5.466 -3.1244 -1.3338  0.5104
   55MOL   H22041368   5.984   3.275   5.315  0.2894  2.1513 -0.3651
   55MOL   H22141369   5.791   3.257   5.194 -0.6745 -2.2015  0.0163
   55MOL   H22241370   5.753   3.171   5.351 -1.1826  0.1159 -0.7475
   55MOL   H22341371   5.612   3.325   5.413  0.0044 -1.2909  0.1905
   55MOL   H22441372   5.588   3.357   5.110 -0.0706  0.1494  0.1268
   55MOL   H22541373   5.455   3.380   5.224  0.4054  1.2123  0.9813
   55MOL   H22641374   5.213   2.950   5.126 -0.4415 -0.8651 -0.2950
   55MOL   H22741375   5.240   2.704   5.113  1.5149 -2.1325 -1.2783
   55MOL   H22841376   5.674   2.759   5.119  0.2356 -0.0703 -3.0150
   55MOL   H22941377   5.642   3.001   5.154  0.3718  0.7229 -2.2365
   55MOL   C23041378   5.737   2.357   5.464  0.0283 -0.0982  0.9221
   55MOL   C23141379   5.651   2.387   5.343  0.2349 -0.1743 -0.4278
   55MOL   C23241380   5.718   2.356   5.212 -0.4315 -0.6548  0.9386
   55MOL   C23341381   5.634   2.379   5.092 -0.2114  0.0778 -0.2814
   55MOL   C23441382   5.851   2.435   5.203 -0.3708 -0.0543  0.6008
   55MOL   C23541383   5.941   2.408   5.324 -0.1318  0.4504  0.5630
   55MOL   C23641384   5.874   2.440   5.460  0.2989  0.3418  0.3525
   55MOL   C23741385   5.967   2.394   5.567  0.7341 -0.0799 -0.0758
   55MOL   O23841386   6.087   2.472   5.579  0.3178 -1.1384  0.9920
   55MOL   C23941387   6.178   2.437   5.672  0.0622  0.2847  0.4230
   55MOL   O24041388   6.177   2.341   5.752  0.0843 -0.7575  0.0582
   55MOL   C24141389   6.277   2.549   5.673 -0.9505  0.2956  0.2309
   55MOL   C24241390   6.391   2.533   5.751 -0.2141 -0.8184 -0.0251
   55MOL   C24341391   6.494   2.629   5.752 -0.6675  0.3131 -0.0444
   55MOL   C24441392   6.475   2.747   5.686 -0.6882 -0.0345  0.5121
   55MOL   C24541393   6.584   2.852   5.690  0.2438 -0.0316  0.5055
   55MOL   O24641394   6.684   2.856   5.764  0.6088 -0.0848  0.2881
   55MOL   O24741395   6.557   2.955   5.618 -0.0526 -0.5728 -0.3144
   55MOL   C24841396   6.355   2.769   5.616  0.2020 -0.7105 -0.1908
   55MOL   C24941397   6.261   2.672   5.600  0.3187 -0.1579  0.4324
   55MOL   H25041398   5.762   2.251   5.477  0.6630  0.0244  0.6847
   55MOL   H25141399   5.684   2.379   5.557 -1.4462  0.3850 -0.0088
   55MOL   H25241400   5.630   2.494   5.352  0.5272 -0.0715 -0.9370
   55MOL   H25341401   5.558   2.332   5.338 -0.6817  1.2944  0.1207
   55MOL   H25441402   5.742   2.250   5.211  1.4310 -0.2654  1.2957
   55MOL   H25541403   5.545   2.316   5.082  0.0706 -0.4813  0.6784
   55MOL   H25641404   5.706   2.354   5.014  1.0977  1.0439  0.6008
   55MOL   H25741405   5.820   2.539   5.201 -1.8005 -0.4826 -0.9069
   55MOL   H25841406   5.901   2.411   5.109 -0.1478 -3.5334  1.5372
   55MOL   H25941407   5.970   2.303   5.318 -0.9571  0.3196 -1.8315
   55MOL   H26041408   6.035   2.460   5.304 -0.0954 -0.2826 -1.3490
   55MOL   H26141409   5.852   2.547   5.464 -0.3888  0.2171 -0.0810
   55MOL   H26241410   5.989   2.289   5.550  2.6252  0.3133 -0.2204
   55MOL   H26341411   5.919   2.384   5.664  0.8289 -1.3268 -0.1524
   55MOL   H26441412   6.391   2.442   5.809 -0.5128 -2.1333 -2.0114
   55MOL   H26541413   6.581   2.618   5.816  1.2052  0.1906 -2.5235
   55MOL   H26641414   6.330   2.866   5.574 -2.5684 -0.6290  1.4993
   55MOL   H26741415   6.168   2.709   5.559  0.3327 -2.1154 -1.5161
   55MOL   C26841416   6.839   3.107   5.240 -0.0550  0.2911  0.4437
   55MOL   C26941417   6.801   3.137   5.393  0.7071  0.2586  0.7600
   55MOL   C27041418   6.686   3.043   5.433  0.1068 -0.4147 -0.0904
   55MOL   C27141419   6.642   3.063   5.579 -0.1492  0.1176  0.2334
   55MOL   C27241420   6.560   3.070   5.338  0.0460  0.2831  0.5268
   55MOL   C27341421   6.595   3.049   5.188 -0.6874 -0.3714  0.0351
   55MOL   C27441422   6.719   3.131   5.146 -0.6399  0.2340 -0.4223
   55MOL   C27541423   6.758   3.106   5.000  0.1888 -0.3870  0.1963
   55MOL   O27641424   6.654   3.157   4.922  0.1093 -0.0860 -0.5824
   55MOL   C27741425   6.682   3.251   4.824 -0.3969 -0.3879 -0.4432
   55MOL   O27841426   6.790   3.304   4.810  0.3589  0.8157  0.0160
   55MOL   C27941427   6.546   3.276   4.757 -0.3105 -0.2214  0.2024
   55MOL   C28041428   6.543   3.371   4.654  0.1581  0.3603 -1.1930
   55MOL   C28141429   6.422   3.399   4.588 -0.0090 -0.4539 -0.3943
   55MOL   C28241430   6.300   3.331   4.623  0.3178 -0.2024 -0.3599
   55MOL   C28341431   6.173   3.357   4.552 -0.3850 -0.4620  0.6792
   55MOL   O28441432   6.071   3.299   4.589 -0.3259 -0.6549  0.0587
   55MOL   O28541433   6.190   3.435   4.441  0.6084 -0.4509 -0.0296
   55MOL   C28641434   6.304   3.235   4.725 -0.8414  0.3544 -0.0785
   55MOL   C28741435   6.423   3.210   4.793 -0.0828 -0.2962 -0.3444
   55MOL   H28841436   6.875   3.005   5.223  0.6314  0.4567  0.8765
   55MOL   H28941437   6.922   3.174   5.217  0.4740 -0.9202 -1.3008
   55MOL   H29041438   6.767   3.241   5.395 -0.0127  0.0064  2.0875
   55MOL   H29141439   6.888   3.113   5.454  1.9692 -0.9298 -1.4494
   55MOL   H29241440   6.728   2.943   5.424  0.4085 -0.0817 -2.5372
   55MOL   H29341441   6.574   3.147   5.589  1.3228  1.2081  1.2626
   55MOL   H29441442   6.728   3.079   5.644  0.1631 -0.1583 -0.1118
   55MOL   H29541443   6.520   3.170   5.354  0.8884  0.8792 -1.0512
   55MOL   H29641444   6.483   2.999   5.366  2.1629 -2.0736  0.5483
   55MOL   H29741445   6.604   2.942   5.171 -2.3721 -0.5109 -0.0718
   55MOL   H29841446   6.508   3.079   5.129 -0.7530  1.6655  1.1050
   55MOL   H29941447   6.690   3.234   5.166  0.3843  0.1200  1.9134
   55MOL   H30041448   6.781   3.001   4.984 -0.6745 -0.9334  2.3093
   55MOL   H30141449   6.856   3.152   4.983 -0.4878  1.0527  0.0753
   55MOL   H30241450   6.636   3.421   4.630  0.7861 -1.1898 -2.0493
   55MOL   H30341451   6.432   3.468   4.506  0.6684  2.2687  1.8875
   55MOL   H30441452   6.216   3.181   4.755 -0.1912 -1.3594 -1.2083
   55MOL   H30541453   6.424   3.129   4.864  1.0506 -1.0569 -1.1993
   55MOL   C30641454   5.867   3.783   4.279 -0.2117  0.3957  0.1710
   55MOL   C30741455   5.940   3.647   4.269  0.6438  0.1587 -0.6584
   55MOL   C30841456   6.023   3.608   4.391  0.1870  0.0358  0.5500
   55MOL   C30941457   6.078   3.462   4.357  0.2784 -0.2210 -0.6445
   55MOL   C31041458   6.136   3.713   4.403  0.5138  0.6221  0.0005
   55MOL   C31141459   6.073   3.855   4.414  0.6120  0.0588  0.0985
   55MOL   C31241460   5.975   3.890   4.303  0.1835 -0.0694  0.1741
   55MOL   C31341461   5.916   4.031   4.325 -0.1709 -0.3177  0.8487
   55MOL   O31441462   5.845   4.075   4.211  0.2692 -0.3599  0.0681
   55MOL   C31541463   5.745   4.160   4.221 -0.4862  0.3890  0.1634
   55MOL   O31641464   5.717   4.216   4.327 -0.1338 -0.4956  0.6398
   55MOL   C31741465   5.662   4.192   4.096 -0.2559  0.4769  0.3526
   55MOL   C31841466   5.533   4.251   4.101  0.6214  0.1147  0.0747
   55MOL   C31941467   5.468   4.281   3.980  0.6321 -0.5312  0.1037
   55MOL   C32041468   5.518   4.252   3.854 -0.1869  0.0078 -0.7490
   55MOL   C32141469   5.445   4.292   3.731 -0.4432  0.1775  0.3411
   55MOL   O32241470   5.326   4.323   3.734  0.0649  0.4529  0.4014
   55MOL   O32341471   5.522   4.292   3.622  0.0413  0.0035 -0.2991
   55MOL   C32441472   5.649   4.193   3.856  0.3709  1.0601  0.2715
   55MOL   C32541473   5.716   4.157   3.972  0.1349 -0.4144 -0.2177
   55MOL   H32641474   5.797   3.788   4.363 -1.5782 -0.2266 -0.9183
   55MOL   H32741475   5.804   3.795   4.191  1.0752 -1.3013 -1.0219
   55MOL   H32841476   5.984   3.644   4.170  0.2488 -0.4809 -0.8218
   55MOL   H32941477   5.856   3.577   4.264  0.1857  0.7814 -1.7120
   55MOL   H33041478   5.966   3.598   4.483 -0.5713  1.0369  0.1860
   55MOL   H33141479   6.119   3.463   4.256  2.3349 -0.4861  0.1687
   55MOL   H33241480   5.996   3.392   4.374  0.3836  0.0833  1.1775
   55MOL   H33341481   6.208   3.716   4.322  1.9407 -0.8397  1.1882
   55MOL   H33441482   6.203   3.696   4.488  0.0396  1.2779  0.5066
   55MOL   H33541483   6.020   3.870   4.508  0.4091 -1.2395  0.2122
   55MOL   H33641484   6.158   3.922   4.415  0.5597  0.2001 -2.3821
   55MOL   H33741485   6.036   3.901   4.213 -0.4376 -0.1433 -0.2627
   55MOL   H33841486   5.999   4.100   4.344 -1.2625  1.9018 -2.0541
   55MOL   H33941487   5.850   4.028   4.411 -0.4500  1.3733  0.7077
   55MOL   H34041488   5.484   4.273   4.194  0.8815 -4.1329  1.2864
   55MOL   H34141489   5.381   4.344   3.981  1.8492  1.2806 -2.1620
   55MOL   H34241490   5.699   4.179   3.761 -1.2892 -1.1133 -0.3180
   55MOL   H34341491   5.821   4.133   3.966 -0.0416 -0.9948 -1.1880
   55MOL   C34441492   5.599   4.565   3.252  0.2642 -0.0685 -0.4051
   55MOL   C34541493   5.602   4.444   3.352 -0.6931 -0.6091 -0.0926
   55MOL   C34641494   5.462   4.416   3.417 -0.4958 -0.0610  0.3286
   55MOL   C34741495   5.453   4.294   3.502 -0.4711 -0.2400  0.2430
   55MOL   C34841496   5.411   4.539   3.492  0.0287 -0.1333 -0.0437
   55MOL   C34941497   5.397   4.658   3.393 -0.1707 -0.6765  0.0920
   55MOL   C35041498   5.537   4.686   3.320  0.4967 -0.3687  0.0470
   55MOL   C35141499   5.505   4.800   3.223  0.3568  0.2175 -0.4565
   55MOL   O35241500   5.624   4.838   3.160 -0.2091  0.4095  0.4177
   55MOL   C35341501   5.623   4.887   3.037 -0.3486  0.8777 -0.9514
   55MOL   O35441502   5.524   4.912   2.963 -0.1574  0.3958 -0.3185
   55MOL   C35541503   5.764   4.907   2.982  0.7681 -0.1880  0.5553
   55MOL   C35641504   5.775   4.932   2.845 -0.1370  0.1875  0.2846
   55MOL   C35741505   5.901   4.957   2.785  0.1317 -0.8664  0.4650
   55MOL   C35841506   6.022   4.958   2.855 -0.5997 -0.2644 -0.0130
   55MOL   C35941507   6.157   4.977   2.794  0.2113 -0.1548 -0.4519
   55MOL   O36041508   6.262   4.943   2.846  0.1249  0.0712 -0.1800
   55MOL   O36141509   6.163   5.042   2.674 -0.0197 -0.2302  0.2415
   55MOL   C36241510   6.011   4.936   2.993 -0.2074 -0.3623  0.5510
   55MOL   C36341511   5.888   4.902   3.057  0.2454 -0.7244  0.8367
   55MOL   H36441512   5.530   4.542   3.171 -0.4757  1.7023 -0.3215
   55MOL   H36541513   5.700   4.588   3.220  1.1519  0.8452  2.8440
   55MOL   H36641514   5.675   4.458   3.431 -0.4935 -0.1663 -0.3547
   55MOL   H36741515   5.646   4.356   3.305  2.8015  0.9160  0.1983
   55MOL   H36841516   5.396   4.400   3.332 -1.0251  1.9619  0.3270
   55MOL   H36941517   5.503   4.212   3.450 -1.9968 -0.4955 -0.8660
   55MOL   H37041518   5.346   4.277   3.514 -0.0850 -2.8744  0.1749
   55MOL   H37141519   5.477   4.565   3.575  2.2243  0.8507 -2.0433
   55MOL   H37241520   5.311   4.520   3.529  0.1712  0.9348  0.9224
   55MOL   H37341521   5.314   4.631   3.329 -1.0314  2.6550 -0.2891
   55MOL   H37441522   5.372   4.745   3.454  1.0590  0.1782 -0.5984
   55MOL   H37541523   5.606   4.730   3.391 -0.7576  3.1229 -0.8122
   55MOL   H37641524   5.473   4.889   3.278  0.8371  0.6834 -0.9170
   55MOL   H37741525   5.421   4.773   3.160 -0.1044 -0.6197  0.4986
   55MOL   H37841526   5.684   4.943   2.788 -0.3407 -0.0011  0.5674
   55MOL   H37941527   5.903   4.987   2.682  0.4642  0.1818  0.7674
   55MOL   H38041528   6.099   4.938   3.054 -0.3949 -1.3190  0.8512
   55MOL   H38141529   5.891   4.890   3.164  0.3625 -2.4888  0.6535
   55MOL   C38241530   6.189   5.271   2.303  0.2077 -0.3285 -0.0277
   55MOL   C38341531   6.212   5.228   2.442 -0.0811 -0.2553 -0.3184
   55MOL   C38441532   6.256   5.084   2.456 -0.6540  0.6318  0.3683
   55MOL   C38541533   6.285   5.032   2.602 -0.3741  0.7100  0.3330
   55MOL   C38641534   6.159   4.987   2.391  0.0350  0.5248  0.5865
   55MOL   C38741535   6.128   5.029   2.248 -0.1641  0.5370 -0.3999
   55MOL   C38841536   6.087   5.177   2.231 -0.1896  0.0914  0.0312
   55MOL   C38941537   6.064   5.213   2.079 -0.4826  0.0578 -0.4138
   55MOL   O39041538   5.941   5.146   2.028 -0.6868  0.6769  0.0042
   55MOL   C39141539   5.947   5.033   1.948  0.3840  0.1019 -0.4586
   55MOL   O39241540   6.055   4.983   1.910  0.1834 -0.2177 -0.1955
   55MOL   C39341541   5.814   4.984   1.914 -0.1010 -0.6318 -0.2934
   55MOL   C39441542   5.803   4.855   1.857  0.3703 -0.1454  0.4427
   55MOL   C39541543   5.681   4.808   1.802 -0.7204 -0.3938  0.3264
   55MOL   C39641544   5.562   4.887   1.811 -0.1049 -0.4274  0.7349
   55MOL   C39741545   5.435   4.835   1.758  0.2798 -0.0134 -0.4174
   55MOL   O39841546   5.417   4.730   1.699  0.0622 -0.1382  0.0399
   55MOL   O39941547   5.335   4.925   1.785  0.0088 -0.4492 -0.4641
   55MOL   C40041548   5.574   5.009   1.884 -0.0390 -1.5187  0.1105
   55MOL   C40141549   5.698   5.063   1.919  0.7264 -0.0949 -0.0482
   55MOL   H40241550   6.285   5.267   2.251  0.1456  0.1508 -0.1756
   55MOL   H40341551   6.155   5.374   2.295  2.9121  0.5079 -1.4830
   55MOL   H40441552   6.124   5.234   2.507 -0.1055 -1.0725 -0.2743
   55MOL   H40541553   6.286   5.295   2.487  0.8385 -2.0344  0.8607
   55MOL   H40641554   6.346   5.074   2.395 -1.7894 -0.4086 -1.1900
   55MOL   H40741555   6.358   5.099   2.648 -0.0768 -0.1808  1.1514
   55MOL   H40841556   6.328   4.932   2.597 -0.7546  0.4455  2.2208
   55MOL   H40941557   6.068   4.975   2.449 -0.3485  0.2731 -0.0608
   55MOL   H41041558   6.218   4.895   2.387 -1.3679 -0.4048  1.1198
   55MOL   H41141559   6.222   5.023   2.193  0.4263  0.4291  0.6040
   55MOL   H41241560   6.062   4.954   2.204 -1.3200  2.1269 -1.4231
   55MOL   H41341561   5.985   5.192   2.266 -0.5812  2.1754 -1.8657
   55MOL   H41441562   6.147   5.205   2.009 -1.2204 -3.6815 -0.9426
   55MOL   H41541563   6.024   5.315   2.075 -1.4411 -0.2959  0.0053
   55MOL   H41641564   5.887   4.788   1.847  0.9165  0.5728  0.1621
   55MOL   H41741565   5.674   4.709   1.759  0.7984  0.0189 -0.8974
   55MOL   H41841566   5.484   5.068   1.889  0.8128  0.1190 -2.5902
   55MOL   H41941567   5.699   5.161   1.965  0.7021 -0.6614  1.1893
   55MOL   C42041568   4.914   5.141   1.848  0.3717 -1.3761 -0.0666
   55MOL   C42141569   4.981   5.012   1.797 -0.6358  0.3467 -0.0634
   55MOL   C42241570   5.129   5.033   1.775 -0.1314  0.1667  0.0616
   55MOL   C42341571   5.203   4.907   1.741  0.0703 -0.7935  0.1835
   55MOL   C42441572   5.146   5.150   1.683 -0.0609 -0.3005 -0.2864
   55MOL   C42541573   5.094   5.287   1.740  0.0627  0.0741  0.1087
   55MOL   C42641574   4.946   5.265   1.768 -0.1521 -0.1903 -0.1558
   55MOL   C42741575   4.874   5.384   1.831  0.6675 -0.3220 -0.1013
   55MOL   O42841576   4.880   5.494   1.747  0.4981  0.1939  0.2127
   55MOL   C42941577   4.782   5.529   1.665  0.4892 -0.0310 -0.0460
   55MOL   O43041578   4.676   5.464   1.650  0.2176  0.4568 -0.5234
   55MOL   C43141579   4.827   5.650   1.592 -0.6678 -0.3353 -0.2526
   55MOL   C43241580   4.750   5.696   1.483  0.3748 -0.3012  0.5059
   55MOL   C43341581   4.793   5.797   1.398  0.4644 -0.2092  0.2129
   55MOL   C43441582   4.923   5.843   1.409 -0.4169  0.4433 -0.0246
   55MOL   C43541583   4.977   5.944   1.320  0.0619 -0.1759 -0.1234
   55MOL   O43641584   4.913   6.004   1.237  0.5875  0.3447  0.4902
   55MOL   O43741585   5.111   5.964   1.330  0.5054 -0.3633 -0.5925
   55MOL   C43841586   5.003   5.803   1.518 -0.0435  0.6084 -0.0882
   55MOL   C43941587   4.954   5.707   1.610  0.4062  0.1347 -0.7922
   55MOL   H44041588   4.950   5.154   1.950 -0.1329 -1.2641  0.0991
   55MOL   H44141589   4.805   5.135   1.847  0.2423  0.2375  2.0926
   55MOL   H44241590   4.943   4.974   1.702  2.4402 -1.2039 -0.7451
   55MOL   H44341591   4.960   4.922   1.854  0.6831 -1.4129 -2.2647
   55MOL   H44441592   5.173   5.063   1.870  0.5098  1.5365 -0.6633
   55MOL   H44541593   5.197   4.887   1.634  2.1919  1.6773 -0.4487
   55MOL   H44641594   5.165   4.818   1.791  2.3325 -1.2951  1.1134
   55MOL   H44741595   5.077   5.127   1.601 -1.0959  2.8387 -0.3652
   55MOL   H44841596   5.246   5.154   1.640  0.3184  2.1389  0.7271
   55MOL   H44941597   5.150   5.317   1.829 -0.5491  0.3638  0.3935
   55MOL   H45041598   5.105   5.363   1.663 -0.1288 -0.1880 -0.1827
   55MOL   H45141599   4.906   5.251   1.667 -3.2138  1.2868  0.7965
   55MOL   H45241600   4.901   5.415   1.932 -1.5184  0.3127  0.3155
   55MOL   H45341601   4.767   5.365   1.842  0.6778 -0.6993 -0.6334
   55MOL   H45441602   4.648   5.664   1.469  0.1259  0.9889 -0.8396
   55MOL   H45541603   4.725   5.832   1.321 -1.0130 -2.0132  0.6573
   55MOL   H45641604   5.098   5.852   1.537  1.6988 -2.2089 -1.2744
   55MOL   H45741605   5.012   5.665   1.691  0.4500  1.8568  0.1149
   55MOL   C45841606   5.544   6.138   1.159  0.5435 -0.0102  0.0017
   55MOL   C45941607   5.392   6.149   1.171 -1.4589 -0.1583  0.4493
   55MOL   C46041608   5.326   6.022   1.220 -0.2163 -0.9445 -0.7134
   55MOL   C46141609   5.174   6.046   1.239 -0.1050 -0.4804  0.0503
   55MOL   C46241610   5.363   5.905   1.139 -0.1942 -0.1323  0.5311
   55MOL   C46341611   5.514   5.889   1.117 -0.0208 -0.2080  0.5884
   55MOL   C46441612   5.588   6.018   1.073 -0.3072  0.6549  0.3846
   55MOL   C46541613   5.742   6.013   1.072  0.0292  0.1447 -0.6159
   55MOL   O46641614   5.786   5.911   0.989  0.2551  0.3777  0.0107
   55MOL   C46741615   5.914   5.892   0.961  0.3969 -0.2621  0.9784
   55MOL   O46841616   6.002   5.967   0.994 -0.0945  0.7707  0.1791
   55MOL   C46941617   5.935   5.770   0.880  0.2792 -0.3106  0.2427
   55MOL   C47041618   6.064   5.714   0.864  0.3431 -0.0408 -0.5687
   55MOL   C47141619   6.084   5.610   0.778  0.0016  0.0331 -0.2339
   55MOL   C47241620   5.984   5.580   0.685  0.1738  0.1159 -0.6792
   55MOL   C47341621   5.999   5.487   0.570 -0.4535  0.1505 -0.3105
   55MOL   O47441622   6.095   5.403   0.557  0.2100 -0.1091 -0.0273
   55MOL   O47541623   5.906   5.493   0.473  0.4566 -0.3478 -0.5482
   55MOL   C47641624   5.857   5.629   0.703 -0.5931 -0.1601 -0.1835
   55MOL   C47741625   5.829   5.720   0.805 -0.1275  0.6033 -0.1937
   55MOL   H47841626   5.588   6.136   1.259 -0.4941 -1.0188  0.4444
   55MOL   H47941627   5.577   6.226   1.104  0.9147 -0.2549 -0.1699
   55MOL   H48041628   5.354   6.175   1.073 -2.4143 -0.1763  0.8104
   55MOL   H48141629   5.373   6.227   1.245 -2.0280 -0.7431  0.9254
   55MOL   H48241630   5.372   5.995   1.315 -0.5668 -0.4393 -0.3993
   55MOL   H48341631   5.127   6.066   1.143 -0.7834  0.6904  0.6104
   55MOL   H48441632   5.170   6.148   1.278 -2.8370 -0.3885 -0.3441
   55MOL   H48541633   5.318   5.923   1.041 -1.8352  0.6332  1.4072
   55MOL   H48641634   5.330   5.811   1.182  3.1525 -1.1871  0.9272
   55MOL   H48741635   5.559   5.856   1.211 -2.3273 -1.4668  1.2777
   55MOL   H48841636   5.539   5.801   1.058 -1.1345  0.3660 -0.7467
   55MOL   H48941637   5.558   6.032   0.969 -3.1878 -1.8369  0.8021
   55MOL   H49041638   5.775   5.998   1.175  1.6009 -1.1827 -1.2820
   55MOL   H49141639   5.793   6.109   1.059  0.8677 -0.1629  0.2573
   55MOL   H49241640   6.150   5.756   0.914  0.5088  0.8142 -1.5446
   55MOL   H49341641   6.181   5.566   0.761  1.4439  2.3588  1.5253
   55MOL   H49441642   5.771   5.606   0.641 -0.3426  0.5497 -0.8010
   55MOL   H49541643   5.727   5.756   0.806 -1.3063 -2.6368 -0.1040
   55MOL   C49641644   5.690   5.298   0.072  0.0760 -0.0800  0.1158
   55MOL   C49741645   5.808   5.296   0.164  0.2604 -0.7112  0.4648
   55MOL   C49841646   5.791   5.413   0.264 -0.0208 -0.4372  0.1779
   55MOL   C49941647   5.924   5.431   0.350  0.3466  0.5109  0.3797
   55MOL   C50041648   5.774   5.550   0.190  0.1326  0.1482 -0.1406
   55MOL   C50141649   5.666   5.544   0.075  0.7222  0.4220 -0.7420
   55MOL   C50241650   5.697   5.426   8.020  0.0535  0.3553  0.4487
   55MOL   C50341651   5.615   5.415   7.890 -0.6522 -0.3892  0.2023
   55MOL   O50441652   5.624   5.518   7.793 -0.3441 -0.5129  0.0123
   55MOL   C50541653   5.719   5.526   7.710  0.0794 -0.8407 -0.3551
   55MOL   O50641654   5.830   5.469   7.727  0.0331  0.0830  0.6178
   55MOL   C50741655   5.686   5.610   7.590  0.0669 -0.2238  0.3317
   55MOL   C50841656   5.780   5.634   7.490 -0.7007  0.0280 -0.7238
   55MOL   C50941657   5.758   5.700   7.370 -0.3599 -0.0615  0.1913
   55MOL   C51041658   5.631   5.767   7.356  0.4759 -0.1533  0.6124
   55MOL   C51141659   5.598   5.852   7.241 -0.1535 -0.2689 -0.4292
   55MOL   O51241660   5.489   5.906   7.224 -0.0039 -0.2958  0.4375
   55MOL   O51341661   5.704   5.860   7.157  0.0251 -0.0247  0.3827
   55MOL   C51441662   5.537   5.758   7.462 -0.0075 -0.1510  0.9097
   55MOL   C51541663   5.568   5.682   7.573 -0.2018  0.4864  0.7316
   55MOL   H51641664   5.593   5.288   0.120  0.5683 -0.0950  1.1364
   55MOL   H51741665   5.692   5.215   0.002 -1.4831  0.2958 -0.3778
   55MOL   H51841666   5.902   5.312   0.111  0.4139  0.4052  1.0693
   55MOL   H51941667   5.814   5.200   0.215 -0.1340 -0.2279  1.4147
   55MOL   H52041668   5.697   5.406   0.319  0.2813  0.1015  0.7534
   55MOL   H52141669   5.994   5.485   0.287 -0.1247  0.5292 -0.1311
   55MOL   H52241670   5.971   5.334   0.364 -0.1217  0.1942 -0.2001
   55MOL   H52341671   5.869   5.588   0.152  0.4227  0.6950  1.0971
   55MOL   H52441672   5.755   5.635   0.256  0.9069  0.4180 -0.2633
   55MOL   H52541673   5.572   5.525   0.126  1.8591  0.1085  1.3231
   55MOL   H52641674   5.675   5.639   0.023 -0.0203  1.4162  0.8984
   55MOL   H52741675   5.797   5.437   7.977 -1.0681 -1.5596 -2.8800
   55MOL   H52841676   5.512   5.389   7.913 -0.3677 -0.1485  1.8079
   55MOL   H52941677   5.660   5.329   7.841 -0.3124 -0.1008  0.0081
   55MOL   H53041678   5.876   5.586   7.499 -0.1707  0.7939 -2.1698
   55MOL   H53141679   5.816   5.701   7.278 -2.2693  1.8636 -1.0314
   55MOL   H53241680   5.440   5.805   7.468  0.5102  1.5933 -2.6114
   55MOL   H53341681   5.499   5.677   7.656 -2.8587 -1.8704 -1.4771
   55MOL   C53441682   6.020   6.029   6.862  0.1839  0.3436 -0.2354
   55MOL   C53541683   5.904   6.028   6.970  0.4691  0.0143  0.5782
   55MOL   C53641684   5.787   5.929   6.944  0.8553  0.2592  0.4523
   55MOL   C53741685   5.677   5.941   7.051 -0.4858 -0.0203  0.3477
   55MOL   C53841686   5.747   5.948   6.794  0.0759 -0.1652  0.2927
   55MOL   C53941687   5.855   5.926   6.689  1.1071  0.0818 -1.2757
   55MOL   C54041688   5.971   6.022   6.713  0.1389 -0.5573  0.1535
   55MOL   C54141689   6.092   6.006   6.619  0.5096 -0.0383  0.8949
   55MOL   O54241690   6.039   5.977   6.493  0.2303 -0.0850 -0.1387
   55MOL   C54341691   5.994   6.072   6.416 -0.4529 -0.5937  0.0840
   55MOL   O54441692   6.020   6.193   6.442  0.1329 -0.2587  0.2465
   55MOL   C54541693   5.898   6.023   6.309 -0.0373 -0.4589  0.0991
   55MOL   C54641694   5.825   6.119   6.240  0.1748  0.2439  0.1729
   55MOL   C54741695   5.721   6.075   6.153  0.0523  0.0628 -0.6070
   55MOL   C54841696   5.688   5.936   6.145  0.9210 -0.2861  0.3393
   55MOL   C54941697   5.584   5.892   6.044  0.7414  0.3052  0.6587
   55MOL   O55041698   5.564   5.781   6.007  0.3797  0.2386  0.3220
   55MOL   O55141699   5.542   6.000   5.981 -0.0869 -0.7221 -0.1397
   55MOL   C55241700   5.751   5.846   6.235  0.1147 -0.1013 -0.7197
   55MOL   C55341701   5.864   5.889   6.304 -0.1766 -0.0636 -0.6195
   55MOL   H55441702   6.087   5.945   6.883  0.1182  0.0548 -1.1549
   55MOL   H55541703   6.079   6.118   6.882  0.5231  0.2889 -0.9762
   55MOL   H55641704   5.859   6.127   6.978 -0.7928 -0.0596 -4.1118
   55MOL   H55741705   5.960   6.018   7.063  0.5590  1.1607  0.6545
   55MOL   H55841706   5.822   5.827   6.939 -1.2409 -0.4536 -0.3150
   55MOL   H55941707   5.589   5.904   6.998 -0.2995 -0.6662  0.4882
   55MOL   H56041708   5.658   6.044   7.078 -2.5486 -0.4359  0.5700
   55MOL   H56141709   5.698   6.042   6.771 -0.7624 -0.6366  0.1430
   55MOL   H56241710   5.666   5.880   6.768  1.0066 -0.6524 -1.4433
   55MOL   H56341711   5.895   5.825   6.695 -1.0922 -0.6720  2.8238
   55MOL   H56441712   5.819   5.935   6.586 -1.8200 -3.0302 -0.6225
   55MOL   H56541713   5.938   6.126   6.705  1.3955 -0.1880 -0.3613
   55MOL   H56641714   6.163   5.931   6.656 -0.6803 -0.3309  2.6685
   55MOL   H56741715   6.150   6.098   6.609 -0.9485  0.6932 -1.1031
   55MOL   H56841716   5.863   6.219   6.248  1.9847 -0.3478 -0.7211
   55MOL   H56941717   5.661   6.149   6.101  1.2407  1.6242  0.1753
   55MOL   H57041718   5.732   5.740   6.247 -1.0085  0.1211 -0.5285
   55MOL   H57141719   5.923   5.814   6.354  1.3627  1.6719  0.2320
   55MOL   C57241720   5.124   6.100   5.955 -0.5620 -0.3573  0.6045
   55MOL   C57341721   5.279   6.102   5.947  0.7870 -0.1266 -0.3983
   55MOL   C57441722   5.327   5.984   5.868 -0.1075 -0.0261  0.1598
   55MOL   C57541723   5.486   5.989   5.855 -0.0648 -0.5962 -0.1299
   55MOL   C57641724   5.268   5.853   5.933 -0.1274 -0.0306 -1.5659
   55MOL   C57741725   5.114   5.849   5.944  0.1593 -0.1329  0.1575
   55MOL   C57841726   5.065   5.973   6.015  0.2455  0.1457  0.7282
   55MOL   C57941727   4.914   5.984   6.016  0.3185 -0.0432 -0.4219
   55MOL   O58041728   4.861   5.867   6.080  0.0661 -0.0018 -0.1825
   55MOL   C58141729   4.732   5.855   6.112 -0.0986 -0.1336 -0.9125
   55MOL   O58241730   4.650   5.937   6.082  0.1837  0.2662  0.3811
   55MOL   C58341731   4.701   5.737   6.198 -0.4173  0.2683 -0.0860
   55MOL   C58441732   4.570   5.726   6.253 -0.7429  0.2317  0.0845
   55MOL   C58541733   4.538   5.627   6.342  0.4102 -0.0503 -0.0391
   55MOL   C58641734   4.634   5.530   6.388 -0.3984  0.1911  0.1040
   55MOL   C58741735   4.600   5.415   6.480 -0.0135 -0.6442  0.2075
   55MOL   O58841736   4.673   5.320   6.497 -0.0835  0.4419  0.2247
   55MOL   O58941737   4.480   5.439   6.553 -0.5366  0.0426  0.3258
   55MOL   C59041738   4.765   5.542   6.338  0.4853 -0.8871 -0.0383
   55MOL   C59141739   4.798   5.641   6.244  0.5089  0.0890 -0.7771
   55MOL   H59241740   5.087   6.125   5.855 -0.1087 -0.1213  0.4946
   55MOL   H59341741   5.086   6.188   6.006  0.1441  1.4140 -1.8310
   55MOL   H59441742   5.318   6.102   6.048 -0.1901  1.2270 -0.0071
   55MOL   H59541743   5.300   6.196   5.896  0.3831 -1.0074 -2.2265
   55MOL   H59641744   5.283   5.979   5.769 -0.3852 -1.4165  0.3435
   55MOL   H59741745   5.512   6.081   5.802 -2.0784 -0.3912 -0.8046
   55MOL   H59841746   5.519   5.907   5.790  2.0295 -1.4152  1.9027
   55MOL   H59941747   5.313   5.845   6.032  0.4219 -0.4519 -1.8469
   55MOL   H60041748   5.313   5.765   5.886 -0.2472 -0.2186 -1.3290
   55MOL   H60141749   5.075   5.835   5.843 -1.6271  3.4305  0.3069
   55MOL   H60241750   5.089   5.762   6.004  2.4245 -0.0258  1.3134
   55MOL   H60341751   5.103   5.962   6.117  0.9408  0.3672  0.4944
   55MOL   H60441752   4.879   5.980   5.912  0.6436 -1.4868 -0.4963
   55MOL   H60541753   4.877   6.078   6.055 -0.0037  0.4719 -1.9375
   55MOL   H60641754   4.495   5.800   6.227 -0.9140 -0.5145 -1.6197
   55MOL   H60741755   4.438   5.630   6.381  0.7847 -1.0141  1.0239
   55MOL   H60841756   4.839   5.471   6.372  0.1444  0.4922  3.7251
   55MOL   H60941757   4.898   5.656   6.207  1.6578  0.6401  2.4259
   55MOL   C61041758   4.418   5.572   6.952  0.3863 -0.4784  0.0086
   55MOL   C61141759   4.401   5.535   6.800 -0.1013  0.6593 -0.6113
   55MOL   C61241760   4.441   5.387   6.785 -0.1633  0.4230  0.1304
   55MOL   C61341761   4.416   5.343   6.637 -0.5684 -0.4894 -1.3024
   55MOL   C61441762   4.587   5.360   6.834  0.0787  0.1080 -0.3539
   55MOL   C61541763   4.609   5.417   6.969  0.3908 -0.5409  1.1035
   55MOL   C61641764   4.562   5.560   6.997 -1.0587 -0.5321 -0.0170
   55MOL   C61741765   4.563   5.593   7.152  0.0893 -0.5501 -0.0669
   55MOL   O61841766   4.538   5.730   7.188  0.3545  0.0275  0.2380
   55MOL   C61941767   4.624   5.823   7.142  0.0786  0.5145 -0.3659
   55MOL   O62041768   4.733   5.795   7.086  0.4676  0.1964  0.0784
   55MOL   C62141769   4.590   5.961   7.190  0.7949  0.2228  0.1665
   55MOL   C62241770   4.480   5.990   7.277  0.5535  0.1781 -0.0619
   55MOL   C62341771   4.436   6.122   7.291  0.3856  0.3991 -0.2855
   55MOL   C62441772   4.503   6.232   7.232  0.7252 -0.0368 -1.1952
   55MOL   C62541773   4.469   6.380   7.249  0.0616  0.0145 -0.3508
   55MOL   O62641774   4.525   6.468   7.190 -0.1721 -0.6221 -0.1393
   55MOL   O62741775   4.365   6.399   7.328  0.2948  0.2236  0.4846
   55MOL   C62841776   4.612   6.205   7.148 -0.1299  0.2752 -0.6368
   55MOL   C62941777   4.653   6.075   7.127  0.4552  0.1343  0.0896
   55MOL   H63041778   4.351   5.507   7.007  0.8448 -0.1912  0.9228
   55MOL   H63141779   4.387   5.675   6.973  2.6052 -0.3492  3.0817
   55MOL   H63241780   4.464   5.608   6.747  1.7375  0.0367  0.6746
   55MOL   H63341781   4.295   5.545   6.777  0.1151  1.4880 -1.3106
   55MOL   H63441782   4.377   5.320   6.843  0.2824 -0.5642 -0.5104
   55MOL   H63541783   4.310   5.365   6.626 -0.8482 -2.1227 -2.1246
   55MOL   H63641784   4.426   5.236   6.616 -0.4045 -0.2080 -2.7541
   55MOL   H63741785   4.654   5.414   6.767  1.4604 -1.2307 -0.0561
   55MOL   H63841786   4.615   5.255   6.842 -1.4529 -0.2752  0.2262
   55MOL   H63941787   4.568   5.345   7.040 -3.1815 -1.3740 -1.6293
   55MOL   H64041788   4.716   5.429   6.983  0.2811  1.8228  0.2057
   55MOL   H64141789   4.625   5.620   6.932  0.1960  0.7198  2.3428
   55MOL   H64241790   4.659   5.568   7.197 -0.0064  0.4058  0.6752
   55MOL   H64341791   4.485   5.537   7.204  0.4026  0.5537  1.6042
   55MOL   H64441792   4.428   5.907   7.323 -0.8995  1.2097  0.2046
   55MOL   H64541793   4.345   6.136   7.346  0.6073  2.3486 -0.4058
   55MOL   H64641794   4.665   6.286   7.101 -1.8419  0.3564 -2.4871
   55MOL   H64741795   4.731   6.050   7.057 -2.2150 -0.5064 -2.7162
   55MOL   C64841796   4.516   6.824   7.492 -0.0489 -0.1968 -0.0127
   55MOL   C64941797   4.479   6.721   7.383  0.3264 -0.3836  0.6594
   55MOL   C65041798   4.365   6.627   7.449 -0.0944  0.0685  0.3355
   55MOL   C65141799   4.304   6.528   7.348 -0.5918  0.4424 -0.3506
   55MOL   C65241800   4.415   6.557   7.574  0.1496 -0.2024  0.2611
   55MOL   C65341801   4.489   6.648   7.672 -0.5405 -0.0457 -0.7366
   55MOL   C65441802   4.581   6.758   7.619  0.4900  0.1917  0.2701
   55MOL   C65541803   4.618   6.869   7.728 -0.6093 -0.8078  0.1625
   55MOL   O65641804   4.507   6.941   7.772 -0.4796  0.1753 -0.1378
   55MOL   C65741805   4.478   7.056   7.717 -0.1081 -0.4651 -0.1507
   55MOL   O65841806   4.542   7.105   7.620  0.0888  0.1366 -0.4686
   55MOL   C65941807   4.360   7.127   7.778 -0.0818 -0.5232 -0.4070
   55MOL   C66041808   4.330   7.259   7.740 -0.2328 -0.0574  0.7131
   55MOL   C66141809   4.227   7.337   7.797  0.4465 -0.1325  0.2137
   55MOL   C66241810   4.142   7.266   7.886 -0.1192  0.0910 -0.0496
   55MOL   C66341811   4.032   7.350   7.942  0.7282  1.0198 -0.7516
   55MOL   O66441812   3.920   7.302   7.943 -0.0289  0.3260  0.2878
   55MOL   O66541813   4.074   7.477   7.967  0.0613 -0.3395  0.8895
   55MOL   C66641814   4.161   7.133   7.919  0.2052 -0.6834 -0.1343
   55MOL   C66741815   4.274   7.059   7.867 -0.9031 -0.6328 -0.7034
   55MOL   H66841816   4.422   6.876   7.510  0.2573 -0.3104  1.9938
   55MOL   H66941817   4.581   6.894   7.440 -2.1878  2.6958  1.0996
   55MOL   H67041818   4.559   6.660   7.342 -0.5292 -0.6516 -0.6187
   55MOL   H67141819   4.441   6.764   7.290  1.0887  1.2196  1.0600
   55MOL   H67241820   4.284   6.689   7.485  0.7307  0.7034  1.1096
   55MOL   H67341821   4.282   6.580   7.255 -0.2575  1.4066  0.0952
   55MOL   H67441822   4.204   6.506   7.385  0.1287 -2.9577 -0.3179
   55MOL   H67541823   4.469   6.464   7.558 -1.1339 -1.1019  1.0400
   55MOL   H67641824   4.323   6.528   7.624 -0.0560  0.6883  0.4040
   55MOL   H67741825   4.402   6.684   7.726  0.1309  0.4459  0.0440
   55MOL   H67841826   4.537   6.597   7.756  0.5317 -0.6387 -1.6857
   55MOL   H67941827   4.676   6.707   7.601 -0.7601 -1.7390 -1.0469
   55MOL   H68041828   4.693   6.938   7.691 -2.2154  1.0087  0.2371
   55MOL   H68141829   4.667   6.823   7.814  1.7009  1.4472  0.1108
   55MOL   H68241830   4.394   7.306   7.667  0.9711  0.4697  2.0694
   55MOL   H68341831   4.214   7.443   7.780 -2.4791 -0.3832  0.6415
   55MOL   H68441832   4.105   7.079   7.994  1.1284 -2.0423 -0.3898
   55MOL   H68541833   4.292   6.956   7.893 -2.4121 -0.5912  0.5640
   55MOL   C68641834   3.898   7.893   7.735 -0.5514  0.3235 -0.2487
   55MOL   C68741835   3.888   7.793   7.852  0.6434  0.6098  0.6490
   55MOL   C68841836   3.996   7.683   7.838 -0.0309  0.1858 -0.1640
   55MOL   C68941837   3.977   7.581   7.958  0.1842 -0.4921  0.2609
   55MOL   C69041838   3.980   7.606   7.701 -0.1564  0.4506 -0.2702
   55MOL   C69141839   3.975   7.701   7.580 -0.6606  0.2977  0.1791
   55MOL   C69241840   3.874   7.818   7.603  0.2163  0.2750  0.2084
   55MOL   C69341841   3.873   7.914   7.486  0.3765  0.3705  0.0365
   55MOL   O69441842   3.832   7.831   7.380  0.0145  0.8685  0.5714
   55MOL   C69541843   3.866   7.862   7.260  0.5193  0.0510  1.2572
   55MOL   O69641844   3.932   7.964   7.236 -0.4004 -0.1808 -0.2368
   55MOL   C69741845   3.806   7.773   7.154  0.3488 -1.1205 -0.2152
   55MOL   C69841846   3.775   7.821   7.023  0.0505 -0.5634  0.1572
   55MOL   C69941847   3.729   7.736   6.922  0.5576 -0.3898 -0.0759
   55MOL   C70041848   3.697   7.602   6.946  1.0868  0.4289  0.5922
   55MOL   C70141849   3.641   7.510   6.845  0.0765  0.4798  0.5456
   55MOL   O70241850   3.641   7.529   6.727  0.6712  0.3255 -0.2173
   55MOL   O70341851   3.587   7.401   6.900 -0.1761 -0.9220  0.2959
   55MOL   C70441852   3.722   7.552   7.077  0.6297  0.1630 -0.1969
   55MOL   C70541853   3.781   7.636   7.175 -0.9886  0.0773 -0.3354
   55MOL   H70641854   3.999   7.936   7.740 -1.2977  2.3397 -1.8905
   55MOL   H70741855   3.837   7.980   7.758 -0.7609  0.5284 -1.5463
   55MOL   H70841856   3.790   7.746   7.865  0.7804  0.0202 -0.3893
   55MOL   H70941857   3.900   7.848   7.945  2.1110  0.4379  0.5640
   55MOL   H71041858   4.098   7.722   7.842 -0.1723  0.4766  0.6683
   55MOL   H71141859   3.875   7.544   7.968 -0.4153  0.7408 -1.1115
   55MOL   H71241860   3.986   7.642   0.016 -2.3348  0.5371 -0.1435
   55MOL   H71341861   3.895   7.538   7.708 -0.9322  1.4684  0.2562
   55MOL   H71441862   4.054   7.528   7.681 -0.9564  0.1089 -1.9794
   55MOL   H71541863   4.077   7.736   7.564 -0.7630  0.3674 -0.3236
   55MOL   H71641864   3.957   7.627   7.502  1.2381 -0.3173  0.3007
   55MOL   H71741865   3.780   7.763   7.606  0.3852 -0.2174 -2.2445
   55MOL   H71841866   3.977   7.944   7.475  0.6818 -0.6892 -0.0043
   55MOL   H71941867   3.803   7.997   7.484 -0.0722  0.1863  4.1422
   55MOL   H72041868   3.797   7.926   7.010 -1.5781 -0.1088  0.9897
   55MOL   H72141869   3.716   7.779   6.824 -0.2813  2.5747  1.2808
   55MOL   H72241870   3.704   7.448   7.099 -1.7363  0.8565  1.2883
   55MOL   H72341871   3.803   7.608   7.278  3.0270  0.3430 -1.0142
   55MOL   C72441872   3.472   7.021   7.090  0.4204 -0.0984 -0.2524
   55MOL   C72541873   3.550   7.124   7.011 -0.3810 -0.1491  0.8776
   55MOL   C72641874   3.465   7.188   6.901  0.1009  0.1247  0.0244
   55MOL   C72741875   3.552   7.293   6.813  0.0028 -0.9185 -0.0694
   55MOL   C72841876   3.413   7.082   6.796  0.7047  0.3737  0.2187
   55MOL   C72941877   3.341   6.976   6.878 -0.5340  0.3292  0.8332
   55MOL   C73041878   3.418   6.910   6.995  0.0548  0.5046  0.3612
   55MOL   C73141879   3.352   6.794   7.067  0.5330 -0.0654 -0.1727
   55MOL   O73241880   3.442   6.720   7.147 -0.0019  0.1433  0.1887
   55MOL   C73341881   3.481   6.589   7.117 -0.3761  1.1772 -0.1120
   55MOL   O73441882   3.416   6.508   7.048 -0.2711 -0.1947 -0.5570
   55MOL   C73541883   3.610   6.542   7.189  1.0687  0.0807  0.5289
   55MOL   C73641884   3.675   6.620   7.288  0.0417  0.2413 -0.3992
   55MOL   C73741885   3.786   6.562   7.364  0.0020 -0.0342 -1.3202
   55MOL   C73841886   3.831   6.432   7.339  0.3638  0.2415  0.4771
   55MOL   C73941887   3.937   6.371   7.427  0.3162  0.1336 -1.0965
   55MOL   O74041888   3.987   6.427   7.533  0.8294  0.5577 -0.5113
   55MOL   O74141889   3.982   6.252   7.382 -0.5116 -0.0695  0.0264
   55MOL   C74241890   3.773   6.361   7.234  0.0835 -0.0306 -0.3753
   55MOL   C74341891   3.664   6.415   7.157 -0.7033  0.2934 -0.5329
   55MOL   H74441892   3.398   7.075   7.149  0.0430  1.4864 -2.1318
   55MOL   H74541893   3.527   6.960   7.163 -0.9348 -1.2680 -0.1815
   55MOL   H74641894   3.647   7.094   6.969  0.0571 -0.7077  2.2439
   55MOL   H74741895   3.576   7.187   7.096  0.4084 -0.9893  1.2729
   55MOL   H74841896   3.380   7.248   6.936 -0.4971 -0.7940  0.1654
   55MOL   H74941897   3.485   7.326   6.733  2.4729  1.3876 -1.2945
   55MOL   H75041898   3.642   7.254   6.766  0.5764 -0.5429  0.7067
   55MOL   H75141899   3.491   7.031   6.741  2.5357  2.4524  0.7965
   55MOL   H75241900   3.351   7.140   6.727  0.7679 -1.6597 -1.5913
   55MOL   H75341901   3.249   7.023   6.913  0.3569  1.8289  1.2165
   55MOL   H75441902   3.310   6.899   6.807  1.0980  2.0340 -1.8215
   55MOL   H75541903   3.505   6.866   6.947 -0.7274 -1.8198  0.9662
   55MOL   H75641904   3.316   6.732   6.985 -0.6510  1.6809 -1.0060
   55MOL   H75741905   3.263   6.834   7.116 -0.9015 -1.3769 -1.6735
   55MOL   H75841906   3.643   6.721   7.309  1.7331  0.7911 -0.4049
   55MOL   H75941907   3.834   6.626   7.436 -0.6058  0.3012 -1.2059
   55MOL   H76041908   3.794   6.258   7.211  0.9219 -0.0386  0.4094
   55MOL   H76141909   3.617   6.350   7.085  0.9541 -0.4325 -0.9996
   55MOL   H76241910   4.057   6.236   7.437 -0.0680  0.2353 -0.4790
   56MOL     C141911   1.009   3.562   5.836  0.6739 -1.0889  0.2904
   56MOL     C241912   0.860   3.528   5.848  0.5683  0.9303  0.3487
   56MOL     C341913   0.777   3.653   5.866 -0.9193 -0.1744  0.0052
   56MOL     C441914   0.630   3.619   5.891  0.3742  0.0683  0.6395
   56MOL     C541915   0.831   3.725   5.997 -0.0562  0.3817 -0.3389
   56MOL     C641916   0.981   3.759   5.981  0.3133  0.2344  0.1232
   56MOL     C741917   1.066   3.635   5.961 -0.4740 -0.3619 -0.0628
   56MOL     C841918   1.215   3.664   5.969 -0.3449 -0.4235 -0.1810
   56MOL     O941919   1.255   3.761   5.875 -0.4361  0.1694 -0.3745
   56MOL    C1041920   1.305   3.723   5.762  0.1571 -0.6534  0.3979
   56MOL    O1141921   1.316   3.610   5.724 -0.1245  0.7970  0.1682
   56MOL    C1241922   1.359   3.844   5.682 -0.0486  0.4871 -0.0778
   56MOL    C1341923   1.408   3.834   5.548  0.5691 -0.5375 -0.9791
   56MOL    C1441924   1.465   3.943   5.482 -0.1502 -0.2793 -0.5551
   56MOL    C1541925   1.468   4.069   5.544  0.2772 -0.6798 -0.4687
   56MOL    C1641926   1.529   4.190   5.478 -0.5916  0.1148 -0.6765
   56MOL    O1741927   1.535   4.299   5.540 -0.2473  0.2884  0.0131
   56MOL    O1841928   1.587   4.153   5.353 -0.2330 -0.1364  0.0477
   56MOL    C1941929   1.411   4.087   5.677 -0.9328 -0.5474  0.5231
   56MOL    C2041930   1.356   3.973   5.738  0.6184  0.2869  0.0433
   56MOL    H2141931   1.029   3.626   5.750 -1.6998 -0.8654 -0.1319
   56MOL    H2241932   1.067   3.474   5.808  0.8949 -0.3740 -1.5773
   56MOL    H2341933   0.833   3.466   5.934 -1.1796 -0.6127 -1.2401
   56MOL    H2441934   0.826   3.478   5.757  2.7916  0.7966 -0.4365
   56MOL    H2541935   0.802   3.709   5.775  0.2000  0.5308  0.7307
   56MOL    H2641936   0.583   3.569   5.806  2.0639 -0.6449  0.1099
   56MOL    H2741937   0.571   3.709   5.910 -1.1398 -0.7901  0.1480
   56MOL    H2841938   0.825   3.653   6.079  1.2289 -0.0764 -0.6359
   56MOL    H2941939   0.769   3.810   6.026  0.7574  1.4086 -1.5389
   56MOL    H3041940   1.000   3.820   5.893 -1.4097 -2.1877 -1.9805
   56MOL    H3141941   1.027   3.807   6.068  1.9423 -0.2027 -0.4856
   56MOL    H3241942   1.056   3.565   6.043 -0.7067 -0.4901 -0.2030
   56MOL    H3341943   1.274   3.573   5.970 -0.3832 -0.4431  0.8372
   56MOL    H3441944   1.223   3.726   6.058  1.3011 -0.4225 -0.3224
   56MOL    H3541945   1.405   3.737   5.500  1.8537 -0.7363 -0.6546
   56MOL    H3641946   1.499   3.926   5.381 -1.4059 -0.5646 -0.9411
   56MOL    H3741947   1.416   4.177   5.736  1.0747 -0.0738 -0.3147
   56MOL    H3841948   1.313   3.991   5.835 -0.5804  0.2970 -0.4745
   56MOL    H3941949   0.618   3.559   5.982 -1.6293  1.1025  1.0902
   56MOL    C4041950   1.923   3.988   5.109  0.0301  0.1984 -0.5865
   56MOL    C4141951   1.787   4.047   5.155 -0.0969 -0.1675 -0.2023
   56MOL    C4241952   1.805   4.169   5.253  0.1771  0.3283  1.1647
   56MOL    C4341953   1.672   4.244   5.284 -0.2599 -0.0019  0.7803
   56MOL    C4441954   1.898   4.135   5.368 -0.2498  0.3611 -0.0744
   56MOL    C4541955   2.025   4.058   5.320 -0.6012 -0.1408 -0.0606
   56MOL    C4641956   2.003   3.939   5.225 -0.6591  0.1296  0.9362
   56MOL    C4741957   2.131   3.877   5.174 -0.6277 -0.0972 -0.3587
   56MOL    O4841958   2.226   3.965   5.135 -0.6448 -0.2795 -0.2784
   56MOL    C4941959   2.259   3.981   4.999  0.7790  0.2504 -0.0155
   56MOL    O5041960   2.205   3.924   4.903  0.2193 -0.2863 -0.0328
   56MOL    C5141961   2.358   4.083   4.978  0.6316 -0.0293  0.0198
   56MOL    C5241962   2.433   4.142   5.084  0.2716  0.2788  0.6253
   56MOL    C5341963   2.539   4.231   5.056 -0.3395 -0.7040 -1.1685
   56MOL    C5441964   2.584   4.256   4.927  0.1073  0.1921  0.1265
   56MOL    C5541965   2.702   4.354   4.900 -0.7576  0.2360 -0.4182
   56MOL    O5641966   2.727   4.394   4.787 -0.2722 -0.1820  0.5641
   56MOL    O5741967   2.769   4.372   5.003 -0.0513 -0.1147  0.0796
   56MOL    C5841968   2.515   4.198   4.818  0.1512  0.6256 -0.4612
   56MOL    C5941969   2.405   4.108   4.842  0.2692 -0.1701  0.1012
   56MOL    H6041970   1.982   4.058   5.051  0.4754  1.5634  1.4822
   56MOL    H6141971   1.901   3.904   5.042  0.7437  0.3407 -1.0078
   56MOL    H6241972   1.725   3.966   5.193  0.1338 -0.2481  0.0056
   56MOL    H6341973   1.735   4.083   5.066 -0.1301 -0.0259 -0.1243
   56MOL    H6441974   1.862   4.234   5.187 -0.9951 -0.3149 -0.5270
   56MOL    H6541975   1.617   4.271   5.194  3.3004  1.5607 -1.0393
   56MOL    H6641976   1.691   4.338   5.336 -0.5296 -0.6766  2.1302
   56MOL    H6741977   1.860   4.064   5.442 -0.9446  0.8881  0.0828
   56MOL    H6841978   1.944   4.223   5.413  2.6347 -1.3161  0.3863
   56MOL    H6941979   2.087   4.132   5.269 -0.1540 -2.5677 -3.2225
   56MOL    H7041980   2.071   4.025   5.412 -1.4643  1.1660  0.8572
   56MOL    H7141981   1.944   3.859   5.270 -0.5947 -0.9875 -0.9278
   56MOL    H7241982   2.113   3.805   5.093 -1.1145 -2.1307  1.4905
   56MOL    H7341983   2.173   3.814   5.252  0.6090  1.6133  0.3699
   56MOL    H7441984   2.401   4.125   5.185  1.1869  1.1380  1.0686
   56MOL    H7541985   2.577   4.287   5.140 -0.8229 -2.0892  0.0040
   56MOL    H7641986   2.540   4.231   4.718 -1.5043  1.4861 -0.6100
   56MOL    H7741987   2.350   4.068   4.759 -1.9108  0.1101  1.3910
   56MOL    C7841988   2.958   4.805   4.885  0.8651 -0.0899  0.3147
   56MOL    C7941989   2.954   4.656   4.867  0.7696  0.5720 -0.1544
   56MOL    C8041990   2.904   4.585   4.989 -0.7921  0.1597  1.2437
   56MOL    C8141991   2.903   4.424   4.983 -0.4384 -0.8786  0.3755
   56MOL    C8241992   2.980   4.637   5.113 -0.0303  0.0208  0.6737
   56MOL    C8341993   3.004   4.789   5.121  0.4121 -0.0409 -0.7536
   56MOL    C8441994   3.063   4.845   4.991 -0.1014 -0.2596  0.8550
   56MOL    C8541995   3.084   4.997   5.007  0.1318  0.1862  0.0163
   56MOL    O8641996   3.164   5.026   4.893 -0.3275 -0.1791 -0.1901
   56MOL    C8741997   3.252   5.128   4.888 -0.0934  0.3066 -0.2468
   56MOL    O8841998   3.244   5.211   4.973 -0.4347  0.7676 -0.1490
   56MOL    C8941999   3.337   5.128   4.767 -0.0741 -0.2734 -0.0975
   56MOL    C9042000   3.414   5.242   4.740 -0.8605 -0.4065  0.0611
   56MOL    C9142001   3.497   5.256   4.626 -0.2300  0.5760  0.3940
   56MOL    C9242002   3.504   5.148   4.534 -0.3703  0.0058  0.2091
   56MOL    C9342003   3.598   5.153   4.413 -0.1122 -0.0845  0.2689
   56MOL    O9442004   3.613   5.057   4.339  0.1754 -0.2897  0.0016
   56MOL    O9542005   3.668   5.260   4.396  0.1486 -0.6020  0.2424
   56MOL    C9642006   3.421   5.036   4.563  0.3857  0.5846  0.0684
   56MOL    C9742007   3.336   5.026   4.673  0.0407 -0.1782  0.0526
   56MOL    H9842008   2.858   4.844   4.902 -0.1596 -1.7814 -1.6100
   56MOL    H9942009   2.987   4.851   4.791  0.6455  2.7882  1.5965
   56MOL   H10042010   3.059   4.631   4.849  0.4580 -0.5674 -0.4704
   56MOL   H10142011   2.895   4.623   4.782 -0.1011  1.7523 -0.0104
   56MOL   H10242012   2.801   4.619   5.002 -0.6841  1.7190 -1.5104
   56MOL   H10342013   2.977   4.391   5.055  0.3934  1.0710  0.4468
   56MOL   H10442014   2.945   4.384   4.890  0.1779 -1.1364  0.7669
   56MOL   H10542015   3.075   4.584   5.107 -0.7410 -1.1841 -0.3826
   56MOL   H10642016   2.922   4.612   5.202 -1.1334 -0.7350 -0.2460
   56MOL   H10742017   2.916   4.849   5.143 -1.3160 -2.1137 -1.8874
   56MOL   H10842018   3.075   4.809   5.202  1.6944 -3.2670 -0.9882
   56MOL   H10942019   3.159   4.801   4.963 -0.8636 -0.9306 -0.7662
   56MOL   H11042020   3.131   5.022   5.103  0.6453 -0.4619 -0.0583
   56MOL   H11142021   2.992   5.055   5.001  0.9867  1.7121  1.2717
   56MOL   H11242022   3.424   5.327   4.806 -0.3169  1.4782 -2.4010
   56MOL   H11342023   3.554   5.347   4.619 -1.6485  1.4046 -0.7451
   56MOL   H11442024   3.435   4.952   4.497 -1.5894 -0.4216  0.8964
   56MOL   H11542025   3.290   4.930   4.691 -0.2735 -0.2193 -0.9083
   56MOL   C11642026   3.870   5.645   4.294  0.1736 -0.7802 -0.3966
   56MOL   C11742027   3.776   5.525   4.304 -0.6919 -0.0548 -0.8284
   56MOL   C11842028   3.855   5.398   4.300 -0.2034  0.3545  0.5340
   56MOL   C11942029   3.766   5.272   4.297 -0.1329  0.7128  0.3406
   56MOL   C12042030   3.955   5.394   4.182  0.2859  0.0733  0.1689
   56MOL   C12142031   4.051   5.513   4.191 -0.4111  0.6501  0.1582
   56MOL   C12242032   3.980   5.642   4.184  0.0781  0.0289  0.4366
   56MOL   C12342033   4.071   5.769   4.191 -0.2163 -0.0845 -0.5637
   56MOL   O12442034   4.169   5.766   4.292 -0.3334  0.0109  0.2420
   56MOL   C12542035   4.229   5.889   4.312  0.7084  1.3422  0.4878
   56MOL   O12642036   4.215   5.983   4.237  0.1028  0.0842 -0.4113
   56MOL   C12742037   4.317   5.890   4.434  0.1355 -0.0645  0.3909
   56MOL   C12842038   4.368   6.014   4.474  0.3787 -0.3274 -0.0374
   56MOL   C12942039   4.434   6.025   4.592 -0.6391  0.1169  0.1806
   56MOL   C13042040   4.454   5.911   4.672 -0.4406 -0.0182  0.5843
   56MOL   C13142041   4.504   5.926   4.806 -0.8206  0.9184 -0.3618
   56MOL   O13242042   4.584   5.853   4.864  0.0720  0.2503 -0.0750
   56MOL   O13342043   4.461   6.042   4.859  0.0550 -0.0944 -0.4552
   56MOL   C13442044   4.421   5.782   4.625 -0.7455 -0.5102 -0.2002
   56MOL   C13542045   4.343   5.776   4.509  0.4810 -0.0204  0.2355
   56MOL   H13642046   3.928   5.654   4.386 -0.5874 -0.2360  0.0385
   56MOL   H13742047   3.809   5.736   4.297  0.9962 -0.2014 -0.8867
   56MOL   H13842048   3.712   5.531   4.216  0.0666 -0.0973 -1.3894
   56MOL   H13942049   3.713   5.513   4.392 -0.3741 -1.6716 -0.8073
   56MOL   H14042050   3.915   5.392   4.391  2.2306 -0.0298 -1.0505
   56MOL   H14142051   3.835   5.192   4.323  1.7251  2.2319  0.1807
   56MOL   H14242052   3.727   5.253   4.197  0.7467  0.3234  0.0646
   56MOL   H14342053   3.911   5.391   4.082 -0.3044  0.0083  0.4276
   56MOL   H14442054   4.021   5.308   4.192  0.8390  0.6760  1.8544
   56MOL   H14542055   4.091   5.512   4.293 -3.4133  0.4539  1.3760
   56MOL   H14642056   4.136   5.521   4.123  0.2646 -0.4438  0.8569
   56MOL   H14742057   3.936   5.648   4.085  0.5676  0.6099  0.2468
   56MOL   H14842058   3.995   5.847   4.197  0.3151  0.3697  0.2788
   56MOL   H14942059   4.123   5.771   4.095 -0.1569 -0.0261 -0.5300
   56MOL   H15042060   4.350   6.104   4.417  1.5011 -0.1726 -0.1595
   56MOL   H15142061   4.464   6.125   4.620 -1.2877  0.9322 -1.8928
   56MOL   H15242062   4.432   5.698   4.692 -0.0545 -2.8174 -3.0965
   56MOL   H15342063   4.308   5.677   4.482 -0.4570  0.6025 -0.8980
   56MOL   C15442064   4.305   5.890   5.277  0.2876 -0.4515  0.1721
   56MOL   C15542065   4.416   5.907   5.167 -0.0955 -0.3046  0.1460
   56MOL   C15642066   4.415   6.050   5.102 -0.0902 -0.1141 -0.5210
   56MOL   C15742067   4.511   6.078   4.983 -0.1552 -0.5131 -0.1803
   56MOL   C15842068   4.277   6.096   5.070 -0.5202  0.1956  0.3431
   56MOL   C15942069   4.173   6.084   5.184 -0.7502  0.0029 -0.4730
   56MOL   C16042070   4.165   5.937   5.237 -0.0601 -0.2863 -0.2093
   56MOL   C16142071   4.060   5.916   5.352  0.4411  0.5455  0.3012
   56MOL   O16242072   3.936   5.874   5.303 -0.5090 -0.5359  0.6251
   56MOL   C16342073   3.836   5.828   5.375 -0.0855 -0.3701 -0.1662
   56MOL   O16442074   3.838   5.852   5.501  0.1397  0.2991  0.2451
   56MOL   C16542075   3.722   5.777   5.298 -0.5584 -0.6013  0.3069
   56MOL   C16642076   3.610   5.717   5.361 -0.4791  0.3183  0.2300
   56MOL   C16742077   3.511   5.654   5.288  0.3782 -0.0957  0.4156
   56MOL   C16842078   3.523   5.651   5.144 -0.2387 -0.2814 -0.4098
   56MOL   C16942079   3.421   5.587   5.052  0.1364 -0.4399 -1.1959
   56MOL   O17042080   3.458   5.542   4.942  0.4466 -0.1453 -0.0070
   56MOL   O17142081   3.297   5.586   5.096  0.2358 -0.4772  0.5213
   56MOL   C17242082   3.623   5.726   5.082 -0.2106 -0.5286 -0.8762
   56MOL   C17342083   3.721   5.788   5.158  0.2622 -1.0284 -0.3934
   56MOL   H17442084   4.336   5.946   5.365 -1.0082  1.8795 -0.8169
   56MOL   H17542085   4.308   5.788   5.315  1.9167 -0.1314  0.9410
   56MOL   H17642086   4.391   5.843   5.082 -1.4312  0.5434 -0.1163
   56MOL   H17742087   4.511   5.879   5.212  0.7343  0.5968 -0.9912
   56MOL   H17842088   4.428   6.120   5.185 -1.3297  0.0273 -0.4304
   56MOL   H17942089   4.613   6.043   5.003  0.5039  1.8317  0.7866
   56MOL   H18042090   4.514   6.187   4.971  1.3838 -0.8749 -3.6796
   56MOL   H18142091   4.232   6.043   4.986 -1.0905 -1.2835  1.5564
   56MOL   H18242092   4.277   6.201   5.040  0.5051  0.1288  0.1039
   56MOL   H18342093   4.200   6.143   5.271 -1.5528  0.8591 -0.7923
   56MOL   H18442094   4.075   6.122   5.154 -1.5417 -2.7877 -1.5681
   56MOL   H18542095   4.148   5.882   5.144  1.7539 -0.6433 -0.3521
   56MOL   H18642096   4.067   6.004   5.416  2.2545 -0.4139  1.5061
   56MOL   H18742097   4.098   5.834   5.414 -1.9883 -0.9264 -0.0976
   56MOL   H18842098   3.598   5.712   5.468  1.2880  0.3392  0.4531
   56MOL   H18942099   3.419   5.610   5.325  0.3192 -1.8995 -1.7747
   56MOL   H19042100   3.633   5.729   4.975  0.6452  1.4093 -0.7718
   56MOL   H19142101   3.806   5.829   5.105 -0.4415 -1.0507 -1.5691
   56MOL   C19242102   2.865   5.352   5.143  0.1612 -0.1067  0.1361
   56MOL   C19342103   2.973   5.396   5.041  0.5080 -0.2104  0.1825
   56MOL   C19442104   3.083   5.481   5.113  0.3823  0.2732 -0.1248
   56MOL   C19542105   3.191   5.522   5.018 -0.1587 -0.1911 -0.3274
   56MOL   C19642106   3.020   5.604   5.173 -0.0554 -0.0488  0.1278
   56MOL   C19742107   2.909   5.564   5.263  0.1879 -0.3920 -0.0256
   56MOL   C19842108   2.798   5.475   5.200 -0.7889 -0.5477  0.7208
   56MOL   C19942109   2.688   5.442   5.295  0.6256 -0.2136 -0.1357
   56MOL   O20042110   2.725   5.411   5.427  0.4208  0.1517 -1.1790
   56MOL   C20142111   2.694   5.285   5.473 -0.5328 -0.5334 -0.2468
   56MOL   O20242112   2.653   5.196   5.400  0.7650 -1.2987  0.1384
   56MOL   C20342113   2.734   5.262   5.615  0.3041 -0.4161  0.3342
   56MOL   C20442114   2.691   5.146   5.674 -0.4766 -0.0088 -0.1334
   56MOL   C20542115   2.707   5.131   5.814  0.1943  0.0297  0.2192
   56MOL   C20642116   2.777   5.221   5.895 -0.3317  0.2360 -0.1359
   56MOL   C20742117   2.795   5.196   6.037  0.1469  0.4198 -0.0945
   56MOL   O20842118   2.873   5.270   6.100  0.5544 -0.0476 -0.6236
   56MOL   O20942119   2.724   5.088   6.087  0.6866 -0.2462 -0.3698
   56MOL   C21042120   2.816   5.343   5.838 -0.5400  0.1090  0.1236
   56MOL   C21142121   2.791   5.363   5.701  0.6658  0.2862 -0.5057
   56MOL   H21242122   2.905   5.289   5.222  2.6261  1.8471  0.5266
   56MOL   H21342123   2.797   5.292   5.083 -0.8886  2.0769 -0.9389
   56MOL   H21442124   2.939   5.447   4.952 -1.4086 -0.3915  0.7813
   56MOL   H21542125   3.010   5.299   5.008 -1.1740 -0.3398 -1.3456
   56MOL   H21642126   3.136   5.423   5.190  0.6434  1.8936  0.9453
   56MOL   H21742127   3.150   5.581   4.937  0.2220 -0.9920 -1.1118
   56MOL   H21842128   3.250   5.450   4.962 -1.7711 -1.9177  0.1379
   56MOL   H21942129   2.982   5.665   5.091 -0.2753  0.2483  0.4488
   56MOL   H22042130   3.098   5.660   5.225  0.2351 -0.6345  0.3248
   56MOL   H22142131   2.949   5.502   5.344  0.0649  0.0895  0.4026
   56MOL   H22242132   2.867   5.652   5.310  3.5031  0.3679  1.6640
   56MOL   H22342133   2.759   5.520   5.109  1.0046  1.3162  0.8299
   56MOL   H22442134   2.615   5.371   5.256 -0.0270 -0.8874  2.2784
   56MOL   H22542135   2.625   5.531   5.308  1.7348  0.2262  2.3609
   56MOL   H22642136   2.627   5.076   5.621 -0.5573  1.7557 -2.4218
   56MOL   H22742137   2.674   5.041   5.862  0.6256 -0.3340 -0.1566
   56MOL   H22842138   2.868   5.422   5.890 -0.6177  0.7664 -0.8035
   56MOL   H22942139   2.826   5.457   5.659  1.9792 -0.6765 -1.6231
   56MOL   C23042140   2.384   4.885   6.240  0.4568  0.2590 -0.1293
   56MOL   C23142141   2.485   4.996   6.205  0.1304  0.3695  0.4916
   56MOL   C23242142   2.622   4.962   6.257  1.3230  0.7057 -0.2845
   56MOL   C23342143   2.710   5.085   6.226 -0.8171  0.1394 -0.5946
   56MOL   C23442144   2.624   4.918   6.401  0.3267  0.0720  0.3672
   56MOL   C23542145   2.505   4.826   6.445 -0.3721 -0.2029 -0.4056
   56MOL   C23642146   2.365   4.870   6.388  0.0995 -1.2894  0.1641
   56MOL   C23742147   2.234   4.796   6.422  0.4396 -0.5143 -0.0968
   56MOL   O23842148   2.182   4.831   6.548  0.0906 -0.4320  0.3305
   56MOL   C23942149   2.051   4.795   6.574  0.3760 -0.4923  0.8146
   56MOL   O24042150   1.974   4.740   6.490  0.0925 -0.7133 -0.1598
   56MOL   C24142151   1.998   4.849   6.707  0.8437  0.3515 -0.3352
   56MOL   C24242152   1.861   4.835   6.742  0.4333 -0.3703  0.1705
   56MOL   C24342153   1.812   4.884   6.860  0.8958 -0.2091 -0.5073
   56MOL   C24442154   1.890   4.958   6.945  0.0582 -1.0187 -0.6577
   56MOL   C24542155   1.837   5.001   7.077 -0.4493 -0.0975 -0.8119
   56MOL   O24642156   1.907   5.070   7.147 -0.0740  0.0776 -0.1839
   56MOL   O24742157   1.714   4.948   7.109 -0.3858  0.0519  0.0743
   56MOL   C24842158   2.025   4.988   6.909 -0.4216  0.1087  0.6453
   56MOL   C24942159   2.076   4.934   6.790 -0.6692  0.8489  0.4179
   56MOL   H25042160   2.421   4.793   6.194  0.0547  1.0108 -2.0049
   56MOL   H25142161   2.294   4.906   6.183  0.6982 -1.6670 -1.2617
   56MOL   H25242162   2.446   5.088   6.249 -1.6420 -0.6153  1.0169
   56MOL   H25342163   2.486   5.013   6.098  1.9889 -1.1795  0.2207
   56MOL   H25442164   2.664   4.880   6.199 -1.3038 -0.1961 -1.0052
   56MOL   H25542165   2.805   5.081   6.278 -0.9009  2.2902 -0.2066
   56MOL   H25642166   2.661   5.175   6.264  3.5397  2.8529 -1.0536
   56MOL   H25742167   2.615   5.008   6.462  0.8881  0.4261 -0.0605
   56MOL   H25842168   2.720   4.868   6.417 -1.6205 -3.7992  0.2618
   56MOL   H25942169   2.518   4.724   6.409 -2.3448 -0.3885 -0.6364
   56MOL   H26042170   2.500   4.822   6.553 -0.7753 -0.0852 -0.4183
   56MOL   H26142171   2.353   4.971   6.427  1.4283 -1.2858  0.6021
   56MOL   H26242172   2.248   4.689   6.438 -0.3916  0.0241  4.8542
   56MOL   H26342173   2.155   4.816   6.349  1.3849  2.6765 -0.3004
   56MOL   H26442174   1.787   4.783   6.684 -0.2081  0.8100 -0.0854
   56MOL   H26542175   1.706   4.867   6.877  1.1497 -0.6812  0.6336
   56MOL   H26642176   2.089   5.041   6.977  2.6578 -1.4190 -0.9355
   56MOL   H26742177   2.172   4.967   6.754 -0.5677 -1.6043 -1.6473
   56MOL   C26842178   1.290   4.990   7.095 -0.1068 -0.6402 -0.2108
   56MOL   C26942179   1.440   5.023   7.091 -0.0573 -0.1706 -0.3348
   56MOL   C27042180   1.511   4.972   7.222  0.3981 -0.5405 -0.4339
   56MOL   C27142181   1.656   4.996   7.229  0.0321  0.5084 -0.0594
   56MOL   C27242182   1.434   5.016   7.348  0.3428  0.5669 -0.1651
   56MOL   C27342183   1.282   4.985   7.350  0.1289  0.3382 -0.6938
   56MOL   C27442184   1.218   5.042   7.218 -0.1446 -0.5965  0.6270
   56MOL   C27542185   1.074   4.999   7.212  0.4526  0.2975  0.4173
   56MOL   O27642186   1.010   5.010   7.340 -0.5606  0.0675 -0.2315
   56MOL   C27742187   0.970   4.900   7.422 -0.1612  0.1729 -0.0103
   56MOL   O27842188   0.959   4.787   7.365 -0.3600  0.0235 -0.1701
   56MOL   C27942189   0.946   4.934   7.564 -0.0722 -0.2175 -0.0767
   56MOL   C28042190   1.002   5.056   7.612 -0.6515 -0.3741 -0.4926
   56MOL   C28142191   0.988   5.088   7.752 -1.3123 -0.5364  0.6485
   56MOL   C28242192   0.927   4.997   7.840 -0.4587  0.0660  0.0160
   56MOL   C28342193   0.918   5.020   7.983  0.0839  0.0937 -0.4422
   56MOL   O28442194   0.847   4.955   0.024  0.3894  0.1885  0.1461
   56MOL   O28542195   0.993   5.129   8.018 -0.1267 -0.1322  0.9021
   56MOL   C28642196   0.878   4.874   7.792 -0.2733 -0.5263  0.1038
   56MOL   C28742197   0.880   4.849   7.658 -0.0008  0.3518  0.3701
   56MOL   H28842198   1.286   4.881   7.102 -1.0917 -0.6028 -0.2359
   56MOL   H28942199   1.241   5.022   7.004  0.2681  0.5552  0.0026
   56MOL   H29042200   1.461   5.128   7.074 -3.5067  0.7461  0.7747
   56MOL   H29142201   1.491   4.965   7.014  1.9739  3.4256 -1.8242
   56MOL   H29242202   1.500   4.864   7.211 -2.7891 -0.1284 -1.9931
   56MOL   H29342203   1.707   4.965   7.320 -1.1468  0.0324  0.4530
   56MOL   H29442204   1.665   5.104   7.239  1.7699  0.4812 -1.1095
   56MOL   H29542205   1.453   5.121   7.371  1.5198  0.2932  0.1570
   56MOL   H29642206   1.469   4.959   7.434 -1.3881 -1.1219 -0.5649
   56MOL   H29742207   1.268   4.879   7.329 -1.2870  0.7782 -2.0438
   56MOL   H29842208   1.241   5.026   7.442 -0.5221  0.0800 -0.8676
   56MOL   H29942209   1.224   5.151   7.217 -3.5845 -0.3669  0.5055
   56MOL   H30042210   1.048   4.902   7.171 -0.7959  1.0793 -0.7038
   56MOL   H30142211   1.020   5.067   7.146 -1.0477 -1.0575  0.2320
   56MOL   H30242212   1.051   5.126   7.547  0.0101  0.5057  0.9382
   56MOL   H30342213   1.023   5.189   7.771 -0.2876 -0.5941 -0.8337
   56MOL   H30442214   0.844   4.792   7.852 -1.4757  0.5071  0.8539
   56MOL   H30542215   0.846   4.751   7.627 -0.3423  0.5052  0.2582
   56MOL   C30642216   1.336   4.867   0.159  0.2891  0.0774  0.3119
   56MOL   C30742217   1.193   4.921   0.132 -0.4475  0.0651  0.8008
   56MOL   C30842218   1.180   5.072   0.151 -0.2018 -0.5638  0.1831
   56MOL   C30942219   1.040   5.133   0.121 -0.0206 -0.2083 -0.0769
   56MOL   C31042220   1.240   5.119   0.280 -0.7910  0.2993 -1.1181
   56MOL   C31142221   1.390   5.080   0.297  0.6358 -1.0543 -0.3642
   56MOL   C31242222   1.399   4.927   0.295  0.2849 -0.4147  0.1537
   56MOL   C31342223   1.545   4.884   0.315  0.6851  0.4215 -0.1925
   56MOL   O31442224   1.588   4.925   0.442  0.1230  0.2532 -0.5848
   56MOL   C31542225   1.718   4.912   0.477 -0.0396 -0.1399 -0.0337
   56MOL   O31642226   1.804   4.850   0.412  0.6995  0.6898 -0.0780
   56MOL   C31742227   1.753   4.975   0.613 -0.2622  0.0757 -0.3038
   56MOL   C31842228   1.883   4.957   0.658 -0.3042  0.2313 -0.5394
   56MOL   C31942229   1.925   5.021   0.780 -0.5352 -0.1699  0.9795
   56MOL   C32042230   1.842   5.116   0.843 -0.0434  0.0993  0.6348
   56MOL   C32142231   1.897   5.195   0.962 -0.0356  0.0903  0.0306
   56MOL   O32242232   1.996   5.168   1.032 -0.3230  0.2443  0.3587
   56MOL   O32342233   1.817   5.304   0.986 -0.6465  1.1489  0.4465
   56MOL   C32442234   1.711   5.131   0.797  0.1178 -1.2184  0.1952
   56MOL   C32542235   1.661   5.059   0.683 -0.1387  0.5609  0.7301
   56MOL   H32642236   1.389   4.871   0.064 -0.4501  2.2400 -0.0536
   56MOL   H32742237   1.319   4.761   0.172 -1.6377  0.5868  2.4122
   56MOL   H32842238   1.121   4.863   0.188 -0.5290 -1.4183 -0.8042
   56MOL   H32942239   1.162   4.900   0.029 -3.1025  1.5889  1.2540
   56MOL   H33042240   1.245   5.113   0.073  0.8980  2.3702  2.5716
   56MOL   H33142241   1.041   5.232   0.165 -3.4699 -0.1323  0.0142
   56MOL   H33242242   0.962   5.095   0.188 -1.5530  0.4459 -1.4378
   56MOL   H33342243   1.190   5.068   0.363  1.1798  0.5555  0.2544
   56MOL   H33442244   1.232   5.222   0.314  0.0518 -0.1985  0.6530
   56MOL   H33542245   1.446   5.114   0.209 -1.5011 -1.3464 -1.8607
   56MOL   H33642246   1.429   5.118   0.391 -1.2018 -1.1888  0.4550
   56MOL   H33742247   1.343   4.882   0.377  0.7761  2.9795  2.4418
   56MOL   H33842248   1.603   4.920   0.230  0.0649 -0.7767 -1.1256
   56MOL   H33942249   1.564   4.777   0.308 -0.8668  0.2576 -2.4234
   56MOL   H34042250   1.951   4.885   0.617 -1.9728 -2.2824  0.9419
   56MOL   H34142251   2.027   4.994   0.803 -0.0241 -0.4141 -1.4118
   56MOL   H34242252   1.652   5.201   0.854  1.7514 -1.1737  1.8797
   56MOL   H34342253   1.563   5.066   0.637 -1.0905  3.0997  3.0152
   56MOL   C34442254   1.746   5.793   1.097 -0.7032  0.5148  0.7412
   56MOL   C34542255   1.817   5.652   1.134 -0.4686 -0.6606 -0.1909
   56MOL   C34642256   1.774   5.532   1.040  0.4267  0.4873  0.3998
   56MOL   C34742257   1.851   5.401   1.085 -0.0416  0.3171  0.3763
   56MOL   C34842258   1.619   5.512   1.057  0.0018 -0.2280 -0.4698
   56MOL   C34942259   1.551   5.647   1.013  0.4196 -0.1889  0.1532
   56MOL   C35042260   1.597   5.769   1.101  0.7782  0.0169 -0.4060
   56MOL   C35142261   1.531   5.902   1.056  0.1820  0.2338  0.1583
   56MOL   O35242262   1.395   5.883   1.018  0.5549 -0.1166  0.5353
   56MOL   C35342263   1.295   5.860   1.099 -0.3364  1.2909 -0.1368
   56MOL   O35442264   1.308   5.844   1.221  0.0770 -0.1589  0.4412
   56MOL   C35542265   1.165   5.852   1.025  0.2037  0.5669 -0.3358
   56MOL   C35642266   1.161   5.848   0.880 -0.5623  0.5562 -0.3377
   56MOL   C35742267   1.037   5.858   0.808  0.5840  0.3232 -1.2344
   56MOL   C35842268   0.915   5.860   0.885  0.5260  0.3147  0.7593
   56MOL   C35942269   0.783   5.870   0.809  0.1981 -0.0938  0.3491
   56MOL   O36042270   0.682   5.915   0.862 -0.2333  0.0630  0.2367
   56MOL   O36142271   0.801   5.839   0.669 -0.0387 -0.5698  0.1334
   56MOL   C36242272   0.922   5.869   1.023  0.5878  0.3096  0.3399
   56MOL   C36342273   1.045   5.869   1.099  0.0507 -0.6063  0.4884
   56MOL   H36442274   1.763   5.811   0.991 -0.3888  1.0553  0.8793
   56MOL   H36542275   1.770   5.885   1.152  3.5901 -0.9350  1.5052
   56MOL   H36642276   1.772   5.629   1.230  0.5156 -1.1155  0.1720
   56MOL   H36742277   1.926   5.663   1.131 -0.6460  1.7439  1.3098
   56MOL   H36842278   1.810   5.563   0.942 -0.8630  0.0579 -0.2198
   56MOL   H36942279   1.806   5.371   1.179 -2.6884  0.5897 -0.7740
   56MOL   H37042280   1.959   5.415   1.092 -0.0088 -0.1907  0.8902
   56MOL   H37142281   1.591   5.488   1.160  1.2780 -1.5213 -0.4093
   56MOL   H37242282   1.578   5.431   0.997 -1.0078  1.6434 -2.3637
   56MOL   H37342283   1.569   5.666   0.907  0.3429  0.2587  0.2203
   56MOL   H37442284   1.442   5.642   1.022  0.4086  0.2505  0.2624
   56MOL   H37542285   1.579   5.752   1.207  0.0499 -0.6337 -0.6278
   56MOL   H37642286   1.572   5.952   0.968  0.5496 -0.7714 -0.2497
   56MOL   H37742287   1.550   5.975   1.134  0.6282 -0.8799  1.1022
   56MOL   H37842288   1.255   5.851   0.826  0.4043  1.8851  1.3923
   56MOL   H37942289   1.041   5.856   0.700 -2.6854  1.2868 -1.4205
   56MOL   H38042290   0.835   5.875   1.086 -0.5995 -1.7920 -1.0208
   56MOL   H38142291   1.053   5.885   1.206 -3.0092  0.5964  0.5816
   56MOL   C38242292   0.694   6.232   0.483  0.3494 -0.3025  0.2074
   56MOL   C38342293   0.673   6.111   0.574  0.2318  0.0193 -0.3478
   56MOL   C38442294   0.697   5.976   0.499 -0.0527  0.6386  0.1639
   56MOL   C38542295   0.688   5.855   0.579 -0.4582 -0.1629  0.6836
   56MOL   C38642296   0.606   5.975   0.373  0.5340  0.3039  0.4616
   56MOL   C38742297   0.632   6.093   0.284 -0.0994 -0.1557 -0.3404
   56MOL   C38842298   0.605   6.223   0.359  0.2323 -0.3536 -0.2273
   56MOL   C38942299   0.627   6.346   0.262 -0.2277  0.1278  0.4288
   56MOL   O39042300   0.631   6.464   0.345 -0.0358  0.3006  0.1023
   56MOL   C39142301   0.666   6.577   0.277 -0.5015 -0.3569 -0.1169
   56MOL   O39242302   0.680   6.583   0.153  0.2523 -0.5730  0.1875
   56MOL   C39342303   0.661   6.702   0.359 -0.2827  0.2676 -0.0963
   56MOL   C39442304   0.625   6.713   0.497  0.2592 -0.4861  0.4876
   56MOL   C39542305   0.620   6.836   0.567 -0.2895  0.3544 -0.5574
   56MOL   C39642306   0.634   6.950   0.495 -0.3573 -0.3030  0.4656
   56MOL   C39742307   0.626   7.086   0.564 -0.4709  0.8435  0.0770
   56MOL   O39842308   0.593   7.092   0.678 -0.3491  0.1953 -0.0260
   56MOL   O39942309   0.644   7.189   0.486  0.1571  0.2708  0.7239
   56MOL   C40042310   0.679   6.949   0.359 -0.3798  0.7251  0.3195
   56MOL   C40142311   0.685   6.823   0.290  0.1126 -0.5368  0.6273
   56MOL   H40242312   0.799   6.233   0.454  0.5394  0.9447  0.9230
   56MOL   H40342313   0.675   6.326   0.535 -2.8793 -0.6696 -0.1982
   56MOL   H40442314   0.581   6.112   0.634  0.9047  1.2895  0.6919
   56MOL   H40542315   0.746   6.114   0.654  0.3819  1.8261 -0.5244
   56MOL   H40642316   0.799   5.988   0.462  0.2486  1.4635  1.2253
   56MOL   H40742317   0.700   5.767   0.515  2.7240  0.3177  0.5289
   56MOL   H40842318   0.585   5.851   0.615 -0.1218  0.4072  1.7303
   56MOL   H40942319   0.500   5.964   0.396 -0.1296  0.2348 -2.3862
   56MOL   H41042320   0.629   5.895   0.303 -1.1824 -1.1717  1.5569
   56MOL   H41142321   0.734   6.095   0.246  0.5039  0.1175  1.2291
   56MOL   H41242322   0.572   6.083   0.194 -1.9168  2.5373  0.4930
   56MOL   H41342323   0.498   6.236   0.380 -0.5902 -1.5927 -3.4147
   56MOL   H41442324   0.539   6.355   0.198 -0.7641 -1.7046  0.8678
   56MOL   H41542325   0.709   6.336   0.190 -1.0647 -0.0960 -0.5057
   56MOL   H41642326   0.595   6.627   0.556  0.7166 -1.5514 -0.7866
   56MOL   H41742327   0.607   6.829   0.674 -1.3718 -4.1727 -0.8617
   56MOL   H41842328   0.710   7.036   0.303  0.3854 -0.9677 -1.9686
   56MOL   H41942329   0.708   6.826   0.185  0.3888  2.4917  0.7256
   56MOL   C42042330   0.712   7.536   0.206  0.3911 -0.2375  0.6688
   56MOL   C42142331   0.647   7.463   0.317  0.4732  0.1111  0.4375
   56MOL   C42242332   0.737   7.407   0.422  0.3228 -0.0692  0.0454
   56MOL   C42342333   0.661   7.317   0.527 -0.0879  0.0279 -0.0184
   56MOL   C42442334   0.863   7.343   0.365 -0.1133 -0.8267 -0.1347
   56MOL   C42542335   0.925   7.436   0.257  0.3031  0.2371  0.0619
   56MOL   C42642336   0.833   7.468   0.140 -0.5317 -0.0170  0.2419
   56MOL   C42742337   0.901   7.566   0.047 -0.6240  0.3048 -0.3339
   56MOL   O42842338   0.994   7.492   8.002  0.8377 -0.6951 -0.0998
   56MOL   C42942339   0.965   7.444   7.887 -0.1583 -0.1744  0.0579
   56MOL   O43042340   0.857   7.462   7.824  0.0012 -0.1239  0.0374
   56MOL   C43142341   1.077   7.366   7.828  0.4333  0.3538 -0.3294
   56MOL   C43242342   1.070   7.311   7.692 -0.0849 -0.0912 -0.0930
   56MOL   C43342343   1.184   7.263   7.632 -0.0699 -0.1264  0.6170
   56MOL   C43442344   1.309   7.256   7.701 -0.3847  0.0629 -0.3899
   56MOL   C43542345   1.437   7.205   7.632 -0.5145 -0.1339  0.2690
   56MOL   O43642346   1.440   7.168   7.517  0.2034 -0.5709 -0.7653
   56MOL   O43742347   1.547   7.207   7.709  0.0317 -0.3692  0.5025
   56MOL   C43842348   1.316   7.304   7.830 -0.3877 -0.2003 -0.0893
   56MOL   C43942349   1.206   7.356   7.896 -0.0678 -0.0008  0.4198
   56MOL   H44042350   0.754   7.621   0.261  0.9717 -0.0088 -0.1245
   56MOL   H44142351   0.635   7.568   0.136  1.6981  0.8603 -0.2887
   56MOL   H44242352   0.592   7.380   0.275  1.4998  0.2627 -1.2262
   56MOL   H44342353   0.576   7.526   0.371  0.2861  0.2136  0.0749
   56MOL   H44442354   0.772   7.497   0.472  1.8419 -0.7026  0.1432
   56MOL   H44542355   0.557   7.349   0.531 -0.0681  0.1402 -0.4111
   56MOL   H44642356   0.702   7.312   0.628 -0.4777  0.1634  0.1508
   56MOL   H44742357   0.834   7.251   0.313  0.9412 -1.7994  0.9408
   56MOL   H44842358   0.938   7.313   0.439  0.2627  0.9318  0.2179
   56MOL   H44942359   0.978   7.520   0.302 -0.5721  0.9532 -0.2464
   56MOL   H45042360   1.002   7.372   0.212 -0.7876 -0.3019 -1.0681
   56MOL   H45142361   0.799   7.374   0.097 -1.6975 -0.0958  1.2860
   56MOL   H45242362   0.951   7.644   0.104  1.7007 -0.0571 -1.8255
   56MOL   H45342363   0.841   7.615   8.002  0.1270  1.9761  0.1317
   56MOL   H45442364   0.975   7.301   7.642  1.1819 -0.1574 -2.5381
   56MOL   H45542365   1.171   7.230   7.530 -0.1417 -2.0055  1.2239
   56MOL   H45642366   1.409   7.302   7.885  0.9845  3.1671 -2.0982
   56MOL   H45742367   1.229   7.400   7.992  0.8252  2.2018 -0.7725
   56MOL   C45842368   1.952   6.959   7.803  0.4509 -0.3111 -0.0683
   56MOL   C45942369   1.870   7.027   7.697  0.1790  0.0449  0.4501
   56MOL   C46042370   1.739   7.083   7.760  0.5537 -0.2096  0.3027
   56MOL   C46142371   1.672   7.175   7.655 -0.0518  0.2497 -0.0542
   56MOL   C46242372   1.652   6.979   7.822 -0.1876  0.0043  0.2466
   56MOL   C46342373   1.732   6.894   7.918  0.0049  0.5044 -0.3178
   56MOL   C46442374   1.867   6.852   7.869 -0.0635 -0.0064 -0.0762
   56MOL   C46542375   1.942   6.780   7.984  0.0629 -0.2764  0.3556
   56MOL   O46642376   1.950   6.872   0.059  0.5083  0.2191 -0.6238
   56MOL   C46742377   2.058   6.871   0.140  0.2734  0.6493  0.2155
   56MOL   O46842378   2.142   6.783   0.144 -0.4690  0.0838  0.4816
   56MOL   C46942379   2.040   6.983   0.237  0.2612 -0.4750  0.5934
   56MOL   C47042380   2.136   6.998   0.335 -0.0178  0.2065  0.5608
   56MOL   C47142381   2.120   7.083   0.445  0.0876  0.5255  0.4254
   56MOL   C47242382   1.999   7.156   0.456  0.5936 -0.0934 -0.1118
   56MOL   C47342383   1.977   7.221   0.586 -0.2222 -0.4739 -0.3994
   56MOL   O47442384   2.070   7.264   0.652  0.1522  0.0835 -0.7038
   56MOL   O47542385   1.847   7.245   0.607 -0.1563  0.1117 -0.1811
   56MOL   C47642386   1.903   7.154   0.350 -0.0102  0.4468 -0.4542
   56MOL   C47742387   1.921   7.068   0.240  0.1620 -0.1477  0.1292
   56MOL   H47842388   1.993   7.030   7.875  0.3851  1.9785 -2.2172
   56MOL   H47942389   2.038   6.906   7.762  0.3864 -0.1802 -0.3761
   56MOL   H48042390   1.855   6.967   7.607  0.4942 -2.6766  2.1978
   56MOL   H48142391   1.931   7.112   7.665  2.1441 -1.5670 -0.2222
   56MOL   H48242392   1.772   7.145   7.845  1.8327 -0.8525  0.2890
   56MOL   H48342393   1.665   7.116   7.563  0.1101  1.2836 -0.7389
   56MOL   H48442394   1.729   7.266   7.639 -1.1446  0.7528 -1.2234
   56MOL   H48542395   1.611   6.916   7.742 -0.2693  0.2918  0.0622
   56MOL   H48642396   1.571   7.027   7.877 -0.6396  0.2909 -0.6450
   56MOL   H48742397   1.748   6.959   8.004 -0.0718 -0.6221  0.5595
   56MOL   H48842398   1.674   6.813   7.963 -0.2378  1.2836  0.8024
   56MOL   H48942399   1.851   6.769   7.800 -0.5316 -0.5314  0.6597
   56MOL   H49042400   2.043   6.750   7.957 -0.1675 -1.4168  0.7375
   56MOL   H49142401   1.890   6.687   8.007  0.4682 -0.5493  0.1674
   56MOL   H49242402   2.228   6.941   0.330 -1.3141 -1.7983 -2.0011
   56MOL   H49342403   2.197   7.075   0.520  0.5097  3.0714  0.3051
   56MOL   H49442404   1.810   7.207   0.367 -0.1832  0.3581 -1.0998
   56MOL   H49542405   1.840   7.065   0.169 -0.3300  0.3862  0.6581
   56MOL   C49642406   1.420   7.348   0.667 -0.1808  0.2610  0.1086
   56MOL   C49742407   1.572   7.369   0.649  1.0232 -0.4471  0.4733
   56MOL   C49842408   1.663   7.296   0.745  0.1414 -0.1649  0.5996
   56MOL   C49942409   1.806   7.321   0.721 -0.4820 -0.3042  0.0260
   56MOL   C50042410   1.626   7.329   0.890  0.2581 -0.2537 -0.8215
   56MOL   C50142411   1.483   7.308   0.912 -0.4092  0.7581 -0.5690
   56MOL   C50242412   1.391   7.391   0.813  0.5091  0.1988  0.2040
   56MOL   C50342413   1.239   7.388   0.854  0.4611 -0.0640 -0.0041
   56MOL   O50442414   1.196   7.251   0.827 -0.2614 -0.7797  0.2713
   56MOL   C50542415   1.117   7.215   0.721 -0.3121 -0.8809 -0.1685
   56MOL   O50642416   1.067   7.299   0.645 -0.0685  0.3403  0.4066
   56MOL   C50742417   1.100   7.074   0.700  0.0898  0.1471  0.3440
   56MOL   C50842418   1.029   7.033   0.580  0.1693  0.3371  0.7756
   56MOL   C50942419   1.010   6.898   0.552  0.2157 -0.6650 -1.2422
   56MOL   C51042420   1.073   6.803   0.640  0.4748  0.0967 -0.2111
   56MOL   C51142421   1.052   6.664   0.609  0.6706  0.0893 -0.0576
   56MOL   O51242422   0.988   6.621   0.516 -0.3449  0.4671  0.1848
   56MOL   O51342423   1.108   6.577   0.698  0.2855 -0.0624 -0.4733
   56MOL   C51442424   1.126   6.841   0.763 -0.2627 -0.7091  0.2633
   56MOL   C51542425   1.142   6.976   0.796  0.0119  0.1695 -0.1441
   56MOL   H51642426   1.379   7.251   0.639 -1.5993  1.1427 -0.9634
   56MOL   H51742427   1.376   7.422   0.600  2.0943  1.6893  0.1580
   56MOL   H51842428   1.598   7.474   0.661  0.1038 -0.4774  2.8891
   56MOL   H51942429   1.598   7.351   0.544  0.2731 -0.6552  0.3182
   56MOL   H52042430   1.642   7.191   0.724 -0.4413  0.2515 -1.0052
   56MOL   H52142431   1.868   7.281   0.802  0.4729 -1.0733 -1.0774
   56MOL   H52242432   1.824   7.427   0.702  2.8238 -0.5839  1.2100
   56MOL   H52342433   1.648   7.432   0.917  0.6315 -0.7637  0.9031
   56MOL   H52442434   1.686   7.266   0.956 -0.8976  1.5684  2.0834
   56MOL   H52542435   1.453   7.205   0.887  0.6415 -0.1715  1.8702
   56MOL   H52642436   1.449   7.337   1.011  0.1057  0.0428 -0.1793
   56MOL   H52742437   1.415   7.496   0.832  4.8263 -0.5281 -0.7240
   56MOL   H52842438   1.179   7.474   0.825  2.1115  2.2943  3.1509
   56MOL   H52942439   1.227   7.408   0.961  0.5067 -0.0414 -0.0030
   56MOL   H53042440   0.991   7.109   0.513  5.2201  2.2805 -0.0793
   56MOL   H53142441   0.958   6.871   0.461  1.0118 -2.0835 -1.2918
   56MOL   H53242442   1.154   6.769   0.839  0.5185  1.1501  1.7718
   56MOL   H53342443   1.180   6.995   0.895 -1.1062  1.3139  0.0772
   56MOL   C53442444   0.879   6.219   0.971 -0.5915  0.0269  0.0534
   56MOL   C53542445   0.977   6.261   0.857 -0.4089  0.5878  0.8132
   56MOL   C53642446   0.978   6.416   0.826  0.2395  0.3214 -0.5440
   56MOL   C53742447   1.076   6.436   0.708  0.5483 -0.0045 -1.1490
   56MOL   C53842448   0.844   6.473   0.814  0.2193  0.0997  0.6720
   56MOL   C53942449   0.756   6.426   0.930 -0.4042 -0.0134  0.5051
   56MOL   C54042450   0.743   6.271   0.948 -0.0978 -0.6479  0.0520
   56MOL   C54142451   0.636   6.238   1.056 -0.3497 -0.2285 -0.5519
   56MOL   O54242452   0.678   6.299   1.184  0.3795 -0.1752  0.2535
   56MOL   C54342453   0.625   6.262   1.305  0.2143  0.2883 -0.2868
   56MOL   O54442454   0.559   6.155   1.320  0.0212 -0.1109 -0.7302
   56MOL   C54542455   0.652   6.359   1.415 -0.5740  0.4639 -0.1937
   56MOL   C54642456   0.723   6.486   1.389  0.4509 -0.8014 -0.0376
   56MOL   C54742457   0.742   6.581   1.492 -0.2672 -0.4066  0.2628
   56MOL   C54842458   0.689   6.561   1.621  0.7501  0.5547 -0.4185
   56MOL   C54942459   0.692   6.657   1.730 -0.1178 -0.3374 -0.1478
   56MOL   O55042460   0.659   6.628   1.844 -0.8410  0.7296 -0.1429
   56MOL   O55142461   0.737   6.783   1.701  0.3492  0.8830  0.0538
   56MOL   C55242462   0.627   6.435   1.649 -0.8916  0.6855  0.5052
   56MOL   C55342463   0.607   6.335   1.546 -0.3018  0.3928 -0.4787
   56MOL   H55442464   0.903   6.246   1.073 -2.1073 -1.3801  0.8026
   56MOL   H55542465   0.870   6.111   0.983 -0.2629  0.1406  1.3155
   56MOL   H55642466   0.936   6.215   0.767 -0.1301 -0.1555  1.0644
   56MOL   H55742467   1.076   6.215   0.864 -1.3309 -2.0440 -2.2390
   56MOL   H55842468   1.019   6.469   0.912  2.2133  0.1579 -1.3640
   56MOL   H55942469   1.026   6.402   0.617 -1.1834  0.3318 -0.3538
   56MOL   H56042470   1.169   6.383   0.727 -1.7321 -3.2625  1.4848
   56MOL   H56142471   0.799   6.442   0.719  0.1167  0.6518  0.5411
   56MOL   H56242472   0.854   6.581   0.820  2.2626 -0.0889  1.2199
   56MOL   H56342473   0.795   6.471   1.021  3.1605 -0.9511 -0.4706
   56MOL   H56442474   0.656   6.468   0.917 -0.7707 -0.8704  0.5256
   56MOL   H56542475   0.710   6.233   0.851  3.1691  0.5322 -1.5858
   56MOL   H56642476   0.626   6.129   1.056  0.6685 -0.3543  1.6592
   56MOL   H56742477   0.536   6.275   1.036 -0.1220  1.3533  1.0727
   56MOL   H56842478   0.777   6.512   1.299  1.8931  1.7617  1.5085
   56MOL   H56942479   0.792   6.673   1.466 -0.1156 -0.6186 -0.2123
   56MOL   H57042480   0.586   6.413   1.746 -0.6189 -0.3432  0.3928
   56MOL   H57142481   0.546   6.249   1.570  1.1287 -1.1676 -2.3413
   56MOL   C57242482   1.048   7.112   1.678  0.4500  0.5340  0.3353
   56MOL   C57342483   0.909   7.044   1.679  0.3686 -0.2228 -0.0731
   56MOL   C57442484   0.899   6.941   1.792  0.3354 -0.5786  0.0670
   56MOL   C57542485   0.754   6.880   1.803 -0.3069 -0.0591 -0.2035
   56MOL   C57642486   1.015   6.841   1.785  0.3975 -1.0511  0.1243
   56MOL   C57742487   1.153   6.909   1.778  0.1802 -0.2883 -0.1409
   56MOL   C57842488   1.171   7.012   1.662  0.1224 -0.7431 -0.0438
   56MOL   C57942489   1.308   7.083   1.661  0.1555  0.0207 -0.3405
   56MOL   O58042490   1.304   7.192   1.567 -0.0804  0.7195  0.0379
   56MOL   C58142491   1.424   7.249   1.548 -0.4768 -0.0788  0.5189
   56MOL   O58242492   1.520   7.236   1.622  0.3365  0.4043  0.2394
   56MOL   C58342493   1.426   7.345   1.433  0.9310 -0.0171 -0.3173
   56MOL   C58442494   1.314   7.374   1.347 -0.3487  0.6476  0.2636
   56MOL   C58542495   1.323   7.470   1.252 -0.3807  0.0557  0.2695
   56MOL   C58642496   1.433   7.541   1.226 -0.3717  0.2095 -0.0182
   56MOL   C58742497   1.437   7.653   1.125 -0.0864  0.1569  0.1333
   56MOL   O58842498   1.536   7.724   1.095 -0.3903 -0.4704 -0.1301
   56MOL   O58942499   1.320   7.662   1.060  0.9589 -0.1540 -0.2098
   56MOL   C59042500   1.548   7.505   1.302  0.2667 -0.2471 -0.5347
   56MOL   C59142501   1.544   7.412   1.405 -0.3589  0.0032  0.0367
   56MOL   H59242502   1.053   7.165   1.772  3.2044 -0.4919  0.8410
   56MOL   H59342503   1.051   7.182   1.595 -0.2436  0.6719  0.4309
   56MOL   H59442504   0.894   6.987   1.587  0.5297 -0.5838  0.1216
   56MOL   H59542505   0.825   7.112   1.692 -1.9200 -3.0388  0.6106
   56MOL   H59642506   0.922   6.997   1.883  0.5097 -2.1565  1.0052
   56MOL   H59742507   0.682   6.961   1.788  0.8167  1.2655  1.3089
   56MOL   H59842508   0.747   6.836   1.903 -1.8398  0.2246 -0.1842
   56MOL   H59942509   0.999   6.778   1.698 -1.1635 -0.1463 -0.2688
   56MOL   H60042510   0.997   6.776   1.871  1.8524  0.3111  1.5036
   56MOL   H60142511   1.169   6.952   1.877 -2.3105  0.0118  0.1717
   56MOL   H60242512   1.223   6.829   1.755  1.4204  0.3513  1.3238
   56MOL   H60342513   1.168   6.952   1.571  1.1216 -1.4607  0.3769
   56MOL   H60442514   1.389   7.015   1.637  0.7730  1.0571 -1.2680
   56MOL   H60542515   1.311   7.141   1.754 -1.3943  0.9739 -0.8677
   56MOL   H60642516   1.217   7.325   1.356  0.5863 -0.9496  2.1217
   56MOL   H60742517   1.230   7.479   1.197  0.1365 -0.8817 -0.7868
   56MOL   H60842518   1.636   7.567   1.289  0.8637 -0.5236  1.9164
   56MOL   H60942519   1.627   7.392   1.471 -0.7004 -0.1942  0.3990
   56MOL   C61042520   0.995   7.966   0.850  0.0401  0.0193 -0.4502
   56MOL   C61142521   1.131   7.904   0.843  0.0605  0.6496 -0.0969
   56MOL   C61242522   1.155   7.809   0.959 -0.5841 -0.5441  0.1672
   56MOL   C61342523   1.303   7.755   0.953 -0.5047  0.2150 -0.7757
   56MOL   C61442524   1.129   7.882   1.096 -0.2753 -0.2652  0.3869
   56MOL   C61542525   0.979   7.935   1.101 -0.3404 -0.0892 -0.1677
   56MOL   C61642526   0.964   0.007   0.980  0.4886 -0.4469 -0.0753
   56MOL   C61742527   0.823   0.066   0.968 -0.3409 -0.1878 -0.4557
   56MOL   O61842528   0.817   0.192   0.905 -0.2943  0.2314  0.3545
   56MOL   C61942529   0.699   0.254   0.881  0.4597  0.1249 -0.3969
   56MOL   O62042530   0.592   0.215   0.921  0.3401  0.0734 -0.5303
   56MOL   C62142531   0.717   0.377   0.796 -0.1117  0.9967 -0.0178
   56MOL   C62242532   0.837   0.422   0.746 -0.3815 -1.2270 -0.4179
   56MOL   C62342533   0.844   0.519   0.651  0.0358 -0.1165 -0.6556
   56MOL   C62442534   0.733   0.590   0.610 -0.1564  0.1592 -0.2815
   56MOL   C62542535   0.745   0.693   0.501  0.1506  0.3926  0.1386
   56MOL   O62642536   0.671   0.789   0.494  0.0126  0.5159 -0.0716
   56MOL   O62742537   0.844   0.666   0.410  0.8656 -0.4919  0.3988
   56MOL   C62842538   0.608   0.558   0.667  0.0126 -0.4614  0.2656
   56MOL   C62942539   0.597   0.443   0.761  0.1927  0.2543  0.6194
   56MOL   H63042540   0.921   7.888   0.831 -1.6004  2.0125 -2.5180
   56MOL   H63142541   0.986   8.023   0.758 -2.1303  1.0761  0.3878
   56MOL   H63242542   1.211   7.977   0.840  1.3807 -0.7313  0.5456
   56MOL   H63342543   1.143   7.853   0.748  0.1937  0.1813  0.1670
   56MOL   H63442544   1.079   7.733   0.938 -0.2249 -0.8592  0.0145
   56MOL   H63542545   1.385   7.827   0.952  1.4705 -1.8733  1.5222
   56MOL   H63642546   1.320   7.697   0.862 -1.8513  0.4548 -1.1789
   56MOL   H63742547   1.197   7.967   1.104 -0.5858  0.5586 -4.4154
   56MOL   H63842548   1.153   7.819   1.182 -1.0804 -2.6839 -1.1072
   56MOL   H63942549   0.902   7.861   1.081  1.6739 -2.2207 -0.2753
   56MOL   H64042550   0.965   7.986   1.197 -0.1254  0.1452 -0.2578
   56MOL   H64142551   1.039   0.085   0.994 -0.5657  0.7765 -1.1791
   56MOL   H64242552   0.769   0.080   1.062  0.7553  0.5567  0.0617
   56MOL   H64342553   0.766   8.031   0.902 -0.9598  1.1452 -1.2903
   56MOL   H64442554   0.930   0.374   0.772  0.9672  0.8632 -1.2846
   56MOL   H64542555   0.943   0.548   0.620  0.2870  1.2702  1.3838
   56MOL   H64642556   0.517   0.606   0.635 -0.9374 -1.2880  1.6475
   56MOL   H64742557   0.503   0.401   0.790 -0.8500  1.4423 -0.9614
   56MOL   C64842558   1.056   0.525   0.048 -0.0899  0.8793  0.1072
   56MOL   C64942559   0.949   0.553   0.147  0.1183 -0.8173 -0.1608
   56MOL   C65042560   0.972   0.689   0.216  0.5230 -0.5169 -0.0491
   56MOL   C65142561   0.856   0.745   0.295 -0.6524  0.3673 -0.1666
   56MOL   C65242562   1.109   0.707   0.279 -0.3205 -0.6304  0.2402
   56MOL   C65342563   1.228   0.655   0.190  0.4670  0.2483  0.1516
   56MOL   C65442564   1.193   0.514   0.120 -0.5994  0.3077 -0.4588
   56MOL   C65542565   1.306   0.469   0.029 -0.0999 -0.0255  0.2562
   56MOL   O65642566   1.418   0.426   0.102  0.3378 -0.0479 -0.6804
   56MOL   C65742567   1.539   0.479   0.082 -0.1502  0.2348 -0.6074
   56MOL   O65842568   1.572   0.552   8.019  0.5063  0.3378 -0.0306
   56MOL   C65942569   1.632   0.436   0.183  0.6710  0.3062 -0.1612
   56MOL   C66042570   1.765   0.406   0.159 -0.2144 -0.2065  0.4300
   56MOL   C66142571   1.851   0.368   0.264  0.3195 -0.9354 -0.2498
   56MOL   C66242572   1.803   0.353   0.393  0.5727 -0.1246  0.1088
   56MOL   C66342573   1.890   0.302   0.498 -0.0480 -0.9622 -0.3977
   56MOL   O66442574   1.863   0.305   0.617  0.3412  0.1604 -0.1874
   56MOL   O66542575   2.006   0.249   0.453 -0.1667 -0.0170  0.2489
   56MOL   C66642576   1.665   0.381   0.416 -0.2879 -0.0693 -0.2542
   56MOL   C66742577   1.581   0.429   0.314  0.5820  0.3875 -0.7004
   56MOL   H66842578   1.062   0.603   8.004 -1.3971  0.2355 -0.6701
   56MOL   H66942579   1.043   0.430   8.029 -0.7554 -0.2796  2.3673
   56MOL   H67042580   0.953   0.476   0.224  1.7466 -0.5082  0.0727
   56MOL   H67142581   0.855   0.546   0.092  1.2317  0.7240 -2.3103
   56MOL   H67242582   0.980   0.763   0.136  1.2286  1.1292  1.5143
   56MOL   H67342583   0.769   0.737   0.230  0.0775  0.8546 -1.2031
   56MOL   H67442584   0.868   0.849   0.327 -1.8617  0.3368  0.4160
   56MOL   H67542585   1.110   0.649   0.371 -0.3680 -0.8457  0.1050
   56MOL   H67642586   1.129   0.810   0.308  3.1279 -0.9017 -0.9507
   56MOL   H67742587   1.243   0.719   0.103  1.3137 -1.2938 -0.8574
   56MOL   H67842588   1.321   0.658   0.248  0.2506 -2.0278  0.6745
   56MOL   H67942589   1.183   0.439   0.198  0.6672  0.6842  0.0831
   56MOL   H68042590   1.332   0.540   7.982 -0.4538  0.0729  0.2297
   56MOL   H68142591   1.279   0.378   8.007  1.7043 -0.3525 -0.1292
   56MOL   H68242592   1.796   0.407   0.056 -1.1794 -0.7381  0.1268
   56MOL   H68342593   1.953   0.336   0.246  0.5079 -0.8237  0.5819
   56MOL   H68442594   1.627   0.376   0.517  1.1378  0.9092  0.3454
   56MOL   H68542595   1.485   0.476   0.329  0.0552 -0.9921  0.4117
   56MOL   C68642596   2.474   0.323   0.651  0.5907 -0.4820  0.5007
   56MOL   C68742597   2.345   0.231   0.646 -0.0171  0.1260 -0.2057
   56MOL   C68842598   2.238   0.285   0.546 -1.0262 -0.1486  0.1636
   56MOL   C68942599   2.106   0.205   0.547  0.0446 -0.9087  0.8996
   56MOL   C69042600   2.211   0.429   0.570  0.0853 -0.4058  0.5757
   56MOL   C69142601   2.332   0.516   0.558  0.1242 -0.0547 -0.5199
   56MOL   C69242602   2.435   0.473   0.660 -0.1447  0.0837 -0.5003
   56MOL   C69342603   2.558   0.569   0.662  0.7584 -0.1780 -0.1055
   56MOL   O69442604   2.619   0.584   0.532  0.2875 -0.4116  0.4426
   56MOL   C69542605   2.624   0.698   0.467  0.0415  0.9212 -0.0078
   56MOL   O69642606   2.569   0.797   0.510  0.1403  0.2903 -0.0149
   56MOL   C69742607   2.701   0.693   0.335 -0.2322  0.1436  0.3036
   56MOL   C69842608   2.728   0.807   0.254 -0.4295 -0.3668 -0.6356
   56MOL   C69942609   2.808   0.799   0.137 -0.1746  0.4486 -0.1352
   56MOL   C70042610   2.861   0.671   0.102 -0.0202 -0.0643  0.4148
   56MOL   C70142611   2.947   0.657   8.017  0.4602  0.6517  0.2619
   56MOL   O70242612   3.062   0.607   0.003 -0.6637 -0.3972  0.1895
   56MOL   O70342613   2.903   0.725   7.915  0.4852  0.1713  0.6231
   56MOL   C70442614   2.838   0.559   0.184 -0.3204  0.1886  0.0535
   56MOL   C70542615   2.764   0.573   0.298 -0.1184  0.1436 -0.0703
   56MOL   H70642616   2.540   0.308   0.565  2.4088  1.7072  1.4615
   56MOL   H70742617   2.544   0.299   0.731  0.7383  1.5071  0.9959
   56MOL   H70842618   2.297   0.222   0.743 -1.4315 -0.3467 -0.9407
   56MOL   H70942619   2.378   0.131   0.619 -0.2383 -0.1616  0.5859
   56MOL   H71042620   2.264   0.289   0.440 -1.6559 -1.1367 -0.0392
   56MOL   H71142621   2.060   0.195   0.645 -0.6086  1.4913  0.8794
   56MOL   H71242622   2.123   0.102   0.519  0.3848 -0.9662  1.3086
   56MOL   H71342623   2.169   0.435   0.671 -1.3044  1.1051 -0.0722
   56MOL   H71442624   2.134   0.478   0.511  1.9876  1.6328 -0.2789
   56MOL   H71542625   2.373   0.500   0.459  1.5041  2.3481 -0.3630
   56MOL   H71642626   2.303   0.619   0.577  2.5191  0.2721  1.6510
   56MOL   H71742627   2.397   0.485   0.761 -1.4894 -0.9252 -0.8856
   56MOL   H71842628   2.630   0.525   0.731 -0.8810 -3.3425 -0.3080
   56MOL   H71942629   2.532   0.663   0.710 -0.0587 -1.0348  1.1568
   56MOL   H72042630   2.694   0.903   0.290  0.0268  1.1174 -3.9730
   56MOL   H72142631   2.828   0.881   0.070 -5.0989 -0.0444 -2.4607
   56MOL   H72242632   2.897   0.473   0.159  2.8345  2.6338 -1.2830
   56MOL   H72342633   2.751   0.487   0.362 -1.4016 -1.2967 -2.1700
   56MOL   C72442634   2.742   0.883   7.555  0.2912 -0.0932 -0.6692
   56MOL   C72542635   2.810   0.788   7.649  0.4022 -0.4995  0.3486
   56MOL   C72642636   2.930   0.851   7.713  0.2902  1.0643  0.0082
   56MOL   C72742637   2.989   0.750   7.805  0.2473 -0.0317  0.0698
   56MOL   C72842638   3.026   0.908   7.608  0.3805  0.1249  0.7010
   56MOL   C72942639   2.953   1.010   7.515  0.2116 -0.5509 -0.0143
   56MOL   C73042640   2.829   0.949   7.448 -0.2547 -0.3864 -0.6619
   56MOL   C73142641   2.745   1.061   7.381 -0.4860  0.4677 -0.1289
   56MOL   O73242642   2.628   1.004   7.326 -0.4422 -0.0099 -0.2211
   56MOL   C73342643   2.639   0.957   7.196 -0.4132  0.3677  0.2516
   56MOL   O73442644   2.742   0.962   7.129 -0.7012  0.0618  0.3626
   56MOL   C73542645   2.507   0.902   7.152 -0.7111 -0.1729 -0.7142
   56MOL   C73642646   2.388   0.930   7.224 -0.2366  0.3227 -0.7182
   56MOL   C73742647   2.272   0.853   7.198  0.1187 -0.8234 -0.0344
   56MOL   C73842648   2.263   0.751   7.107 -0.5092  0.0851  0.1373
   56MOL   C73942649   2.138   0.662   7.112  0.0707 -0.1734 -0.0349
   56MOL   O74042650   2.078   0.645   7.219  0.6952  0.2405 -0.5293
   56MOL   O74142651   2.102   0.616   6.992 -0.0772 -0.2533  0.4986
   56MOL   C74242652   2.374   0.752   7.013  0.4980 -0.5042  0.1485
   56MOL   C74342653   2.502   0.816   7.042  0.9465  0.6718 -0.5595
   56MOL   H74442654   2.693   0.961   7.614 -1.1347 -2.1311  0.9070
   56MOL   H74542655   2.652   0.844   7.508 -1.2494  0.0645  2.0207
   56MOL   H74642656   2.841   0.696   7.599  1.5623  1.1806 -2.1040
   56MOL   H74742657   2.738   0.760   7.725  1.0368  0.4965  1.3386
   56MOL   H74842658   2.901   0.936   7.776  2.2704  0.1167  2.2785
   56MOL   H74942659   3.091   0.779   7.830  0.1450  1.1250 -0.8555
   56MOL   H75042660   3.009   0.656   7.754  1.1119 -0.7922  1.7653
   56MOL   H75142661   3.085   0.834   7.553  1.5304  2.8989 -1.9291
   56MOL   H75242662   3.094   0.971   7.664 -1.1877  0.2041  2.5858
   56MOL   H75342663   2.914   1.088   7.581 -2.6428 -1.1317 -0.9110
   56MOL   H75442664   3.023   1.056   7.447  0.9687 -1.8134 -0.1052
   56MOL   H75542665   2.863   0.872   7.378 -0.2263 -2.5500  1.6505
   56MOL   H75642666   2.810   1.113   7.310 -0.0183 -2.6651 -2.1087
   56MOL   H75742667   2.726   1.134   7.459  0.4370 -0.3409  0.8858
   56MOL   H75842668   2.397   0.992   7.312  2.1596 -0.9593 -0.0251
   56MOL   H75942669   2.188   0.866   7.265  0.4702  0.7222  0.1462
   56MOL   H76042670   2.365   0.685   6.929  0.1020  0.6488 -0.7332
   56MOL   H76142671   2.588   0.800   6.979  1.8114  1.7375  0.3340
   56MOL   H76242672   2.016   0.578   6.989 -0.5571  0.9252 -4.3794
   57MOL     C142673   1.373   3.635   6.559  0.2232 -0.6019 -0.1622
   57MOL     C242674   1.261   3.662   6.665 -0.2431 -0.3421  0.0900
   57MOL     C342675   1.135   3.729   6.599 -0.0871  0.5436  0.7511
   57MOL     C442676   1.029   3.762   6.706  0.4634 -0.2931  0.3423
   57MOL     C542677   1.174   3.847   6.511  0.0099 -0.5748  0.4307
   57MOL     C642678   1.291   3.827   6.416  0.3213  0.9419  0.3068
   57MOL     C742679   1.414   3.760   6.482 -0.1820 -0.5689  0.6027
   57MOL     C842680   1.523   3.736   6.368 -0.7804  0.1517 -0.3058
   57MOL     O942681   1.642   3.670   6.411 -1.0044  0.3799  0.3683
   57MOL    C1042682   1.768   3.705   6.369  0.3319 -0.0734  0.2167
   57MOL    O1142683   1.787   3.789   6.277  0.0424 -0.0067  0.5326
   57MOL    C1242684   1.879   3.638   6.443  0.7316  0.6690  0.1428
   57MOL    C1342685   1.852   3.579   6.565  0.2320 -0.2806 -0.4407
   57MOL    C1442686   1.948   3.503   6.636  0.3262 -0.7313 -0.1449
   57MOL    C1542687   2.074   3.483   6.586 -0.2264  0.0903  0.3897
   57MOL    C1642688   2.180   3.417   6.666  0.4620 -0.2501  0.1688
   57MOL    O1742689   2.290   3.389   6.616 -0.2940  0.0278 -0.0649
   57MOL    O1842690   2.152   3.400   6.794 -0.2528 -0.8379 -0.3131
   57MOL    C1942691   2.105   3.543   6.455  0.0485  0.1172  0.2726
   57MOL    C2042692   2.006   3.620   6.384  0.1879 -0.3093 -0.4342
   57MOL    H2142693   1.345   3.557   6.489  1.0744 -0.9445 -0.1259
   57MOL    H2242694   1.457   3.588   6.611  0.1014 -1.3380 -0.6231
   57MOL    H2342695   1.289   3.717   6.755 -0.0963  0.4524 -0.4304
   57MOL    H2442696   1.224   3.568   6.706  0.9331  0.1793  2.4282
   57MOL    H2542697   1.090   3.655   6.532  0.7995 -0.3767  1.1660
   57MOL    H2642698   1.070   3.823   6.787 -1.0741  2.5133 -0.9438
   57MOL    H2742699   0.983   3.669   6.740 -1.5976  1.5287  2.7538
   57MOL    H2842700   1.204   3.926   6.579  2.2984 -1.4042  0.4022
   57MOL    H2942701   1.084   3.885   6.461  0.2102  0.4562  0.8409
   57MOL    H3042702   1.249   3.759   6.342  2.2086 -1.5737  1.4597
   57MOL    H3142703   1.326   3.919   6.369 -0.5124  1.1383  0.0628
   57MOL    H3242704   1.455   3.820   6.563  1.3924  0.6930 -1.0772
   57MOL    H3342705   1.547   3.829   6.318 -0.0625 -0.1746 -0.5794
   57MOL    H3442706   1.482   3.684   6.281  1.3584  0.9131 -1.7969
   57MOL    H3542707   1.754   3.593   6.607  1.0890  0.9270  1.1725
   57MOL    H3642708   1.925   3.462   6.733  1.8143  2.6516  1.7316
   57MOL    H3742709   2.198   3.534   6.402  1.0052 -0.4236  1.9816
   57MOL    H3842710   2.019   3.663   6.286 -2.3137 -0.0379 -0.6767
   57MOL    H3942711   0.943   3.816   6.669  0.3326 -1.4019 -1.0140
   57MOL    C4042712   2.161   3.402   7.254  0.0872  0.2407 -0.3720
   57MOL    C4142713   2.195   3.435   7.100  0.2704  0.1545  0.0256
   57MOL    C4242714   2.185   3.300   7.012  0.0747 -0.1454 -0.1194
   57MOL    C4342715   2.246   3.333   6.873 -0.2590 -0.4967 -0.2248
   57MOL    C4442716   2.266   3.193   7.075  0.1090 -0.4964  0.1100
   57MOL    C4542717   2.236   3.161   7.228  0.4697 -0.1465 -0.1313
   57MOL    C4642718   2.252   3.295   7.314 -0.0464  0.3874 -0.2077
   57MOL    C4742719   2.236   3.281   7.470  0.2030 -0.4571 -0.1983
   57MOL    O4842720   2.116   3.210   7.508  0.2721 -0.0376 -0.4301
   57MOL    C4942721   2.020   3.283   7.571 -0.3044  0.2483  0.4764
   57MOL    O5042722   2.021   3.406   7.587  0.4586 -0.1314 -0.2853
   57MOL    C5142723   1.911   3.201   7.614  1.0970  0.1637  0.2064
   57MOL    C5242724   1.790   3.263   7.662  0.1633  0.2303 -0.5253
   57MOL    C5342725   1.671   3.185   7.687  0.1724 -0.4004  0.0472
   57MOL    C5442726   1.675   3.047   7.681  0.2152  0.1060  0.0307
   57MOL    C5542727   1.555   2.959   7.698  0.6048 -0.1393  0.0704
   57MOL    O5642728   1.563   2.836   7.718 -0.0629 -0.0100 -0.6004
   57MOL    O5742729   1.439   3.029   7.698  0.1224  0.9362 -0.4027
   57MOL    C5842730   1.801   2.983   7.658 -0.3978  0.6744  0.3073
   57MOL    C5942731   1.915   3.059   7.621  1.0661  0.0464  0.6485
   57MOL    H6042732   2.060   3.377   7.287 -0.2793  2.2886  0.1501
   57MOL    H6142733   2.179   3.493   7.311 -1.7966 -0.0947  0.7910
   57MOL    H6242734   2.298   3.467   7.084  0.1385  2.1354  2.6805
   57MOL    H6342735   2.134   3.516   7.060 -1.0628 -1.0579 -0.4154
   57MOL    H6442736   2.082   3.265   7.018 -0.0760  0.3843  0.3904
   57MOL    H6542737   2.278   3.240   6.826 -2.8488 -0.5978 -1.8604
   57MOL    H6642738   2.333   3.398   6.886  0.1945 -1.1581  0.0443
   57MOL    H6742739   2.375   3.201   7.065 -0.1409  2.3143 -0.7373
   57MOL    H6842740   2.236   3.106   7.016  0.8569 -2.6955  2.8087
   57MOL    H6942741   2.131   3.134   7.244  0.4637  0.4211  0.8333
   57MOL    H7042742   2.303   3.084   7.268  0.5125 -0.2270 -0.3585
   57MOL    H7142743   2.354   3.332   7.321 -0.8017  2.5854 -0.4607
   57MOL    H7242744   2.251   3.378   7.518 -3.6015  0.1910 -0.1769
   57MOL    H7342745   2.315   3.214   7.503  1.6424  1.4782  0.3912
   57MOL    H7442746   1.779   3.370   7.669  0.9280  0.2708  0.1543
   57MOL    H7542747   1.578   3.227   7.721  0.1213 -0.5840  0.1324
   57MOL    H7642748   1.813   2.875   7.658  1.5962  0.8666 -0.1719
   57MOL    H7742749   2.013   3.020   7.595  0.7905  0.5218 -1.1811
   57MOL    C7842750   1.032   2.920   7.436  0.0544  0.2443  0.6684
   57MOL    C7942751   1.096   2.923   7.573 -0.7095  1.0234 -0.0717
   57MOL    C8042752   1.249   2.945   7.556 -0.3913  0.1079 -0.9247
   57MOL    C8142753   1.308   2.972   7.696  0.5356  0.0478  0.0539
   57MOL    C8242754   1.311   2.832   7.481 -0.5958  0.6978  0.1740
   57MOL    C8342755   1.246   2.809   7.340 -0.2998 -0.2592  0.0013
   57MOL    C8442756   1.094   2.802   7.353  0.2014  0.3972  0.1804
   57MOL    C8542757   1.030   2.783   7.211  0.6717  0.6562 -0.3166
   57MOL    O8642758   1.006   2.652   7.164  0.1774 -0.3326  0.1856
   57MOL    C8742759   0.934   2.627   7.057 -0.7074  0.0407  0.0922
   57MOL    O8842760   0.872   2.718   6.998  0.3369  0.3787 -0.8054
   57MOL    C8942761   0.933   2.483   7.021 -0.2129 -0.4741 -0.6713
   57MOL    C9042762   1.027   2.395   7.074  0.5378 -0.5460 -0.7084
   57MOL    C9142763   1.019   2.260   7.046 -0.0011  0.3907 -0.0438
   57MOL    C9242764   0.916   2.206   6.967 -0.3191  0.6991 -0.3708
   57MOL    C9342765   0.900   2.060   6.936 -0.3266 -0.5885  0.2331
   57MOL    O9442766   0.811   2.018   6.862 -0.1312 -0.0754 -0.3642
   57MOL    O9542767   0.984   1.991   7.006 -0.3127  0.3275  0.3833
   57MOL    C9642768   0.829   2.295   6.899 -0.0583  0.0120 -0.5584
   57MOL    C9742769   0.840   2.428   6.928  0.2171 -0.3021  0.5589
   57MOL    H9842770   1.053   3.017   7.392  0.8526 -1.0501 -1.9009
   57MOL    H9942771   0.924   2.904   7.435  0.1532 -0.4862  1.6412
   57MOL   H10042772   1.072   2.836   7.634 -0.5090  1.9721  1.3927
   57MOL   H10142773   1.043   3.009   7.616 -1.7471 -0.0371  0.8117
   57MOL   H10242774   1.245   3.045   7.513  0.2321  1.6308  2.3321
   57MOL   H10342775   1.312   2.878   7.750  0.7963  0.4988  0.8299
   57MOL   H10442776   1.241   3.042   7.747  0.1221  1.3583 -2.2164
   57MOL   H10542777   1.308   2.740   7.539 -2.2609  0.8301  0.3081
   57MOL   H10642778   1.414   2.854   7.453 -0.3419 -0.7832 -0.0956
   57MOL   H10742779   1.261   2.891   7.269  0.0020 -1.9943 -1.9763
   57MOL   H10842780   1.276   2.716   7.293 -0.8518 -0.9536  1.0040
   57MOL   H10942781   1.071   2.710   7.407  3.4892 -0.7848 -0.2867
   57MOL   H11042782   1.076   2.850   7.138  0.0228 -1.2568 -2.5534
   57MOL   H11142783   0.926   2.811   7.226  0.0190 -1.2936 -1.0644
   57MOL   H11242784   1.107   2.418   7.143  0.5617 -2.5568 -0.0518
   57MOL   H11342785   1.091   2.187   7.081  1.1011  0.9361 -1.1590
   57MOL   H11442786   0.768   2.262   6.816 -0.3227  0.0873 -0.3967
   57MOL   H11542787   0.776   2.503   6.884 -2.4250 -1.1088  2.8981
   57MOL   C11642788   1.188   1.583   6.814 -0.3916  0.0977  0.6654
   57MOL   C11742789   1.081   1.643   6.905 -0.8923 -0.3697 -0.5303
   57MOL   C11842790   1.105   1.794   6.908 -0.5519 -0.6944  0.2458
   57MOL   C11942791   0.994   1.847   6.999  1.0553 -0.4468 -0.3389
   57MOL   C12042792   1.242   1.827   6.963 -0.2623 -0.2369 -0.7862
   57MOL   C12142793   1.357   1.757   6.897 -0.0421 -0.5575  0.1526
   57MOL   C12242794   1.334   1.606   6.869  0.4480 -0.3677 -0.2796
   57MOL   C12342795   1.439   1.540   6.774 -0.5531  0.7555  0.0832
   57MOL   O12442796   1.567   1.585   6.812 -0.0727 -0.2115  0.3466
   57MOL   C12542797   1.676   1.527   6.762 -1.3444 -0.2068  0.6198
   57MOL   O12642798   1.680   1.409   6.729  0.1008 -0.1615 -0.3807
   57MOL   C12742799   1.794   1.619   6.763 -0.8175 -0.2910  0.0546
   57MOL   C12842800   1.927   1.568   6.745 -0.8285  0.6282 -0.2167
   57MOL   C12942801   2.038   1.659   6.743  0.4203  0.0182  1.3434
   57MOL   C13042802   2.022   1.797   6.757 -0.3580  0.2403  0.3178
   57MOL   C13142803   2.133   1.899   6.770  0.2521  0.0330  0.3113
   57MOL   O13242804   2.252   1.875   6.775  0.4351  0.2444  0.4582
   57MOL   O13342805   2.084   2.018   6.770 -0.4417  0.0812 -0.1469
   57MOL   C13442806   1.887   1.847   6.767 -0.1669 -0.3948  0.5225
   57MOL   C13542807   1.777   1.761   6.768 -0.2552  0.2876 -0.4999
   57MOL   H13642808   1.180   1.628   6.715  1.0463 -3.1668 -0.9913
   57MOL   H13742809   1.174   1.476   6.803 -1.3687  0.2386  0.4755
   57MOL   H13842810   1.074   1.600   7.004 -0.5101  0.2777 -0.2172
   57MOL   H13942811   0.983   1.627   6.860 -1.6249  1.0626  0.4912
   57MOL   H14042812   1.090   1.829   6.806  0.0848  1.0569  0.7498
   57MOL   H14142813   1.010   1.805   7.098 -2.3740  0.3252  0.6000
   57MOL   H14242814   0.902   1.808   6.956  1.8245 -1.4780 -1.1136
   57MOL   H14342815   1.234   1.807   7.070 -2.9389  0.5737 -0.8040
   57MOL   H14442816   1.258   1.935   6.966  1.5023 -0.4942 -0.1046
   57MOL   H14542817   1.384   1.813   6.808 -1.6889 -1.0100 -0.6619
   57MOL   H14642818   1.440   1.772   6.966 -2.0318  2.2218  2.0413
   57MOL   H14742819   1.336   1.551   6.963  0.4201  1.5355  0.8831
   57MOL   H14842820   1.437   1.570   6.669  0.2356 -0.3513 -0.2594
   57MOL   H14942821   1.423   1.432   6.778 -0.1099  0.7236  1.4482
   57MOL   H15042822   1.938   1.461   6.750 -1.0890  0.5557 -1.1128
   57MOL   H15142823   2.140   1.624   6.732  0.6512  1.2009 -0.4344
   57MOL   H15242824   1.865   1.953   6.770  0.9219 -0.1698  0.9154
   57MOL   H15342825   1.678   1.802   6.759  0.7273  2.5257 -1.5116
   57MOL   C15442826   2.171   2.323   6.454 -0.2311  0.3375 -0.4045
   57MOL   C15542827   2.117   2.250   6.579  0.1035 -0.3674  0.1560
   57MOL   C15642828   2.229   2.190   6.658  0.8969 -1.0286  0.2879
   57MOL   C15742829   2.178   2.133   6.787 -0.0991 -0.3147  0.2473
   57MOL   C15842830   2.321   2.104   6.570  0.7935 -0.0099  0.0819
   57MOL   C15942831   2.383   2.176   6.446 -0.1147 -0.1021 -0.8567
   57MOL   C16042832   2.277   2.260   6.368 -0.0059  0.3962  0.2286
   57MOL   C16142833   2.342   2.364   6.271  0.3300  0.2626 -0.1456
   57MOL   O16242834   2.250   2.457   6.210 -0.0912 -0.6197 -0.0586
   57MOL   C16342835   2.171   2.418   6.113  0.0983  0.0189  0.1790
   57MOL   O16442836   2.181   2.316   6.043 -0.2496 -0.4776  0.5564
   57MOL   C16542837   2.066   2.524   6.089  0.2287  0.0378 -0.3385
   57MOL   C16642838   2.090   2.660   6.127 -0.4562  0.5710 -0.7127
   57MOL   C16742839   1.985   2.756   6.117  0.1473 -0.4218 -0.1094
   57MOL   C16842840   1.859   2.714   6.072 -0.2169 -0.1204 -0.1927
   57MOL   C16942841   1.743   2.807   6.083  0.3475  0.0496 -0.9634
   57MOL   O17042842   1.623   2.773   6.062 -0.9916  0.2900  0.3321
   57MOL   O17142843   1.774   2.927   6.111 -0.2459  0.1274 -0.0218
   57MOL   C17242844   1.836   2.583   6.028  0.5519  0.2660 -0.3095
   57MOL   C17342845   1.940   2.485   6.033 -0.6047 -0.3562  0.6148
   57MOL   H17442846   2.210   2.415   6.500  0.1076 -0.5428  1.1163
   57MOL   H17542847   2.090   2.378   6.406 -1.0624 -1.4356 -1.0403
   57MOL   H17642848   2.068   2.166   6.531 -1.5427  2.3176 -3.0899
   57MOL   H17742849   2.043   2.302   6.640  1.8153  0.9646  1.1577
   57MOL   H17842850   2.298   2.270   6.686 -0.9553  0.6927  0.0939
   57MOL   H17942851   2.125   2.213   6.837 -0.3959  0.1961 -0.8802
   57MOL   H18042852   2.261   2.108   6.854 -1.1926 -1.1445  1.3120
   57MOL   H18142853   2.265   2.019   6.533  0.1515 -1.0715  3.2970
   57MOL   H18242854   2.399   2.060   6.632  1.5834 -0.3357 -1.1272
   57MOL   H18342855   2.454   2.244   6.492 -1.3166  0.6562 -0.0902
   57MOL   H18442856   2.448   2.113   6.386 -0.3785 -0.5288 -0.6988
   57MOL   H18542857   2.221   2.180   6.318 -2.4600  1.6015  0.9708
   57MOL   H18642858   2.405   2.323   6.192 -0.9546 -0.4563 -0.8156
   57MOL   H18742859   2.407   2.425   6.334  0.4807 -1.0029  0.9465
   57MOL   H18842860   2.183   2.682   6.178 -1.1048  2.1094 -0.1613
   57MOL   H18942861   1.993   2.846   6.175 -0.2639 -0.4866  0.0551
   57MOL   H19042862   1.744   2.541   5.990  2.0670 -2.7416 -0.8428
   57MOL   H19142863   1.925   2.382   6.005 -0.0158 -0.3076  0.1006
   57MOL   C19242864   1.749   3.258   6.409  0.3882  0.5049  0.4958
   57MOL   C19342865   1.767   3.188   6.272 -0.1829  0.5177  0.6679
   57MOL   C19442866   1.644   3.117   6.221  0.0753 -0.8947 -0.1304
   57MOL   C19542867   1.686   3.036   6.091 -0.2066  0.3904  0.0852
   57MOL   C19642868   1.592   3.018   6.327  0.2564  0.5282  0.4070
   57MOL   C19742869   1.561   3.095   6.452  0.1928 -0.3069 -0.2230
   57MOL   C19842870   1.680   3.167   6.513  0.2131 -0.1949  0.3009
   57MOL   C19942871   1.654   3.235   6.650  0.2847  0.0457 -0.3159
   57MOL   O20042872   1.717   3.153   6.754 -0.9973 -0.4247 -0.5861
   57MOL   C20142873   1.649   3.061   6.815 -0.2183  0.0638  0.1124
   57MOL   O20242874   1.537   3.026   6.791 -0.2316  0.2124 -0.1608
   57MOL   C20342875   1.732   2.995   6.920  0.2693 -0.0984 -0.8314
   57MOL   C20442876   1.865   3.044   6.950 -0.1288 -0.4444 -0.6535
   57MOL   C20542877   1.939   2.976   7.053  0.3309 -0.7334  0.3039
   57MOL   C20642878   1.887   2.866   7.119 -0.7457  0.2270  0.2699
   57MOL   C20742879   1.962   2.804   7.233  0.7452  0.1483 -0.3333
   57MOL   O20842880   2.064   2.840   7.294 -0.4089 -0.0488 -0.7109
   57MOL   O20942881   1.902   2.687   7.267 -0.0449  0.1349 -0.5174
   57MOL   C21042882   1.753   2.826   7.097 -0.1824  0.1055  0.1366
   57MOL   C21142883   1.679   2.886   6.990  0.6007 -0.2229  0.4433
   57MOL   H21242884   1.687   3.344   6.383 -0.6061 -0.5117 -0.5884
   57MOL   H21342885   1.848   3.294   6.434  0.3814 -0.3558  1.8039
   57MOL   H21442886   1.847   3.116   6.286 -1.0251 -0.5881 -0.1287
   57MOL   H21542887   1.789   3.255   6.188  0.6506  0.6665  0.9997
   57MOL   H21642888   1.572   3.193   6.190  0.8446 -0.5225 -1.0478
   57MOL   H21742889   1.732   3.100   6.016  0.1897 -0.4576 -0.4118
   57MOL   H21842890   1.591   3.013   6.044 -0.3009  1.8399 -0.4383
   57MOL   H21942891   1.662   2.937   6.349 -1.7464 -0.9821  1.3704
   57MOL   H22042892   1.501   2.973   6.289  1.0817 -0.9849  0.1743
   57MOL   H22142893   1.494   3.172   6.413  1.1817  1.4594  1.4094
   57MOL   H22242894   1.511   3.028   6.522  0.6722 -0.9653 -0.5069
   57MOL   H22342895   1.746   3.083   6.534  0.0860 -0.8174 -1.6788
   57MOL   H22442896   1.552   3.269   6.669  0.2668  0.3221 -0.9028
   57MOL   H22542897   1.707   3.329   6.638 -0.2951  0.4412  0.1690
   57MOL   H22642898   1.902   3.132   6.902 -1.7405  0.2313 -0.6989
   57MOL   H22742899   2.037   3.016   7.077 -0.8067  2.2684  0.2257
   57MOL   H22842900   1.699   2.744   7.142  0.4293  0.0791  0.8289
   57MOL   H22942901   1.575   2.857   6.983  1.3458 -2.5452 -1.9426
   57MOL   C23042902   1.634   2.460   7.536 -0.1423 -0.4946  0.0381
   57MOL   C23142903   1.736   2.571   7.492 -0.0387  0.3401 -0.6694
   57MOL   C23242904   1.850   2.505   7.418  0.5041 -0.4547 -0.0640
   57MOL   C23342905   1.951   2.611   7.370 -0.1864  0.2761 -0.2416
   57MOL   C23442906   1.924   2.394   7.500  0.2256 -0.3477 -0.2355
   57MOL   C23542907   1.816   2.297   7.549  0.3139  0.0750 -0.6499
   57MOL   C23642908   1.705   2.363   7.631  0.6739 -0.3047  0.4358
   57MOL   C23742909   1.604   2.270   7.702 -0.0565 -0.3359  0.0671
   57MOL   O23842910   1.551   2.165   7.621 -0.9541 -0.3725 -0.2421
   57MOL   C23942911   1.502   2.054   7.682 -0.8387  0.9624 -1.0093
   57MOL   O24042912   1.497   2.043   7.807  0.1075  0.0221  0.2456
   57MOL   C24142913   1.460   1.945   7.593 -0.0304  0.0228  0.4089
   57MOL   C24242914   1.365   1.845   7.642  0.7479 -0.0027  0.0037
   57MOL   C24342915   1.319   1.744   7.559 -0.3055  0.5977 -0.4515
   57MOL   C24442916   1.352   1.749   7.422  0.3721  0.0172  0.1508
   57MOL   C24542917   1.301   1.638   7.334  0.5855  0.1485 -0.7569
   57MOL   O24642918   1.354   1.602   7.226  0.0149 -0.2894  0.0346
   57MOL   O24742919   1.182   1.596   7.369  0.2382  0.1032  0.2492
   57MOL   C24842920   1.429   1.848   7.368 -0.0301 -0.1069 -0.0876
   57MOL   C24942921   1.487   1.942   7.455  0.7203 -0.6840 -0.4991
   57MOL   H25042922   1.585   2.413   7.450 -1.0779 -0.5596  0.6058
   57MOL   H25142923   1.560   2.516   7.592 -0.4587 -0.1195 -0.7505
   57MOL   H25242924   1.760   2.624   7.584  0.1386  0.5147 -0.8170
   57MOL   H25342925   1.684   2.643   7.429 -0.8296  1.2644  0.9939
   57MOL   H25442926   1.809   2.458   7.328  3.1133  1.0135 -2.0949
   57MOL   H25542927   2.041   2.556   7.344  0.0833 -0.4036  2.0150
   57MOL   H25642928   1.989   2.670   7.454  2.0016 -2.2652  0.6178
   57MOL   H25742929   1.980   2.438   7.583  1.1414 -0.6343 -0.7066
   57MOL   H25842930   1.996   2.339   7.440  0.1704 -0.8070  0.1190
   57MOL   H25942931   1.779   2.236   7.467 -3.3377 -1.8031  2.2033
   57MOL   H26042932   1.861   2.218   7.610 -0.5173 -0.8583 -1.2393
   57MOL   H26142933   1.753   2.413   7.716 -2.2469  1.2669  1.2310
   57MOL   H26242934   1.528   2.338   7.739 -0.7020 -0.9903 -0.0489
   57MOL   H26342935   1.660   2.228   7.786  3.7477 -1.8941 -3.0938
   57MOL   H26442936   1.341   1.858   7.746  0.3103  2.3226 -0.3744
   57MOL   H26542937   1.255   1.667   7.601 -0.6731  2.5081  2.6852
   57MOL   H26642938   1.452   1.846   7.263 -2.1539 -0.5672 -0.5798
   57MOL   H26742939   1.557   2.014   7.416 -0.8461  0.0396 -2.0623
   57MOL   C26842940   0.868   1.219   7.439 -0.9160  0.4510  0.5707
   57MOL   C26942941   0.959   1.291   7.340 -0.2153 -0.0494 -0.0292
   57MOL   C27042942   1.020   1.418   7.396 -0.5581  0.3662 -0.1720
   57MOL   C27142943   1.112   1.493   7.294 -0.2351  0.3034 -0.3336
   57MOL   C27242944   0.906   1.512   7.459  0.1846  0.0039  0.1049
   57MOL   C27342945   0.810   1.442   7.558 -0.3389  0.3141 -0.1439
   57MOL   C27442946   0.757   1.317   7.488 -0.2632 -0.0222  0.0120
   57MOL   C27542947   0.664   1.237   7.581  0.4537  0.0816 -0.5641
   57MOL   O27642948   0.743   1.179   7.692  0.4011  0.3232  0.1350
   57MOL   C27742949   0.683   1.158   7.812 -0.4969  0.6476 -0.6570
   57MOL   O27842950   0.568   1.187   7.841  0.5652 -0.3920 -0.1844
   57MOL   C27942951   0.780   1.100   7.913  0.3068 -0.2255 -0.3659
   57MOL   C28042952   0.737   1.085   0.019  0.0053  0.2251 -0.0809
   57MOL   C28142953   0.825   1.063   0.125  0.1345  0.2691 -0.6127
   57MOL   C28242954   0.965   1.061   0.099 -0.1390  0.4596  0.3446
   57MOL   C28342955   1.064   1.049   0.205  0.4048  0.0497 -0.1541
   57MOL   O28442956   1.032   1.031   0.323  0.2160 -0.1185 -0.6695
   57MOL   O28542957   1.192   1.055   0.167 -0.0615  0.1659  0.6377
   57MOL   C28642958   1.008   1.063   8.000  0.4044 -0.7655  0.2864
   57MOL   C28742959   0.917   1.082   7.893 -0.1064  0.3105 -0.1044
   57MOL   H28842960   0.929   1.177   7.518 -0.6405  0.8750  0.5847
   57MOL   H28942961   0.817   1.134   7.392 -1.5440  1.3725 -0.4523
   57MOL   H29042962   0.884   1.298   7.262 -3.7138 -0.0086  3.1983
   57MOL   H29142963   1.040   1.241   7.287 -0.0507 -0.3041  0.4576
   57MOL   H29242964   1.086   1.385   7.477 -0.5187 -0.7294 -0.6504
   57MOL   H29342965   1.049   1.547   7.223 -1.1514 -1.1439 -0.6265
   57MOL   H29442966   1.180   1.431   7.237 -1.5876 -1.3167 -0.1989
   57MOL   H29542967   0.852   1.549   7.373 -1.8239  0.1367  1.4041
   57MOL   H29642968   0.954   1.597   7.507 -1.9186  0.4263  1.5206
   57MOL   H29742969   0.859   1.410   7.650 -0.6590  2.9742  0.9915
   57MOL   H29842970   0.732   1.508   7.596  1.9476  2.7590  0.5237
   57MOL   H29942971   0.700   1.350   7.400 -2.0376 -0.2945  1.0447
   57MOL   H30042972   0.618   1.153   7.530 -1.7232  0.1358  1.2236
   57MOL   H30142973   0.590   1.306   7.621 -0.7905 -2.2073  1.1549
   57MOL   H30242974   0.634   1.112   0.042 -1.0259 -2.4486 -1.3258
   57MOL   H30342975   0.790   1.074   0.226 -0.8143 -0.1965 -0.8850
   57MOL   H30442976   1.113   1.058   7.975  0.1098 -0.6772 -1.0066
   57MOL   H30542977   0.956   1.081   7.792  0.0187  1.4519 -0.0690
   57MOL   C30642978   1.594   1.268   0.399 -0.2328  0.6990  0.1332
   57MOL   C30742979   1.489   1.142   0.392  0.1737 -0.1948 -0.1945
   57MOL   C30842980   1.393   1.155   0.272  0.4852 -0.0603 -0.7373
   57MOL   C30942981   1.292   1.037   0.267 -0.0938  1.0838  0.7890
   57MOL   C31042982   1.317   1.292   0.283 -0.5203  0.4923 -0.2210
   57MOL   C31142983   1.422   1.412   0.278 -0.0318 -0.0642 -0.2682
   57MOL   C31242984   1.512   1.402   0.402 -0.3613  0.1083  0.1599
   57MOL   C31342985   1.593   1.534   0.412 -0.7538 -0.2953  0.3257
   57MOL   O31442986   1.622   1.602   0.287 -0.0966  0.0808 -0.2506
   57MOL   C31542987   1.724   1.561   0.206  0.4213 -0.3440 -0.3502
   57MOL   O31642988   1.787   1.459   0.225  0.5501  0.5071 -0.2047
   57MOL   C31742989   1.753   1.649   0.093 -0.3240  0.0374  0.3164
   57MOL   C31842990   1.682   1.770   0.064  0.7113 -0.1219 -0.0764
   57MOL   C31942991   1.730   1.856   7.995  0.0219  0.0667 -0.1734
   57MOL   C32042992   1.840   1.816   7.912  0.6322 -0.7244 -0.4820
   57MOL   C32142993   1.888   1.896   7.798 -0.0264 -0.1292  0.6037
   57MOL   O32242994   1.819   1.996   7.760 -0.4939  0.3707 -0.4339
   57MOL   O32342995   2.007   1.849   7.744  0.2247  0.2475  0.0775
   57MOL   C32442996   1.897   1.688   7.939 -0.0067  0.8029  0.0285
   57MOL   C32542997   1.867   1.615   0.018  0.7058  0.0994 -0.0201
   57MOL   H32642998   1.655   1.256   0.310 -1.8792 -2.5734 -0.6522
   57MOL   H32742999   1.652   1.253   0.490  2.2503 -0.2747 -1.5788
   57MOL   H32843000   1.440   1.142   0.489  2.8022  0.1580  1.1716
   57MOL   H32943001   1.543   1.047   0.391  0.2927 -0.1261 -0.7163
   57MOL   H33043002   1.450   1.146   0.180  2.3984 -0.3004  0.4372
   57MOL   H33143003   1.251   1.005   0.363 -0.5499 -0.2225  0.1682
   57MOL   H33243004   1.357   0.953   0.241  0.9772  1.9086  0.7568
   57MOL   H33343005   1.258   1.298   0.374  0.4133  1.3835  0.3401
   57MOL   H33443006   1.255   1.307   0.195 -1.0388  0.4601  0.1417
   57MOL   H33543007   1.482   1.405   0.187  2.4738  0.8917  1.2710
   57MOL   H33643008   1.363   1.503   0.287 -2.4792 -1.7515  1.4240
   57MOL   H33743009   1.459   1.401   0.498 -0.7138  0.9892 -0.0261
   57MOL   H33843010   1.693   1.522   0.454 -0.8382  1.8400  1.2122
   57MOL   H33943011   1.529   1.603   0.467 -0.9896 -0.0570 -0.2461
   57MOL   H34043012   1.600   1.784   0.134  1.2417 -1.3659  0.8198
   57MOL   H34143013   1.686   1.954   7.979  3.2595  1.0445 -3.8722
   57MOL   H34243014   1.989   1.659   7.889  0.9742  3.0347  0.4687
   57MOL   H34343015   1.922   1.524   0.032 -0.7438 -0.8302 -0.2802
   57MOL   C34443016   2.369   2.154   7.632 -0.3571 -0.4297  0.1506
   57MOL   C34543017   2.238   2.090   7.573 -0.7373 -0.8590  0.4319
   57MOL   C34643018   2.205   1.971   7.664  0.0466  0.4283 -0.6300
   57MOL   C34743019   2.068   1.912   7.623 -0.7083 -0.5979 -0.5422
   57MOL   C34843020   2.312   1.867   7.692 -0.2877  1.3882 -0.1201
   57MOL   C34943021   2.435   1.938   7.741  0.1978  0.0746 -0.1393
   57MOL   C35043022   2.478   2.049   7.639 -0.2044  0.3498 -0.5940
   57MOL   C35143023   2.614   2.109   7.667 -0.1411 -0.1104  0.3114
   57MOL   O35243024   2.616   2.166   7.792 -0.3834  0.1367  0.0142
   57MOL   C35343025   2.720   2.159   7.874 -0.6427 -0.5597  0.4016
   57MOL   O35443026   2.839   2.141   7.841  0.3504  0.1749  0.1691
   57MOL   C35543027   2.681   2.174   8.016 -0.6095  0.0052  0.3932
   57MOL   C35643028   2.774   2.204   0.084  0.4079  0.0765 -0.0481
   57MOL   C35743029   2.741   2.211   0.222 -0.5053  0.1350  0.2520
   57MOL   C35843030   2.603   2.188   0.261 -0.0920 -0.1552 -0.5684
   57MOL   C35943031   2.564   2.203   0.405 -0.1672  0.5202 -0.9447
   57MOL   O36043032   2.452   2.179   0.449  0.4104  0.0586 -0.0951
   57MOL   O36143033   2.660   2.248   0.476  0.2140  0.3563 -0.1181
   57MOL   C36243034   2.514   2.168   0.158  0.0533 -0.2282 -0.6271
   57MOL   C36343035   2.548   2.155   0.023  0.0367 -0.2050 -0.6207
   57MOL   H36443036   2.352   2.203   7.728 -0.7521 -0.6990  0.2215
   57MOL   H36543037   2.401   2.234   7.565  1.1537 -0.5835  0.6757
   57MOL   H36643038   2.250   2.056   7.470  3.2416  0.1494  0.5072
   57MOL   H36743039   2.163   2.169   7.566 -1.4544 -1.6127 -0.6726
   57MOL   H36843040   2.177   2.019   7.758 -2.0607 -0.3919 -0.8175
   57MOL   H36943041   2.075   1.840   7.542  0.7565  0.7599 -1.6469
   57MOL   H37043042   2.016   2.002   7.590  2.1030  1.2187 -0.2380
   57MOL   H37143043   2.331   1.816   7.597 -0.4702  0.4749  0.3338
   57MOL   H37243044   2.287   1.794   7.769  0.5362  1.0389 -0.1776
   57MOL   H37343045   2.418   1.981   7.840 -1.2783 -0.6710 -0.0531
   57MOL   H37443046   2.515   1.863   7.746  0.5713  0.3245 -1.8968
   57MOL   H37543047   2.492   1.994   7.546  1.2013  1.0234 -0.7884
   57MOL   H37643048   2.630   2.189   7.595 -1.0254 -0.9527 -0.8194
   57MOL   H37743049   2.692   2.033   7.657 -1.1378 -1.0312 -0.4906
   57MOL   H37843050   2.880   2.221   0.072  0.9006 -2.0845  0.9418
   57MOL   H37943051   2.825   2.228   0.287 -0.2029  3.0612 -0.8589
   57MOL   H38043052   2.410   2.148   0.182  0.4393 -2.7174 -0.8919
   57MOL   H38143053   2.477   2.131   7.978  0.3309  0.8673 -1.2296
   57MOL   C38243054   3.004   2.225   0.757 -0.2544 -0.1533 -1.0656
   57MOL   C38343055   2.863   2.196   0.699  0.5023 -0.3484 -0.1731
   57MOL   C38443056   2.782   2.320   0.663  0.0112  1.4393 -0.3370
   57MOL   C38543057   2.644   2.280   0.616 -0.5252 -0.1572 -0.4074
   57MOL   C38643058   2.768   2.408   0.788 -0.3766 -0.1513 -0.2497
   57MOL   C38743059   2.909   2.436   0.852  0.9474 -0.8032  0.8079
   57MOL   C38843060   2.992   2.312   0.882 -0.5195 -0.2711  0.0196
   57MOL   C38943061   3.132   2.350   0.934  0.0181  0.8147  0.3598
   57MOL   O39043062   3.185   2.227   0.987 -0.1795 -0.2922 -0.0626
   57MOL   C39143063   3.233   2.218   1.122  0.0758  0.3065  0.2281
   57MOL   O39243064   3.248   2.323   1.189 -0.0937  0.3733 -0.1533
   57MOL   C39343065   3.260   2.079   1.161 -0.5283  0.2343  0.2137
   57MOL   C39443066   3.292   2.046   1.299  0.5254 -0.3625  0.4507
   57MOL   C39543067   3.324   1.912   1.337 -1.3339 -0.0796 -0.0913
   57MOL   C39643068   3.334   1.814   1.241 -0.0854 -0.0798  0.0889
   57MOL   C39743069   3.382   1.679   1.274 -0.2327 -0.1616  0.0242
   57MOL   O39843070   3.364   1.588   1.190 -0.1810  0.2717  0.4931
   57MOL   O39943071   3.431   1.667   1.398  0.3803  0.1426  0.0410
   57MOL   C40043072   3.304   1.848   1.109  0.1602 -0.8527  0.4707
   57MOL   C40143073   3.250   1.971   1.071  0.0752  0.3684 -0.2429
   57MOL   H40243074   3.065   2.272   0.680  0.1597  0.6033 -0.2838
   57MOL   H40343075   3.039   2.125   0.784  0.7664  0.5251  0.1115
   57MOL   H40443076   2.811   2.150   0.783  1.3145 -0.2408  0.4019
   57MOL   H40543077   2.860   2.116   0.626  3.2517  0.5077 -1.3103
   57MOL   H40643078   2.840   2.375   0.589  0.7613  1.2238  0.0873
   57MOL   H40743079   2.580   2.368   0.625  1.5337  1.3881 -0.3606
   57MOL   H40843080   2.612   2.200   0.682  0.2716 -1.5062 -1.6407
   57MOL   H40943081   2.710   2.364   0.870  0.4134  1.6260  1.3082
   57MOL   H41043082   2.725   2.506   0.769  1.6529  1.5093  3.1062
   57MOL   H41143083   2.958   2.511   0.790 -1.4037  0.3676  0.3323
   57MOL   H41243084   2.896   2.482   0.950 -1.0472  1.5472 -0.5137
   57MOL   H41343085   2.934   2.256   0.956 -0.7681 -1.0838 -0.7789
   57MOL   H41443086   3.111   2.428   1.008 -0.5495  0.4035  0.6344
   57MOL   H41543087   3.188   2.389   0.850  1.7527 -3.8127 -0.7954
   57MOL   H41643088   3.290   2.121   1.377 -0.7389 -0.0676  0.1376
   57MOL   H41743089   3.343   1.898   1.442  0.1950  0.9423 -0.2232
   57MOL   H41843090   3.304   1.775   1.029 -1.6426  0.0611 -0.3808
   57MOL   H41943091   3.237   1.982   0.964 -0.3858  0.1656 -0.2081
   57MOL   C42043092   3.375   1.411   1.826 -0.2528 -0.2002 -0.6918
   57MOL   C42143093   3.453   1.415   1.694 -0.5080 -0.0935  0.0608
   57MOL   C42243094   3.402   1.531   1.605 -0.2851 -0.0987 -0.3507
   57MOL   C42343095   3.472   1.539   1.462  0.1831 -0.3129  0.2778
   57MOL   C42443096   3.248   1.508   1.584 -0.4091  0.3476  0.0210
   57MOL   C42543097   3.173   1.492   1.718  0.2869 -0.3199 -0.4825
   57MOL   C42643098   3.224   1.377   1.803 -0.6310  0.5211 -0.2479
   57MOL   C42743099   3.129   1.352   1.926 -0.7028 -0.1959  0.0077
   57MOL   O42843100   3.187   1.262   2.012 -0.4172 -0.0326  0.0408
   57MOL   C42943101   3.193   1.130   1.985 -0.4821 -0.0494  0.6328
   57MOL   O43043102   3.158   1.066   1.887  0.1154 -0.5759  0.2193
   57MOL   C43143103   3.273   1.062   2.094  0.4086 -0.3661  0.2467
   57MOL   C43243104   3.357   0.955   2.066  0.0539  0.4092 -0.4356
   57MOL   C43343105   3.451   0.902   2.152  0.5494 -1.1414 -0.1200
   57MOL   C43443106   3.456   0.948   2.289 -0.0355  0.0840 -1.1296
   57MOL   C43543107   3.546   0.896   2.385 -0.0375 -0.1191 -0.8049
   57MOL   O43643108   3.519   0.862   2.499 -0.4400  0.7960 -0.8177
   57MOL   O43743109   3.669   0.889   2.325  0.1289  0.4233  0.1111
   57MOL   C43843110   3.369   1.057   2.323 -0.7179  0.0524 -0.2880
   57MOL   C43943111   3.287   1.115   2.225 -0.3128  0.1639  0.2214
   57MOL   H44043112   3.389   1.505   1.878  2.6892 -1.3005  0.5888
   57MOL   H44143113   3.424   1.333   1.884  1.0071  0.8219 -0.3711
   57MOL   H44243114   3.458   1.313   1.655 -0.2757  0.0119 -0.1916
   57MOL   H44343115   3.554   1.447   1.718 -0.5386  1.6848 -2.0010
   57MOL   H44443116   3.415   1.623   1.663  0.2507  0.7438 -1.7893
   57MOL   H44543117   3.439   1.449   1.411  0.8592 -0.3483 -0.1064
   57MOL   H44643118   3.581   1.539   1.469  0.1948  0.5305  0.1362
   57MOL   H44743119   3.226   1.425   1.517  2.7933  0.4600 -1.2816
   57MOL   H44843120   3.207   1.599   1.540 -2.1329 -0.2473  0.3602
   57MOL   H44943121   3.184   1.583   1.776 -0.6289 -1.7375  1.9610
   57MOL   H45043122   3.066   1.474   1.706  0.1578  0.9074 -1.2237
   57MOL   H45143123   3.228   1.286   1.744  1.9064  0.1193  0.4839
   57MOL   H45243124   3.027   1.327   1.898 -1.3382  0.9033  1.2939
   57MOL   H45343125   3.106   1.443   1.981 -0.1744 -0.7496  1.1632
   57MOL   H45443126   3.348   0.923   1.964 -4.9371  2.0251 -0.6382
   57MOL   H45543127   3.515   0.824   2.114  0.2207 -1.5951  0.2643
   57MOL   H45643128   3.365   1.088   2.426  0.6009  0.3579 -0.3218
   57MOL   H45743129   3.233   1.203   2.258 -0.5717  0.5843 -1.2703
   57MOL   C45843130   3.968   1.205   2.401 -0.0718 -0.2731 -0.5920
   57MOL   C45943131   3.926   1.071   2.343 -0.6474 -0.8870  0.5008
   57MOL   C46043132   3.865   0.974   2.444  0.4710  0.3725  0.2311
   57MOL   C46143133   3.787   0.847   2.391  0.9423  0.7948  0.0988
   57MOL   C46243134   3.962   0.936   2.549 -0.8628 -0.4131  0.7277
   57MOL   C46343135   4.037   1.068   2.606  0.4483 -0.9677  0.7817
   57MOL   C46443136   4.084   1.174   2.500  0.0523  0.0135 -0.2038
   57MOL   C46543137   4.146   1.290   2.573  1.0257 -0.3489  0.2962
   57MOL   O46643138   4.231   1.355   2.479 -0.1852  0.3571  0.4297
   57MOL   C46743139   4.366   1.333   2.490  0.3363 -0.3182 -1.1782
   57MOL   O46843140   4.421   1.256   2.570  0.4690 -0.2864  0.0136
   57MOL   C46943141   4.439   1.419   2.384  0.5719 -0.6437 -0.7228
   57MOL   C47043142   4.377   1.528   2.317 -1.4781 -0.8029  0.0438
   57MOL   C47143143   4.447   1.617   2.235  0.3263  0.3989 -0.3439
   57MOL   C47243144   4.583   1.600   2.210 -0.2422 -0.0080 -0.0921
   57MOL   C47343145   4.666   1.704   2.142  0.3289  0.0345  0.5032
   57MOL   O47443146   4.783   1.676   2.114 -0.8114  0.0785 -0.2472
   57MOL   O47543147   4.604   1.826   2.114  0.2506  0.8330 -0.0339
   57MOL   C47643148   4.642   1.478   2.259  0.4513  0.0706 -0.2869
   57MOL   C47743149   4.575   1.400   2.357 -0.6020  0.5573 -0.2921
   57MOL   H47843150   3.890   1.257   2.457 -1.5148 -0.0572 -2.7442
   57MOL   H47943151   4.004   1.263   2.316 -0.0126 -2.2031 -1.8899
   57MOL   H48043152   4.012   1.022   2.297 -0.2125 -0.8390  1.2497
   57MOL   H48143153   3.856   1.099   2.264  1.5493  2.0181 -0.5228
   57MOL   H48243154   3.790   1.042   2.484 -0.5695  0.1840 -1.3287
   57MOL   H48343155   3.776   0.776   2.473 -3.1581  2.7783  1.4110
   57MOL   H48443156   3.865   0.812   2.324  0.7637 -0.5661  0.5688
   57MOL   H48543157   4.027   0.858   2.509 -1.2043 -1.5255  2.3185
   57MOL   H48643158   3.908   0.891   2.632 -0.1155  3.3173  3.3437
   57MOL   H48743159   3.970   1.117   2.677  1.2245  0.3935  0.5827
   57MOL   H48843160   4.125   1.039   2.662  2.5226  0.2784 -1.7554
   57MOL   H48943161   4.168   1.129   2.446  3.1289  1.0169  3.5661
   57MOL   H49043162   4.193   1.259   2.666 -0.9649 -2.4207  0.6529
   57MOL   H49143163   4.082   1.372   2.604  0.2976 -0.0736 -1.8207
   57MOL   H49243164   4.271   1.545   2.323 -1.3127  0.7466 -1.0758
   57MOL   H49343165   4.401   1.706   2.196 -1.0475  0.1638  0.6996
   57MOL   H49443166   4.744   1.454   2.235  0.5633  1.6639 -1.4252
   57MOL   H49543167   4.630   1.317   2.400 -1.2419 -0.9233 -2.2638
   57MOL   C49643168   4.426   2.236   2.071 -0.1504  0.2214  0.4771
   57MOL   C49743169   4.490   2.111   2.121 -0.0795  0.2711 -0.2486
   57MOL   C49843170   4.584   2.043   2.014  0.0512 -0.2340 -0.1068
   57MOL   C49943171   4.677   1.937   2.067 -0.2347 -0.1446 -0.5631
   57MOL   C50043172   4.494   1.998   1.893 -0.4982 -0.8345 -1.0433
   57MOL   C50143173   4.412   2.119   1.841  0.1449 -0.1815 -0.6897
   57MOL   C50243174   4.338   2.202   1.944 -0.1369  0.4447  0.3708
   57MOL   C50343175   4.271   2.324   1.884  0.2120 -0.4147 -0.3057
   57MOL   O50443176   4.183   2.389   1.978 -0.1878  0.3632 -0.3130
   57MOL   C50543177   4.185   2.515   2.008 -0.8459  0.3881 -0.7247
   57MOL   O50643178   4.232   2.597   1.927  0.1815 -0.1205 -0.3573
   57MOL   C50743179   4.096   2.555   2.122 -0.3109 -0.7139 -0.5948
   57MOL   C50843180   4.012   2.460   2.188 -1.2599  0.0632 -0.3903
   57MOL   C50943181   3.929   2.497   2.291 -0.4610  0.4019  0.2040
   57MOL   C51043182   3.934   2.628   2.341  0.3820 -0.2703 -0.1564
   57MOL   C51143183   3.855   2.673   2.454  0.5621 -0.6287 -0.0194
   57MOL   O51243184   3.812   2.608   2.548 -0.9648  0.0083 -0.1265
   57MOL   O51343185   3.823   2.801   2.435 -0.9864 -0.0076 -0.1238
   57MOL   C51443186   4.028   2.721   2.287 -0.3280 -0.1793  0.2976
   57MOL   C51543187   4.093   2.690   2.167  0.4413  0.1069 -0.2172
   57MOL   H51643188   4.505   2.307   2.048  1.3312 -1.2337  0.9874
   57MOL   H51743189   4.372   2.274   2.158  0.7659  1.6758  0.4228
   57MOL   H51843190   4.402   2.051   2.144 -1.9307  1.7551 -3.2415
   57MOL   H51943191   4.555   2.142   2.203 -2.7831 -0.2055  2.1591
   57MOL   H52043192   4.647   2.119   1.968 -0.9804  0.8825  0.3066
   57MOL   H52143193   4.748   1.966   2.144 -0.8649 -1.8193  0.6630
   57MOL   H52243194   4.743   1.908   1.984 -1.0783 -0.2446 -1.2068
   57MOL   H52343195   4.420   1.925   1.925  1.4948 -3.1666 -1.5723
   57MOL   H52443196   4.548   1.944   1.815 -1.1292 -1.8220 -0.8055
   57MOL   H52543197   4.479   2.181   1.782  0.2320 -0.1787 -0.5861
   57MOL   H52643198   4.333   2.081   1.775 -0.5820  0.6319 -0.2903
   57MOL   H52743199   4.254   2.149   1.988 -1.2140  2.6559  1.0332
   57MOL   H52843200   4.210   2.282   1.803  0.7357  0.1037 -0.9754
   57MOL   H52943201   4.345   2.395   1.845  1.0234  0.7055  3.1397
   57MOL   H53043202   4.006   2.357   2.160 -2.7601  0.2857 -0.9167
   57MOL   H53143203   3.854   2.433   2.335 -0.0335 -0.9716 -1.0037
   57MOL   H53243204   4.045   2.816   2.336 -1.1879  1.7351 -2.9763
   57MOL   H53343205   4.160   2.763   2.124 -2.3548  1.6607 -2.0628
   57MOL   C53443206   3.409   2.913   2.351  0.3577 -0.6447  0.1176
   57MOL   C53543207   3.562   2.945   2.374 -0.3793 -0.1819  0.0243
   57MOL   C53643208   3.608   2.865   2.500 -0.0707  0.9180 -1.2037
   57MOL   C53743209   3.757   2.881   2.533 -1.2073  0.2394 -0.0073
   57MOL   C53843210   3.529   2.917   2.615 -0.0830  0.2308  0.6408
   57MOL   C53943211   3.381   2.892   2.603 -0.1908  0.2205 -0.1059
   57MOL   C54043212   3.322   2.950   2.469 -0.4454  0.4462 -0.9365
   57MOL   C54143213   3.170   2.920   2.445  0.2007 -0.4528 -0.0154
   57MOL   O54243214   3.162   2.781   2.420  0.1539  0.2654 -0.0846
   57MOL   C54343215   3.055   2.739   2.368  0.5188  0.7703  0.8857
   57MOL   O54443216   2.944   2.793   2.376 -0.2007 -0.7583  0.3178
   57MOL   C54543217   3.088   2.610   2.299  0.2934  0.6090 -0.6590
   57MOL   C54643218   2.992   2.548   2.220 -0.5324 -0.3698 -0.0194
   57MOL   C54743219   3.034   2.440   2.136  0.1174  0.2731  0.4572
   57MOL   C54843220   3.163   2.378   2.143  0.5887 -0.7699  0.4620
   57MOL   C54943221   3.200   2.274   2.049 -0.2208  0.7877  0.0615
   57MOL   O55043222   3.156   2.273   1.933  0.2610 -0.0103 -0.6097
   57MOL   O55143223   3.279   2.180   2.105 -0.4284 -0.3269  0.6330
   57MOL   C55243224   3.253   2.438   2.235  0.5231 -0.1833 -0.5256
   57MOL   C55343225   3.213   2.545   2.312 -0.4617 -0.2872  0.2619
   57MOL   H55443226   3.407   2.809   2.320  0.1362 -0.4194 -0.6318
   57MOL   H55543227   3.366   2.964   2.265 -1.8096 -1.1538  0.8689
   57MOL   H55643228   3.565   3.053   2.389 -3.4953  0.3141 -2.2862
   57MOL   H55743229   3.630   2.914   2.295 -1.0473 -1.6061 -0.0190
   57MOL   H55843230   3.586   2.759   2.498 -1.4376  1.1429  0.1947
   57MOL   H55943231   3.775   2.848   2.635 -4.4808 -1.8230 -0.0195
   57MOL   H56043232   3.781   2.986   2.517 -0.1627 -0.0342 -0.3105
   57MOL   H56143233   3.561   3.020   2.635 -1.4773  1.1795 -1.7968
   57MOL   H56243234   3.562   2.849   2.693 -1.5317  0.7246  1.7091
   57MOL   H56343235   3.370   2.784   2.598 -2.1758  0.3703  0.7794
   57MOL   H56443236   3.329   2.918   2.695  1.8775 -1.1836  1.5059
   57MOL   H56543237   3.312   3.059   2.472 -0.3928  0.4647 -1.4158
   57MOL   H56643238   3.148   2.983   2.359  0.5395 -0.2689  0.0287
   57MOL   H56743239   3.107   2.935   2.533  0.7304  0.7984  0.1674
   57MOL   H56843240   2.896   2.594   2.202 -0.0796  1.3767  1.8513
   57MOL   H56943241   2.967   2.404   2.060 -0.4258  0.9132  0.6225
   57MOL   H57043242   3.357   2.409   2.238  0.5210 -0.0205  3.5189
   57MOL   H57143243   3.277   2.583   2.391 -1.0290  0.1499  0.5146
   57MOL   C57243244   3.707   1.994   2.152  0.0387 -1.1035  0.1559
   57MOL   C57343245   3.562   2.037   2.162 -0.0353  0.1827 -0.1532
   57MOL   C57443246   3.506   2.100   2.038  0.5290 -0.0161 -0.0973
   57MOL   C57543247   3.357   2.094   2.020  0.1185  0.2977  0.3726
   57MOL   C57643248   3.577   2.235   2.035 -0.7653 -0.1054  0.0523
   57MOL   C57743249   3.727   2.222   2.025  0.0061  0.7035 -0.5045
   57MOL   C57843250   3.783   2.126   2.139  0.0804  0.4649  0.4112
   57MOL   C57943251   3.925   2.088   2.084  0.5905  1.0940 -0.5207
   57MOL   O58043252   3.998   1.997   2.165  0.0885 -0.2220  0.4195
   57MOL   C58143253   4.093   2.045   2.248 -0.2857  0.4592  0.6748
   57MOL   O58243254   4.138   2.158   2.241 -0.3217 -0.4451  0.8120
   57MOL   C58343255   4.136   1.941   2.346 -0.0603  0.1176 -0.4921
   57MOL   C58443256   4.066   1.822   2.381  0.0461  0.2959 -0.3017
   57MOL   C58543257   4.120   1.727   2.468  0.3397 -0.1688  0.1470
   57MOL   C58643258   4.235   1.766   2.543  0.3011  0.2389  0.5237
   57MOL   C58743259   4.279   1.672   2.650 -0.3248  0.4768  0.4772
   57MOL   O58843260   4.208   1.581   2.697 -0.4887 -0.2720 -0.6732
   57MOL   O58943261   4.420   1.683   2.669 -0.1233 -0.1432 -0.0677
   57MOL   C59043262   4.307   1.883   2.517 -0.2644  0.2529 -0.8339
   57MOL   C59143263   4.258   1.966   2.412  0.2925 -0.8311 -0.5499
   57MOL   H59243264   3.733   1.922   2.073  1.2099 -0.5725  0.0383
   57MOL   H59343265   3.727   1.945   2.247 -1.4533 -3.4646 -0.6914
   57MOL   H59443266   3.565   2.105   2.247 -0.8134  0.3166 -0.2231
   57MOL   H59543267   3.509   1.944   2.183 -0.3279  0.5253  0.6487
   57MOL   H59643268   3.558   2.040   1.963 -0.1191 -0.4166 -0.2350
   57MOL   H59743269   3.317   1.994   2.032  0.4972 -0.3843 -3.4631
   57MOL   H59843270   3.345   2.113   1.913 -0.9093 -0.0620  0.4200
   57MOL   H59943271   3.558   2.291   2.127 -0.0803  0.3800 -0.1026
   57MOL   H60043272   3.551   2.305   1.956  0.6762  1.0252  0.5701
   57MOL   H60143273   3.736   2.172   1.928 -2.5368 -0.1559 -0.3393
   57MOL   H60243274   3.782   2.316   2.037  1.2182 -0.2901  2.0982
   57MOL   H60343275   3.790   2.180   2.232 -0.3203 -1.1716  1.4171
   57MOL   H60443276   3.976   2.180   2.056 -0.0995  2.3097  2.0346
   57MOL   H60543277   3.917   2.030   1.992 -2.2508 -0.7400  0.8028
   57MOL   H60643278   3.973   1.798   2.331 -1.0037  2.4869  0.5630
   57MOL   H60743279   4.068   1.634   2.485  2.0220 -1.0259  0.6920
   57MOL   H60843280   4.402   1.907   2.561 -0.3369  0.2196 -0.6565
   57MOL   H60943281   4.304   2.057   2.375  1.8025 -0.5487  1.8931
   57MOL   C61043282   4.836   1.440   2.712  0.6300  1.0581  0.1675
   57MOL   C61143283   4.700   1.466   2.786 -0.4795 -0.3755 -0.0238
   57MOL   C61243284   4.623   1.572   2.706 -0.3055 -0.1336 -0.2763
   57MOL   C61343285   4.487   1.611   2.764  0.2638  0.1523  0.2721
   57MOL   C61443286   4.705   1.703   2.700  0.8129  0.6123 -0.3505
   57MOL   C61543287   4.846   1.685   2.643  0.3019  0.2576  0.2625
   57MOL   C61643288   4.923   1.567   2.709  0.0631 -0.1018  0.0226
   57MOL   C61743289   5.061   1.538   2.650  0.3309  0.3893 -0.4660
   57MOL   O61843290   5.174   1.607   2.700 -0.4516 -0.6957  0.2163
   57MOL   C61943291   5.237   1.571   2.816  0.1190 -0.1269 -0.4741
   57MOL   O62043292   5.185   1.491   2.893 -0.4045  0.1112  0.5316
   57MOL   C62143293   5.360   1.646   2.848 -0.5994 -0.0923  0.0293
   57MOL   C62243294   5.405   1.644   2.986 -0.2573  0.4638  0.1271
   57MOL   C62343295   5.527   1.708   3.026  0.6331  0.1844  0.1219
   57MOL   C62443296   5.614   1.771   2.933  0.0261  0.2734 -0.5493
   57MOL   C62543297   5.743   1.834   2.980  0.0495 -0.4245  0.6440
   57MOL   O62643298   5.778   1.837   3.101  0.3211 -0.5394 -0.2085
   57MOL   O62743299   5.807   1.885   2.881 -0.2701  0.4000 -0.4738
   57MOL   C62843300   5.569   1.772   2.797 -1.0698  0.0930  0.0613
   57MOL   C62943301   5.444   1.719   2.755 -0.1218 -0.1231  1.0842
   57MOL   H63043302   4.818   1.398   2.613 -1.6186 -0.3132  1.1264
   57MOL   H63143303   4.893   1.365   2.766 -0.5258 -0.5286 -0.8074
   57MOL   H63243304   4.726   1.502   2.885 -1.2000 -0.9453  0.3857
   57MOL   H63343305   4.633   1.380   2.799 -2.5216  1.2994  0.7274
   57MOL   H63443306   4.605   1.525   2.609  0.2893 -2.1444  0.5792
   57MOL   H63543307   4.504   1.651   2.864 -0.3950 -2.9477  1.6874
   57MOL   H63643308   4.438   1.515   2.778 -1.7909  1.2157  0.6333
   57MOL   H63743309   4.722   1.744   2.799  1.5501  1.1929 -0.7121
   57MOL   H63843310   4.659   1.782   2.642 -0.1219  0.5728  0.3341
   57MOL   H63943311   4.832   1.647   2.542  0.5628  1.2081 -0.1375
   57MOL   H64043312   4.898   1.781   2.634 -1.9412  1.2635 -2.5740
   57MOL   H64143313   4.953   1.586   2.812 -0.0862  0.2690 -0.0002
   57MOL   H64243314   5.058   1.529   2.541  0.7106  2.0915 -0.6379
   57MOL   H64343315   5.081   1.433   2.669  1.7633  0.3807 -1.9688
   57MOL   H64443316   5.343   1.593   3.058 -2.6923 -2.7380 -4.0081
   57MOL   H64543317   5.553   1.696   3.130 -1.9324 -1.9421  0.5841
   57MOL   H64643318   5.628   1.817   2.719  0.3758 -1.0663  0.4554
   57MOL   H64743319   5.415   1.719   2.651 -1.7670  2.4465  1.5022
   57MOL   C64843320   5.945   2.365   2.894  0.4474 -0.2758  0.6490
   57MOL   C64943321   5.970   2.224   2.938  0.1210  0.5573  0.0229
   57MOL   C65043322   5.863   2.123   2.882  0.0753  0.6459 -0.1261
   57MOL   C65143323   5.907   1.976   2.903  0.7511 -0.1317  0.0605
   57MOL   C65243324   5.718   2.164   2.913  0.0026 -0.3546 -0.0931
   57MOL   C65343325   5.705   2.314   2.884 -0.2818 -0.4075  0.0139
   57MOL   C65443326   5.807   2.404   2.948  0.1610 -0.4450 -0.0009
   57MOL   C65543327   5.771   2.554   2.944  0.2998 -0.4514  0.1867
   57MOL   O65643328   5.787   2.594   2.807  0.2627 -0.0200 -0.1151
   57MOL   C65743329   5.701   2.677   2.748  0.0999 -0.2125  0.6447
   57MOL   O65843330   5.615   2.743   2.808  0.6113  0.6999 -0.0401
   57MOL   C65943331   5.720   2.677   2.595  0.2105 -0.3000 -0.0448
   57MOL   C66043332   5.627   2.728   2.510  0.3127  0.0028  0.1286
   57MOL   C66143333   5.656   2.740   2.373  0.4061  0.6181 -0.2791
   57MOL   C66243334   5.776   2.688   2.316  0.1354 -0.8330 -0.0900
   57MOL   C66343335   5.793   2.717   2.173  0.0414 -0.5966 -0.4559
   57MOL   O66443336   5.717   2.780   2.098  0.0630  0.4837 -0.1274
   57MOL   O66543337   5.911   2.670   2.128  0.2657  0.1596 -0.0861
   57MOL   C66643338   5.875   2.627   2.399 -0.3101  0.1322  0.4271
   57MOL   C66743339   5.845   2.637   2.537  0.3248  0.2959 -0.1588
   57MOL   H66843340   5.940   2.362   2.786 -0.5141  0.4829  0.6672
   57MOL   H66943341   6.012   2.437   2.941 -0.6460  1.7481 -0.8168
   57MOL   H67043342   5.967   2.212   3.046  0.6652 -1.1219 -0.1254
   57MOL   H67143343   6.069   2.194   2.904 -0.6230 -0.8066 -0.9810
   57MOL   H67243344   5.863   2.131   2.773 -0.2239  1.3103 -0.0781
   57MOL   H67343345   5.943   1.966   3.006 -1.7563 -0.2102  0.9632
   57MOL   H67443346   5.990   1.957   2.835 -0.2046 -1.7944 -0.6683
   57MOL   H67543347   5.703   2.132   3.016 -1.7951  1.6985  0.2997
   57MOL   H67643348   5.646   2.115   2.847  0.1489  1.8070 -1.9013
   57MOL   H67743349   5.725   2.330   2.778 -1.9412  1.2830 -0.0617
   57MOL   H67843350   5.608   2.356   2.911 -0.2767  0.1498 -0.8201
   57MOL   H67943351   5.813   2.374   3.053 -0.3244 -2.5167 -0.5454
   57MOL   H68043352   5.846   2.603   3.007 -0.3746  1.1428 -0.2111
   57MOL   H68143353   5.673   2.560   2.991  1.0491  1.3256  1.6118
   57MOL   H68243354   5.533   2.760   2.554  0.2366 -0.4120  0.2673
   57MOL   H68343355   5.578   2.781   2.312 -0.3312  1.4304  1.1732
   57MOL   H68443356   5.971   2.598   2.360 -0.0899  2.5265 -0.9473
   57MOL   H68543357   5.921   2.593   2.600  0.2604 -1.2932 -1.1826
   57MOL   C68643358   6.127   3.010   1.911  0.8338  0.1095 -0.3445
   57MOL   C68743359   6.005   2.913   1.925 -1.0333  0.3061  1.3071
   57MOL   C68843360   6.057   2.769   1.947  0.2631  0.6510  0.2921
   57MOL   C68943361   5.946   2.666   1.989  0.4078 -0.1609 -0.0603
   57MOL   C69043362   6.136   2.727   1.828 -0.3183  0.5333 -0.0026
   57MOL   C69143363   6.251   2.821   1.795  0.1555  0.0096 -0.2607
   57MOL   C69243364   6.205   2.968   1.785 -0.6221  0.0109 -0.3002
   57MOL   C69343365   6.324   3.070   1.742 -0.0577  0.1954 -0.0044
   57MOL   O69443366   6.273   3.194   1.696  0.3283  0.1668  0.2375
   57MOL   C69543367   6.333   3.309   1.712 -0.2609  0.7338 -0.0042
   57MOL   O69643368   6.453   3.324   1.741 -0.3849 -0.4497 -0.1072
   57MOL   C69743369   6.245   3.420   1.688  0.2835  0.6378 -0.3557
   57MOL   C69843370   6.300   3.548   1.686 -0.4423  0.3007 -0.0475
   57MOL   C69943371   6.219   3.662   1.672 -0.0740 -0.1902  0.1339
   57MOL   C70043372   6.079   3.651   1.668  0.5034 -0.2599  0.3944
   57MOL   C70143373   6.004   3.772   1.683 -0.2411 -0.0557 -0.4176
   57MOL   O70243374   6.060   3.876   1.714 -0.1319  0.4897 -0.0713
   57MOL   O70343375   5.874   3.771   1.649  0.1607  0.6134  0.2565
   57MOL   C70443376   6.017   3.522   1.668 -0.0796 -0.8639  0.1619
   57MOL   C70543377   6.102   3.406   1.671  0.4099  0.5809  0.5361
   57MOL   H70643378   6.186   3.018   2.002  2.4231  1.3514 -1.4581
   57MOL   H70743379   6.104   3.114   1.889  1.7936  0.3895 -0.0681
   57MOL   H70843380   5.946   2.919   1.833 -1.5682 -0.2157  1.6086
   57MOL   H70943381   5.939   2.936   2.008 -2.8428  0.6972 -0.1802
   57MOL   H71043382   6.122   2.782   2.034  1.8668  0.5082 -0.8498
   57MOL   H71143383   5.978   2.564   1.965 -0.2862 -0.3639 -0.1165
   57MOL   H71243384   5.853   2.675   1.934  0.4101  2.6000  0.3416
   57MOL   H71343385   6.070   2.716   1.742 -1.3549  1.7618  0.6187
   57MOL   H71443386   6.186   2.631   1.837 -1.3184  0.0423  0.3584
   57MOL   H71543387   6.323   2.811   1.876 -1.3370  0.1539  1.1152
   57MOL   H71643388   6.297   2.783   1.704  1.9460 -2.7344  1.7467
   57MOL   H71743389   6.127   2.973   1.709  0.2818 -2.9468 -1.5020
   57MOL   H71843390   6.381   3.025   1.661 -0.5592  1.1969 -0.9281
   57MOL   H71943391   6.395   3.081   1.824 -2.1748 -1.5828  2.1726
   57MOL   H72043392   6.407   3.556   1.699 -0.5006 -0.7194  1.0950
   57MOL   H72143393   6.266   3.759   1.672 -1.3501  0.4394  0.7579
   57MOL   H72243394   5.910   3.509   1.661  0.0543 -1.5902 -0.6564
   57MOL   H72343395   6.059   3.307   1.680  0.2962  0.4505 -1.2009
   57MOL   C72443396   5.461   3.683   1.594  0.6163  0.0003  0.1309
   57MOL   C72543397   5.594   3.726   1.659  0.5011  0.8674 -0.2474
   57MOL   C72643398   5.666   3.840   1.589  0.2373 -0.0722  0.0686
   57MOL   C72743399   5.790   3.880   1.658  0.4512 -0.7055  0.5963
   57MOL   C72843400   5.687   3.796   1.441 -0.1584  0.0276 -0.4130
   57MOL   C72943401   5.551   3.753   1.381  0.1184 -0.0812 -0.5892
   57MOL   C73043402   5.485   3.636   1.451 -0.0535  0.2305 -0.9136
   57MOL   C73143403   5.355   3.595   1.390 -0.5121  0.2357 -0.2437
   57MOL   O73243404   5.315   3.470   1.439  0.1718 -0.0796 -0.0167
   57MOL   C73343405   5.186   3.445   1.456  0.1202  0.3351 -0.1511
   57MOL   O73443406   5.098   3.539   1.453 -0.2093 -0.5719  0.4401
   57MOL   C73543407   5.157   3.304   1.493 -0.4257  0.6489  0.6275
   57MOL   C73643408   5.021   3.272   1.529  0.7960  0.2881 -0.5488
   57MOL   C73743409   4.987   3.140   1.579 -0.3142  0.3020 -0.1335
   57MOL   C73843410   5.089   3.048   1.586  0.1789  0.1025  0.0739
   57MOL   C73943411   5.062   2.920   1.664  0.1985 -0.2411 -0.4216
   57MOL   O74043412   5.144   2.867   1.739  0.1726 -0.3271  0.5989
   57MOL   O74143413   4.936   2.866   1.645 -0.0697 -0.3830 -0.0098
   57MOL   C74243414   5.220   3.080   1.545 -0.3749 -0.2053 -0.5069
   57MOL   C74343415   5.247   3.204   1.489 -0.2552 -0.1876  0.8141
   57MOL   H74443416   5.392   3.768   1.599 -0.5337 -0.8980 -0.2977
   57MOL   H74543417   5.414   3.604   1.653  2.1254 -0.9623  0.0452
   57MOL   H74643418   5.655   3.637   1.676  1.5753  1.5636 -0.4233
   57MOL   H74743419   5.574   3.761   1.760 -2.1148 -1.0384 -0.0350
   57MOL   H74843420   5.608   3.933   1.585  0.7674  0.2467 -0.2808
   57MOL   H74943421   5.760   3.903   1.761 -1.0978  1.5578 -0.3377
   57MOL   H75043422   5.828   3.971   1.611 -3.4250  0.7183  0.0247
   57MOL   H75143423   5.739   3.700   1.438 -1.4765 -0.7242  0.4750
   57MOL   H75243424   5.741   3.864   1.376  0.4445 -0.3338 -0.2938
   57MOL   H75343425   5.489   3.842   1.369 -0.5828 -0.3171  1.1700
   57MOL   H75443426   5.561   3.713   1.280  0.1119 -0.2320 -0.5307
   57MOL   H75543427   5.549   3.548   1.456  1.2564  1.3010  3.2670
   57MOL   H75643428   5.369   3.593   1.282  1.8535  0.5623  0.0237
   57MOL   H75743429   5.281   3.672   1.410 -0.3435  0.3353 -0.0094
   57MOL   H75843430   4.953   3.355   1.525 -2.1138 -1.8974  1.4985
   57MOL   H75943431   4.891   3.118   1.624  0.4276  1.9943  2.3488
   57MOL   H76043432   5.294   3.006   1.573  0.2378  1.1186  1.4761
   57MOL   H76143433   5.351   3.225   1.465 -0.1538  0.3505  1.7182
   57MOL   H76243434   4.950   2.782   1.686  1.1124  0.2011  0.7981
   58MOL     C143435   0.658   2.078   5.629  1.0383 -0.1573  0.4932
   58MOL     C243436   0.681   1.935   5.682  0.5697 -0.4168  0.2629
   58MOL     C343437   0.549   1.858   5.687  0.1105  0.2399 -0.1948
   58MOL     C443438   0.571   1.710   5.726 -0.8630  0.1494  0.1004
   58MOL     C543439   0.451   1.931   5.783 -0.0152  0.2438 -0.6285
   58MOL     C643440   0.433   2.067   5.732  0.2155  0.2676  0.3542
   58MOL     C743441   0.563   2.147   5.723  0.0323 -0.9025  0.2673
   58MOL     C843442   0.554   2.297   5.683 -1.1234  0.2895  0.7252
   58MOL     O943443   0.482   2.370   5.780 -0.2750 -0.2099 -0.8043
   58MOL    C1043444   0.360   2.420   5.753  0.8763  0.2766  0.0670
   58MOL    O1143445   0.312   2.422   5.638  0.4077 -0.2575  0.5241
   58MOL    C1243446   0.282   2.446   5.876 -0.2832 -0.0838  0.3322
   58MOL    C1343447   0.151   2.494   5.868 -0.0697 -0.4258  0.2398
   58MOL    C1443448   0.081   2.518   5.992 -0.4450  0.1123  0.4973
   58MOL    C1543449   0.146   2.495   6.113  0.3372 -0.7512 -0.7190
   58MOL    C1643450   0.079   2.528   6.243 -0.6245  0.7214  0.3659
   58MOL    O1743451   0.126   2.520   6.356 -0.5540  0.2047  0.0252
   58MOL    O1843452   7.990   2.581   6.226 -0.5252 -0.4663 -0.0465
   58MOL    C1943453   0.270   2.446   6.115 -0.0921  0.1127  0.0035
   58MOL    C2043454   0.340   2.427   5.997 -0.1899  0.1782 -0.0957
   58MOL    H2143455   0.599   2.083   5.538  0.3905  0.6554  0.9493
   58MOL    H2243456   0.748   2.135   5.606 -0.2430  1.8163  0.2804
   58MOL    H2343457   0.718   1.934   5.784  0.9223 -0.5192  0.1338
   58MOL    H2443458   0.762   1.886   5.629  0.6610 -1.9764  1.7949
   58MOL    H2543459   0.506   1.871   5.588  2.6035 -0.0904 -1.3756
   58MOL    H2643460   0.655   1.678   5.663  0.5755  1.9450  1.0684
   58MOL    H2743461   0.490   1.642   5.701  0.3207 -0.9774 -0.7640
   58MOL    H2843462   0.483   1.932   5.887 -0.6418 -0.3062 -0.4315
   58MOL    H2943463   0.353   1.888   5.800 -0.6731  2.1606  0.5588
   58MOL    H3043464   0.393   2.056   5.632 -1.3674 -0.4718  1.0481
   58MOL    H3143465   0.357   2.119   5.790  0.4909 -1.4574  2.3300
   58MOL    H3243466   0.609   2.139   5.822  1.6392  1.6237 -0.2164
   58MOL    H3343467   0.503   2.303   5.587 -1.6585 -0.6343  0.9435
   58MOL    H3443468   0.655   2.338   5.678  0.3354 -3.1177  1.3057
   58MOL    H3543469   0.107   2.505   5.770  0.8157  1.1902  0.0191
   58MOL    H3643470   8.012   2.559   5.991 -0.9621 -1.1307  0.4565
   58MOL    H3743471   0.322   2.434   6.209 -1.5182 -0.6193  0.7192
   58MOL    H3843472   0.442   2.394   6.006 -0.5184 -1.1442 -1.1797
   58MOL    H3943473   0.603   1.702   5.830  2.1092  0.3595 -0.7364
   58MOL    C4043474   7.532   2.757   6.347  0.7296 -0.3920 -0.6258
   58MOL    C4143475   7.672   2.705   6.395  0.0532  0.8653 -0.3590
   58MOL    C4243476   7.777   2.675   6.287 -0.1276 -0.3872  0.6148
   58MOL    C4343477   7.904   2.600   6.334 -0.1783  0.2594 -0.2942
   58MOL    C4443478   7.720   2.621   6.153 -0.2849  0.0980  0.0972
   58MOL    C4543479   7.590   2.696   6.111 -0.4243  0.5020  0.2575
   58MOL    C4643480   7.484   2.683   6.224  0.3446 -0.5924  0.2645
   58MOL    C4743481   7.346   2.735   6.178 -0.0455  0.3342 -0.1764
   58MOL    O4843482   7.305   2.652   6.071  1.0405 -0.1098 -0.3784
   58MOL    C4943483   7.191   2.576   6.080  0.2261  0.8137  0.6161
   58MOL    O5043484   7.107   2.599   6.167 -0.4405  0.8781  0.2550
   58MOL    C5143485   7.189   2.467   5.976  0.0238 -0.1047  0.0809
   58MOL    C5243486   7.311   2.436   5.903 -0.7613 -0.8619 -0.1042
   58MOL    C5343487   7.317   2.333   5.813 -0.0018 -0.3373  0.6687
   58MOL    C5443488   7.204   2.259   5.772 -0.9409  0.5347  0.3655
   58MOL    C5543489   7.218   2.142   5.672  0.3442  0.2812 -0.3814
   58MOL    O5643490   7.123   2.078   5.629  0.0320 -0.1018  0.3917
   58MOL    O5743491   7.342   2.121   5.636  0.4468  0.1255 -0.4968
   58MOL    C5843492   7.081   2.291   5.842 -0.1240  0.9683  0.3326
   58MOL    C5943493   7.074   2.393   5.946  0.7086  0.3740 -0.4835
   58MOL    H6043494   7.540   2.863   6.324 -0.2473 -0.5321 -1.6426
   58MOL    H6143495   7.457   2.752   6.427  1.0208 -4.3881 -0.4867
   58MOL    H6243496   7.651   2.603   6.428 -0.2971  0.8010 -0.7806
   58MOL    H6343497   7.705   2.755   6.486  1.2581  0.0445 -0.3258
   58MOL    H6443498   7.814   2.776   6.268  1.0151 -0.5050  2.1317
   58MOL    H6543499   7.866   2.506   6.374  0.0173  0.3167  0.0333
   58MOL    H6643500   7.958   2.648   6.415  0.1790  0.5614 -0.7098
   58MOL    H6743501   7.704   2.514   6.165 -1.1651  0.1670 -0.3858
   58MOL    H6843502   7.803   2.636   6.085  0.6761  1.3392  1.5042
   58MOL    H6943503   7.609   2.801   6.090 -1.5290  0.2931 -1.8557
   58MOL    H7043504   7.549   2.651   6.021  0.0090  1.8792 -0.6302
   58MOL    H7143505   7.466   2.577   6.242  1.7785 -0.9116 -0.1572
   58MOL    H7243506   7.347   2.841   6.151  0.5379  0.6392  1.0410
   58MOL    H7343507   7.277   2.730   6.262  0.0560 -1.5580 -0.1847
   58MOL    H7443508   7.404   2.487   5.917 -0.3151 -1.6944  0.0317
   58MOL    H7543509   7.411   2.308   5.765 -0.4181  0.6808 -0.7166
   58MOL    H7643510   6.993   2.232   5.820  0.5131  0.2816 -0.3899
   58MOL    H7743511   6.983   2.415   5.999 -0.0467  1.8756 -2.3503
   58MOL    C7843512   7.724   1.880   5.425  0.8967  0.2764  0.3248
   58MOL    C7943513   7.566   1.900   5.425 -0.2436  0.9773 -0.8823
   58MOL    C8043514   7.524   2.008   5.530 -0.0536  0.1536  0.5819
   58MOL    C8143515   7.373   2.024   5.540 -0.6618  0.5301 -0.1141
   58MOL    C8243516   7.586   1.985   5.668  0.2942 -0.2489 -0.3084
   58MOL    C8343517   7.735   1.960   5.665 -0.5459 -0.1835  0.1282
   58MOL    C8443518   7.776   1.846   5.564  0.5825 -0.0132  0.5839
   58MOL    C8543519   7.928   1.823   5.557 -0.6327 -0.4048  0.3981
   58MOL    O8643520   7.981   1.798   5.684  0.5192 -0.0885 -0.0097
   58MOL    C8743521   0.060   1.732   5.701 -0.7943 -0.3378 -0.1803
   58MOL    O8843522   0.129   1.695   5.608  0.1655  0.6484  0.1709
   58MOL    C8943523   0.099   1.709   5.847  0.1665  0.5547  0.0617
   58MOL    C9043524   0.203   1.615   5.874 -0.1173  0.0790  0.6241
   58MOL    C9143525   0.240   1.598   6.008 -0.3490  1.0710  0.0530
   58MOL    C9243526   0.182   1.672   6.117 -0.0747 -0.4765 -0.0003
   58MOL    C9343527   0.242   1.666   6.247  0.5594  0.4881 -0.0869
   58MOL    O9443528   0.194   1.699   6.356 -0.3339 -0.5697 -0.3253
   58MOL    O9543529   0.362   1.626   6.236 -0.1392  0.8000  0.0062
   58MOL    C9643530   0.074   1.757   6.088 -0.7621 -0.2070 -0.4140
   58MOL    C9743531   0.043   1.785   5.951 -0.5132 -0.6617  0.0796
   58MOL    H9843532   7.783   1.966   5.392  2.8005 -1.3858 -0.7209
   58MOL    H9943533   7.744   1.793   5.363 -0.3045 -0.1729  0.5522
   58MOL   H10043534   7.529   1.802   5.454 -0.3892  0.9046 -1.3113
   58MOL   H10143535   7.526   1.926   5.327 -0.5679 -1.5402 -1.4413
   58MOL   H10243536   7.559   2.102   5.488  0.0011  0.1539  0.6279
   58MOL   H10343537   7.326   1.927   5.560 -0.2415  0.1745 -0.8313
   58MOL   H10443538   7.336   2.055   5.442 -0.9956  0.3318 -0.0521
   58MOL   H10543539   7.545   1.893   5.710  2.8403 -1.9004 -1.2864
   58MOL   H10643540   7.552   2.068   5.730 -2.1635 -2.9318  2.0739
   58MOL   H10743541   7.794   2.048   5.643 -1.4064  0.3897  0.0925
   58MOL   H10843542   7.762   1.928   5.766 -0.0479 -0.1211  0.0163
   58MOL   H10943543   7.726   1.760   5.610  0.0944  0.4290  0.8836
   58MOL   H11043544   7.986   1.902   5.508  1.5886 -2.2119 -0.0370
   58MOL   H11143545   7.947   1.732   5.499 -0.2698  0.2849 -0.5979
   58MOL   H11243546   0.257   1.562   5.797  1.4843  3.0618 -0.3814
   58MOL   H11343547   0.321   1.530   6.027 -0.0496  1.9725  2.1115
   58MOL   H11443548   0.036   1.832   6.156 -1.0143  2.1054 -3.0189
   58MOL   H11543549   7.998   1.856   5.923  0.4463 -0.2195 -1.4830
   58MOL   C11643550   0.759   1.693   6.099 -0.1509  0.1650 -0.1451
   58MOL   C11743551   0.607   1.704   6.144  0.1239  0.1804 -0.2776
   58MOL   C11843552   0.597   1.633   6.279 -0.9271  0.2156  0.5963
   58MOL   C11943553   0.457   1.644   6.339 -0.1677  0.6151  0.5521
   58MOL   C12043554   0.635   1.490   6.250  0.4860 -0.2967 -0.6611
   58MOL   C12143555   0.777   1.469   6.180  0.0366  0.0099  0.5801
   58MOL   C12243556   0.802   1.552   6.053  0.1465  0.7465 -0.3515
   58MOL   C12343557   0.949   1.548   6.018  0.0753  0.2088  0.0141
   58MOL   O12443558   0.959   1.562   5.877  0.4038  0.2770  0.3740
   58MOL   C12543559   0.950   1.457   5.803  0.2525 -0.0731  0.2054
   58MOL   O12643560   0.904   1.349   5.850 -0.4329 -0.1282  0.0365
   58MOL   C12743561   0.996   1.480   5.667 -0.7465  0.1187  0.3370
   58MOL   C12843562   1.045   1.373   5.591  0.5283 -0.0543  0.1043
   58MOL   C12943563   1.087   1.392   5.462  0.2315  0.1400 -0.2168
   58MOL   C13043564   1.082   1.512   5.391 -0.3046 -0.1793  0.2375
   58MOL   C13143565   1.132   1.538   5.255  0.2173  0.0693 -0.0435
   58MOL   O13243566   1.142   1.647   5.205  0.2983  0.5304  0.3574
   58MOL   O13343567   1.175   1.423   5.208 -0.1152  0.4037 -0.1472
   58MOL   C13443568   1.051   1.624   5.475 -0.4379  0.2870  0.5549
   58MOL   C13543569   0.997   1.608   5.604 -0.4023 -0.9162  0.4837
   58MOL   H13643570   0.817   1.751   6.170  0.7708 -0.6499 -0.2255
   58MOL   H13743571   0.774   1.763   6.017  0.4944  2.3993  1.8347
   58MOL   H13843572   0.543   1.662   6.067  1.3963 -2.0222 -0.1686
   58MOL   H13943573   0.591   1.812   6.138 -1.8169 -0.1757 -2.2399
   58MOL   H14043574   0.667   1.679   6.348  4.6404 -1.3506 -3.6276
   58MOL   H14143575   0.452   1.742   6.386  1.9059  2.1449 -2.2876
   58MOL   H14243576   0.444   1.567   6.414  0.0291  1.7667  1.7823
   58MOL   H14343577   0.556   1.452   6.185  0.2171  0.2398 -0.6546
   58MOL   H14443578   0.628   1.442   6.348  3.1807 -2.0996 -1.3022
   58MOL   H14543579   0.851   1.504   6.252  1.8840 -1.4188 -0.5648
   58MOL   H14643580   0.789   1.365   6.152  0.0754 -0.0296  0.7437
   58MOL   H14743581   0.734   1.517   5.975 -0.8147 -1.9785  1.6343
   58MOL   H14843582   0.989   1.458   6.065 -2.8859 -1.6027 -0.7949
   58MOL   H14943583   0.997   1.637   6.059  1.2158 -0.3197 -0.1588
   58MOL   H15043584   1.038   1.270   5.624  1.1585 -0.1350 -0.0123
   58MOL   H15143585   1.130   1.306   5.412  1.2237 -0.4443  1.5837
   58MOL   H15243586   1.052   1.719   5.423 -1.5002 -0.0649 -0.1316
   58MOL   H15343587   0.962   1.701   5.647 -0.4829 -1.9843  2.8281
   58MOL   C15443588   1.156   1.048   4.975 -0.5304 -0.6494  0.1987
   58MOL   C15543589   1.116   1.186   5.034  0.4358  0.0543  0.2539
   58MOL   C15643590   1.245   1.267   5.027 -0.0793  0.4035 -0.3719
   58MOL   C15743591   1.218   1.413   5.074  0.1257  0.1112 -0.6281
   58MOL   C15843592   1.358   1.196   5.105  0.7270 -0.4681 -0.1418
   58MOL   C15943593   1.392   1.066   5.044 -0.1912  0.7297  0.0227
   58MOL   C16043594   1.270   0.971   5.040  0.4894  0.2431 -0.0071
   58MOL   C16143595   1.308   0.837   4.972 -0.7544 -0.3651  0.8398
   58MOL   O16243596   1.194   0.748   4.971 -0.0631 -0.0757  0.1644
   58MOL   C16343597   1.174   0.655   5.065  0.4588 -0.5506  0.1596
   58MOL   O16443598   1.252   0.635   5.155  0.0169 -0.0556 -0.1043
   58MOL   C16543599   1.052   0.565   5.035  0.0324  0.3887  0.5469
   58MOL   C16643600   1.013   0.466   5.131 -0.8655  1.0182 -0.3212
   58MOL   C16743601   0.909   0.378   5.107 -0.1195  0.4795  0.5015
   58MOL   C16843602   0.830   0.393   4.990  0.4191  0.5638 -0.6143
   58MOL   C16943603   0.711   0.306   4.964 -0.1430  0.3192  0.1170
   58MOL   O17043604   0.626   0.335   4.876 -0.1799 -0.2059 -0.0808
   58MOL   O17143605   0.697   0.214   5.060 -0.3438 -0.1030 -0.5834
   58MOL   C17243606   0.860   0.498   4.900 -0.6509  0.4957 -0.3762
   58MOL   C17343607   0.971   0.579   4.922  0.6527  0.1759  0.3251
   58MOL   H17443608   1.188   1.061   4.871 -0.6180 -2.5995 -0.0878
   58MOL   H17543609   1.065   0.988   4.972 -0.0592 -1.3610  0.0963
   58MOL   H17643610   1.076   1.170   5.135 -0.0561 -0.4506 -0.0174
   58MOL   H17743611   1.040   1.236   4.974  0.1815  1.0116  1.3597
   58MOL   H17843612   1.278   1.270   4.923  0.8981 -0.5522 -0.1055
   58MOL   H17943613   1.149   1.457   5.002  1.4955  2.8441 -0.3156
   58MOL   H18043614   1.304   1.479   5.067 -0.0769  0.2029 -2.3627
   58MOL   H18143615   1.322   1.196   5.208  0.8003 -1.3223 -0.1131
   58MOL   H18243616   1.449   1.256   5.112  1.3684 -1.5546  1.0103
   58MOL   H18343617   1.429   1.084   4.943  1.6895 -0.1065  0.5346
   58MOL   H18443618   1.478   1.025   5.096  0.3219  1.5404 -0.1791
   58MOL   H18543619   1.238   0.952   5.142 -1.6801  1.9782 -0.3224
   58MOL   H18643620   1.391   0.790   5.024 -0.6384 -0.5877  0.4547
   58MOL   H18743621   1.334   0.861   4.869 -1.0572 -1.2804  0.5548
   58MOL   H18843622   1.062   0.448   5.226 -1.8827 -1.0628 -0.1868
   58MOL   H18943623   0.888   0.304   5.182 -2.8332 -0.5481 -1.1720
   58MOL   H19043624   0.809   0.516   4.807  0.6108  0.6799 -1.0379
   58MOL   H19143625   1.002   0.649   4.846 -0.7940  1.9329  1.3324
   58MOL   C19243626   0.780   7.815   5.123  0.2615  0.5349 -0.1254
   58MOL   C19343627   0.726   7.958   5.145 -0.7835 -0.3083 -0.8337
   58MOL   C19443628   0.634   8.006   5.028  0.3179  0.4509 -0.6689
   58MOL   C19543629   0.589   0.122   5.054 -0.0910  0.0481 -0.4410
   58MOL   C19643630   0.715   7.995   4.897 -0.3299 -0.1698  0.1800
   58MOL   C19743631   0.750   7.845   4.873 -0.4737  0.0117 -0.4697
   58MOL   C19843632   0.839   7.789   4.985 -0.2785 -1.0243  0.0729
   58MOL   C19943633   0.855   7.643   4.967 -0.4250 -0.9664 -0.2210
   58MOL   O20043634   0.946   7.607   4.865 -0.9885  0.6880 -0.4824
   58MOL   C20143635   0.952   7.467   4.848  0.8338  0.4815 -0.0272
   58MOL   O20243636   0.920   7.390   4.937 -0.0790  0.0424 -0.1569
   58MOL   C20343637   1.016   7.425   4.722 -0.0446 -0.6971 -0.3506
   58MOL   C20443638   1.084   7.517   4.634 -0.0767 -0.0803 -0.5185
   58MOL   C20543639   1.140   7.480   4.512 -0.1004 -0.1055 -0.1481
   58MOL   C20643640   1.128   7.348   4.461 -0.0554  0.3186  0.3598
   58MOL   C20743641   1.181   7.299   4.326  0.1109 -0.4793  0.5359
   58MOL   O20843642   1.200   7.179   4.302 -0.2041 -0.1837 -0.3150
   58MOL   O20943643   1.194   7.391   4.232  0.0573 -0.2054  0.8510
   58MOL   C21043644   1.068   7.253   4.550  0.5230  0.3157  0.3192
   58MOL   C21143645   1.007   7.291   4.673 -0.1620  0.4936 -0.2781
   58MOL   H21243646   0.702   7.739   5.135  0.5504 -0.2396 -2.7328
   58MOL   H21343647   0.851   7.801   5.204  0.0902  1.4407  0.1839
   58MOL   H21443648   0.811   8.027   5.146  1.0053 -2.4685  1.3751
   58MOL   H21543649   0.693   7.970   5.248 -0.2130 -1.6764 -0.4842
   58MOL   H21643650   0.546   7.942   5.024 -0.4894  1.3278  2.0827
   58MOL   H21743651   0.554   0.123   5.157  2.1179 -0.3887  0.3294
   58MOL   H21843652   0.503   0.156   4.994  1.3269  0.0058 -2.5592
   58MOL   H21943653   0.802   0.028   4.899 -0.5276  0.0848  0.4351
   58MOL   H22043654   0.648   8.021   4.815 -0.1715  0.4607  0.2488
   58MOL   H22143655   0.659   7.787   4.853 -0.0753 -0.6046 -0.5022
   58MOL   H22243656   0.806   7.832   4.780  1.9023 -0.6672  1.0148
   58MOL   H22343657   0.933   7.845   4.991 -1.4507  0.8125  1.6485
   58MOL   H22443658   0.762   7.594   4.937 -0.5042 -0.9032 -0.0785
   58MOL   H22543659   0.886   7.591   5.057  0.9036 -1.3769 -0.9106
   58MOL   H22643660   1.101   7.619   4.666  0.0111  0.2762 -1.7103
   58MOL   H22743661   1.193   7.552   4.451  0.4325 -1.0442 -0.8176
   58MOL   H22843662   1.078   7.150   4.520 -0.2236  0.9813 -2.3198
   58MOL   H22943663   0.964   7.220   4.742 -1.1996  1.4323  0.0500
   58MOL   C23043664   1.181   7.709   3.909 -0.4128  0.3690 -0.8431
   58MOL   C23143665   1.227   7.613   4.023  0.4392 -0.2942  0.0052
   58MOL   C23243666   1.192   7.469   3.992 -0.4613 -0.3074  0.8844
   58MOL   C23343667   1.244   7.367   4.098  0.1793  0.1002 -0.4538
   58MOL   C23443668   1.037   7.452   3.977 -0.5101 -0.9381 -0.0754
   58MOL   C23543669   0.988   7.546   3.866 -0.3059  0.8108 -0.0601
   58MOL   C23643670   1.034   7.695   3.884 -0.1393  0.3256  0.4934
   58MOL   C23743671   1.000   7.787   3.765  0.2899 -0.1844  0.6902
   58MOL   O23843672   0.872   7.770   3.719  0.0778  0.1701  0.4757
   58MOL   C23943673   0.835   7.827   3.607  0.1879  0.4779 -0.3055
   58MOL   O24043674   0.918   7.885   3.533 -0.3114 -0.1790 -0.1417
   58MOL   C24143675   0.683   7.826   3.576  0.4881 -0.7893  0.0720
   58MOL   C24243676   0.583   7.770   3.659 -0.2156 -0.2268  0.1530
   58MOL   C24343677   0.446   7.782   3.622 -0.6010 -0.1567  0.4982
   58MOL   C24443678   0.412   7.853   3.506  0.4093 -0.1684 -0.3279
   58MOL   C24543679   0.270   7.870   3.462 -1.2113  0.2528  0.4295
   58MOL   O24643680   0.236   7.945   3.370  0.3084  0.4023 -0.6182
   58MOL   O24743681   0.196   7.784   3.532 -0.1982 -0.1806  0.3144
   58MOL   C24843682   0.510   7.898   3.419  0.5267  0.2393 -0.2579
   58MOL   C24943683   0.646   7.893   3.457 -0.3846  0.9518  0.0730
   58MOL   H25043684   1.233   7.672   3.821  1.1933 -0.4734  0.4364
   58MOL   H25143685   1.203   7.810   3.944 -0.1203 -0.3535  1.1268
   58MOL   H25243686   1.191   7.648   4.120  1.2453  1.7286 -0.3961
   58MOL   H25343687   1.331   7.636   4.043  0.9153 -2.4595  0.1138
   58MOL   H25443688   1.249   7.453   3.900  1.5761 -0.3650  2.1164
   58MOL   H25543689   1.353   7.374   4.101  0.2167  0.0652 -1.3699
   58MOL   H25643690   1.206   7.268   4.073 -3.2553  1.7133 -2.0222
   58MOL   H25743691   0.993   7.475   4.074 -1.8167 -1.6533 -0.4913
   58MOL   H25843692   1.015   7.350   3.945 -0.8189 -1.2049  0.9648
   58MOL   H25943693   1.027   7.506   3.773 -1.0672 -2.0153  0.7827
   58MOL   H26043694   0.879   7.540   3.866 -0.2826  0.3937 -0.0239
   58MOL   H26143695   0.979   7.742   3.966  0.3287 -0.4157  1.2480
   58MOL   H26243696   1.072   7.768   3.685 -2.8207  0.0008 -2.2902
   58MOL   H26343697   1.018   7.894   3.781 -1.1287  0.2656 -0.6064
   58MOL   H26443698   0.610   7.709   3.745 -2.3194 -0.9940  0.3152
   58MOL   H26543699   0.371   7.728   3.676 -1.1303 -0.1966 -0.2652
   58MOL   H26643700   0.493   7.956   3.330  2.0162  0.6431 -0.3017
   58MOL   H26743701   0.713   7.941   3.388  1.0337 -2.4117 -0.9568
   58MOL   C26843702   7.796   7.913   3.760  0.0740 -0.7171 -0.0578
   58MOL   C26943703   7.869   7.837   3.649  0.3979 -0.3990 -0.3874
   58MOL   C27043704   8.023   7.855   3.652 -0.9908  0.0181  0.7813
   58MOL   C27143705   0.057   7.797   3.522 -0.4691  0.4092  0.8650
   58MOL   C27243706   0.028   8.003   3.674 -0.4853 -0.0859 -0.4184
   58MOL   C27343707   7.989   0.037   3.796 -0.7969  0.4934 -0.1349
   58MOL   C27443708   7.836   0.025   3.769 -0.3393 -0.2372 -0.4206
   58MOL   C27543709   7.758   0.110   3.869  0.4621 -0.2272 -0.0728
   58MOL   O27643710   7.794   0.098   4.009 -0.5565  0.0677 -0.4312
   58MOL   C27743711   7.853   0.197   4.075 -0.4677  0.5991  0.2437
   58MOL   O27843712   7.881   0.303   4.018 -0.5495 -0.5311  0.6297
   58MOL   C27943713   7.888   0.156   4.218  0.3007 -0.5563 -0.0273
   58MOL   C28043714   7.862   0.028   4.270 -0.0374  0.4021  0.2790
   58MOL   C28143715   7.906   8.024   4.399  0.4692 -0.4783 -0.5104
   58MOL   C28243716   7.973   0.092   4.477  0.5600 -0.4693  0.2466
   58MOL   C28343717   8.027   0.064   4.612  0.4757  0.4742  0.7714
   58MOL   O28443718   8.013   7.982   4.667 -0.4575 -0.0596  0.1248
   58MOL   O28543719   0.061   0.161   4.667 -0.1647  0.0243  0.5962
   58MOL   C28643720   7.992   0.222   4.425  0.3377 -0.0674 -0.1083
   58MOL   C28743721   7.948   0.257   4.300 -0.1458  0.9187  0.6272
   58MOL   H28843722   7.809   7.872   3.860 -1.0434 -1.2679 -0.1250
   58MOL   H28943723   7.691   7.909   3.731 -0.9639  0.7122  3.2220
   58MOL   H29043724   7.836   7.883   3.556  1.4337  0.0473 -0.5464
   58MOL   H29143725   7.840   7.732   3.644 -0.5074 -0.0851 -1.8867
   58MOL   H29243726   0.039   7.800   3.733 -1.3871  1.1852  1.8195
   58MOL   H29343727   0.027   7.842   3.428 -0.2320  1.1476  1.1361
   58MOL   H29443728   0.024   7.695   3.506  1.2577 -0.1129  0.5374
   58MOL   H29543729   0.004   0.032   3.587 -1.4328  0.8706  0.4990
   58MOL   H29643730   0.136   8.002   3.687 -0.4575  0.1806 -0.6522
   58MOL   H29743731   8.023   8.020   3.887 -2.1789 -0.6504 -0.2102
   58MOL   H29843732   8.020   0.141   3.784 -0.9952  0.2194 -3.4965
   58MOL   H29943733   7.803   0.078   3.680 -2.5483  0.5520  0.8283
   58MOL   H30043734   7.654   0.084   3.856  0.8360 -1.2532 -1.0628
   58MOL   H30143735   7.772   0.214   3.839  4.3041 -0.8176 -0.5795
   58MOL   H30243736   7.822   7.980   4.210  1.6966 -1.5429  1.6335
   58MOL   H30343737   7.899   7.923   4.437  1.6357 -0.1881  0.4950
   58MOL   H30443738   0.022   0.290   4.481  3.0993 -0.7587 -2.1983
   58MOL   H30543739   7.974   0.352   4.254  0.8716 -0.2956 -1.3917
   58MOL   C30643740   0.281   0.510   4.814 -0.6110  0.2528 -0.6091
   58MOL   C30743741   0.264   0.368   4.761  0.1257 -0.0048 -0.7631
   58MOL   C30843742   0.160   0.291   4.841  0.0677 -0.1127 -0.0340
   58MOL   C30943743   0.123   0.149   4.792  0.4087 -0.2977 -0.4490
   58MOL   C31043744   0.202   0.289   4.987 -0.4556  0.1443  0.2855
   58MOL   C31143745   0.215   0.431   5.038 -0.2422  0.6373 -0.2939
   58MOL   C31243746   0.315   0.511   4.967  0.4614  0.3869 -0.1546
   58MOL   C31343747   0.332   0.646   5.030  0.1239  0.0613  0.3389
   58MOL   O31443748   0.212   0.722   5.027 -0.2727 -0.2637  0.3065
   58MOL   C31543749   0.203   0.852   5.039 -0.8029  0.0045 -0.3109
   58MOL   O31643750   0.305   0.921   5.060 -0.0090  0.0162 -0.0930
   58MOL   C31743751   0.063   0.904   5.029  0.2086  0.0586 -0.2198
   58MOL   C31843752   0.041   1.037   5.078 -0.7029  0.0105 -0.6939
   58MOL   C31943753   7.940   1.077   5.094 -0.3223 -0.6226 -0.7567
   58MOL   C32043754   7.830   0.995   5.054  0.0942  0.0975  0.5809
   58MOL   C32143755   7.686   1.040   5.064  0.1570  0.0426 -0.3291
   58MOL   O32243756   7.641   1.150   5.100 -0.0660  0.2715 -0.3657
   58MOL   O32343757   7.605   0.944   5.028 -0.1789  0.1684 -0.9678
   58MOL   C32443758   7.858   0.867   5.006 -0.3131  0.5424 -0.1597
   58MOL   C32543759   7.986   0.821   4.993 -0.3660 -0.0545 -0.3985
   58MOL   H32643760   0.179   0.550   4.808 -0.1634  1.5090 -0.1450
   58MOL   H32743761   0.350   0.580   4.766  2.5473 -3.7059 -2.1641
   58MOL   H32843762   0.367   0.332   4.759  0.6773  1.5803 -2.2890
   58MOL   H32943763   0.229   0.378   4.658 -0.6487  0.9471 -0.4036
   58MOL   H33043764   0.068   0.349   4.841  0.2358  0.1588 -0.8022
   58MOL   H33143765   0.056   0.099   4.862  0.7391 -1.0007 -0.6353
   58MOL   H33243766   0.206   0.080   4.781 -1.2064 -2.1423 -1.3817
   58MOL   H33343767   0.300   0.242   4.993  0.6805  2.2794 -0.8510
   58MOL   H33443768   0.125   0.237   5.043  1.3910 -0.6576  2.1631
   58MOL   H33543769   0.119   0.478   5.056  0.3406  1.1736  1.5896
   58MOL   H33643770   0.242   0.427   5.144 -3.3369  3.1305  0.6753
   58MOL   H33743771   0.414   0.466   4.983  0.1929 -0.4462 -0.7891
   58MOL   H33843772   0.399   0.705   4.969  1.6828 -1.4161  0.5756
   58MOL   H33943773   0.363   0.656   5.134  0.8904 -0.1644  0.1361
   58MOL   H34043774   0.123   1.100   5.108 -1.8338  2.0751 -1.8197
   58MOL   H34143775   7.910   1.167   5.145 -0.7232 -0.9661 -0.3725
   58MOL   H34243776   7.775   0.802   4.984  1.0574 -1.7816  1.3419
   58MOL   H34343777   7.999   0.722   4.951  0.0006 -0.1432 -0.0759
   58MOL   C34443778   7.306   0.644   5.195  0.3651 -0.8855  0.1676
   58MOL   C34543779   7.407   0.757   5.176 -0.0653 -0.8208  0.7312
   58MOL   C34643780   7.385   0.825   5.042  0.2058 -0.0053 -0.3524
   58MOL   C34743781   7.465   0.961   5.028  0.0770 -0.1026 -0.0489
   58MOL   C34843782   7.406   0.723   4.929  0.2656 -0.9655 -0.2112
   58MOL   C34943783   7.306   0.602   4.945  0.0130 -0.2363  0.2203
   58MOL   C35043784   7.324   0.538   5.085 -0.1390 -0.2247  0.0380
   58MOL   C35143785   7.234   0.418   5.103  0.2321 -0.0223  0.7159
   58MOL   O35243786   7.102   0.462   5.067 -0.1247 -0.1363 -0.1740
   58MOL   C35343787   7.002   0.434   5.151  0.9083 -0.5699 -0.1785
   58MOL   O35443788   7.005   0.381   5.267  0.5728  0.0083  0.4826
   58MOL   C35543789   6.871   0.467   5.085 -0.2604 -0.7529  0.6448
   58MOL   C35643790   6.867   0.542   4.964 -0.1615  0.0143 -0.0492
   58MOL   C35743791   6.751   0.560   4.887  0.2466  0.3791  0.2251
   58MOL   C35843792   6.625   0.512   4.932  0.2371 -0.2046  0.4179
   58MOL   C35943793   6.506   0.532   4.847  0.5209  0.2461  0.2707
   58MOL   O36043794   6.511   0.550   4.719 -0.5616 -0.2089 -0.3597
   58MOL   O36143795   6.393   0.508   4.902 -0.7769 -0.0785  0.1137
   58MOL   C36243796   6.625   0.431   5.048 -0.4485 -0.1778 -0.2704
   58MOL   C36343797   6.747   0.411   5.126  0.2354  0.3431  0.4557
   58MOL   H36443798   7.204   0.682   5.190  1.0955  1.7952  3.2785
   58MOL   H36543799   7.318   0.599   5.294 -0.8318  0.1274  0.7948
   58MOL   H36643800   7.508   0.717   5.186  1.1300  1.0746 -2.7881
   58MOL   H36743801   7.393   0.828   5.258  1.0666  1.9028 -1.3530
   58MOL   H36843802   7.286   0.870   5.040  0.6562  0.9839 -0.2532
   58MOL   H36943803   7.437   1.015   5.118 -0.3858 -0.1763 -0.1489
   58MOL   H37043804   7.443   1.024   4.942  0.2130 -0.4079 -0.3102
   58MOL   H37143805   7.505   0.682   4.946  1.8632  3.1668  1.1055
   58MOL   H37243806   7.398   0.763   4.828  0.1665 -2.4138 -0.7910
   58MOL   H37343807   7.208   0.649   4.945 -2.0938 -4.4092  1.9570
   58MOL   H37443808   7.305   0.535   4.859  3.0101  0.5495 -0.4847
   58MOL   H37543809   7.426   0.502   5.075 -0.4438 -0.8776 -0.8094
   58MOL   H37643810   7.247   0.381   5.204  1.2564 -1.5888  0.0243
   58MOL   H37743811   7.271   0.341   5.035 -0.2033  1.0391 -0.7607
   58MOL   H37843812   6.962   0.576   4.925  1.1074 -2.2959  0.8973
   58MOL   H37943813   6.762   0.611   4.793 -1.6731  0.6310  0.1016
   58MOL   H38043814   6.534   0.381   5.079  0.6542 -2.0411  0.0156
   58MOL   H38143815   6.734   0.350   5.214 -3.9762  0.0672 -0.2435
   58MOL   C38243816   6.119   0.165   5.010 -0.8244 -0.3446 -0.2386
   58MOL   C38343817   6.210   0.257   4.932 -0.4901  0.2666  0.4182
   58MOL   C38443818   6.173   0.409   4.926 -0.1078 -0.2832 -0.6464
   58MOL   C38543819   6.268   0.492   4.843 -0.3394  0.2576  0.4225
   58MOL   C38643820   6.023   0.422   4.880  0.2691 -0.1263  0.3251
   58MOL   C38743821   5.939   0.331   4.963 -0.4798 -0.1754 -0.2682
   58MOL   C38843822   5.977   0.185   4.957  0.7437  0.2883 -0.0821
   58MOL   C38943823   5.880   0.099   5.038 -1.1619 -0.9948 -0.3921
   58MOL   O39043824   5.894   7.995   5.019  0.2515  0.7497 -0.0295
   58MOL   C39143825   5.949   7.912   5.114 -0.1958  0.2678  0.1293
   58MOL   O39243826   5.987   7.943   5.227  0.3662  0.2415  0.0875
   58MOL   C39343827   5.959   7.781   5.057 -0.7285  0.5800  0.3503
   58MOL   C39443828   6.041   7.681   5.124  0.9080 -0.5024 -0.1734
   58MOL   C39543829   6.050   7.552   5.074  0.3029  0.0484  0.9507
   58MOL   C39643830   5.992   7.516   4.952 -0.3059  0.2660 -0.0594
   58MOL   C39743831   5.995   7.373   4.902 -0.5904 -0.6043 -0.4557
   58MOL   O39843832   5.924   7.336   4.809 -0.4443 -0.0358  0.3941
   58MOL   O39943833   6.083   7.298   4.955  0.7801 -0.2119  0.0482
   58MOL   C40043834   5.926   7.617   4.876  0.7711  0.0783  0.3924
   58MOL   C40143835   5.902   7.746   4.929 -0.3600  0.2243  0.4943
   58MOL   H40243836   6.126   0.202   5.113 -0.1894 -2.0232  0.3549
   58MOL   H40343837   6.147   0.060   5.011 -1.3357 -0.5170 -2.4382
   58MOL   H40443838   6.240   0.220   4.834 -1.5071 -1.1521  0.6332
   58MOL   H40543839   6.299   0.264   4.995 -1.1447  2.2547  1.1722
   58MOL   H40643840   6.182   0.437   5.031 -2.7182  1.7900 -0.9230
   58MOL   H40743841   6.220   0.588   4.825  1.7008  0.8230 -2.4318
   58MOL   H40843842   6.270   0.448   4.743 -3.4476  1.4306 -0.2198
   58MOL   H40943843   6.009   0.387   4.777 -0.2602  1.2008 -0.0723
   58MOL   H41043844   5.997   0.528   4.875  0.3987 -0.1604 -1.7453
   58MOL   H41143845   5.945   0.350   5.070  0.9693  1.5513 -0.6273
   58MOL   H41243846   5.834   0.332   4.933 -0.5150  1.8400 -0.1968
   58MOL   H41343847   5.972   0.149   4.854 -0.7792  1.5376 -0.4638
   58MOL   H41443848   5.777   0.134   5.026 -0.6953 -0.1330 -2.1560
   58MOL   H41543849   5.887   0.125   5.143 -3.5002  0.2145 -0.4967
   58MOL   H41643850   6.078   7.699   5.224 -2.0155  1.9688  0.5453
   58MOL   H41743851   6.079   7.472   5.141 -0.2760 -0.2181  0.8877
   58MOL   H41843852   5.881   7.587   4.782 -0.0924 -1.5331  1.3083
   58MOL   H41943853   5.850   7.823   4.873  1.4290  2.1869  1.4258
   58MOL   C42043854   6.060   7.012   5.283 -0.6970 -0.0312  0.4943
   58MOL   C42143855   6.098   7.111   5.176  0.3376 -0.6749 -0.4754
   58MOL   C42243856   6.037   7.068   5.036  0.4042  0.6903  0.0416
   58MOL   C42343857   6.094   7.157   4.924  0.2977 -0.3473  0.0900
   58MOL   C42443858   6.068   6.922   4.999 -0.3499  0.8227 -0.2569
   58MOL   C42543859   6.065   6.820   5.118 -0.4980  0.2907 -0.2459
   58MOL   C42643860   6.121   6.874   5.255 -0.1387  0.2116 -0.3158
   58MOL   C42743861   6.103   6.767   5.365  0.1003  0.1296 -0.0615
   58MOL   O42843862   5.969   6.730   5.377  0.4521 -0.2249  0.4095
   58MOL   C42943863   5.902   6.751   5.489 -0.5271  0.3777 -0.3655
   58MOL   O43043864   5.955   6.794   5.590 -0.1823  0.3881 -0.3601
   58MOL   C43143865   5.761   6.707   5.482 -0.3140 -0.1924 -0.0373
   58MOL   C43243866   5.671   6.766   5.578 -0.7079  1.2200 -0.4928
   58MOL   C43343867   5.538   6.730   5.575 -0.4574 -0.6658 -1.1484
   58MOL   C43443868   5.486   6.647   5.470  0.3931  0.8478 -0.7348
   58MOL   C43543869   5.342   6.598   5.468  0.7261  0.8530  0.1913
   58MOL   O43643870   5.299   6.506   5.397 -1.0555 -0.1139 -0.2861
   58MOL   O43743871   5.269   6.677   5.535 -0.7411 -0.5983  0.8675
   58MOL   C43843872   5.581   6.591   5.378  0.2810  0.7791 -0.2833
   58MOL   C43943873   5.715   6.625   5.384  0.6218 -0.0548 -0.5309
   58MOL   H44043874   5.952   7.014   5.293 -0.8011  0.2970 -0.6240
   58MOL   H44143875   6.100   7.060   5.373 -1.7453 -1.7206  1.8826
   58MOL   H44243876   6.206   7.124   5.176  0.7400 -3.6960 -1.1133
   58MOL   H44343877   6.062   7.210   5.206  2.3152  0.2063 -0.9285
   58MOL   H44443878   5.929   7.085   5.038  0.6897  2.4668  1.4838
   58MOL   H44543879   6.045   7.123   4.832  2.4760  0.6164 -1.4630
   58MOL   H44643880   6.201   7.147   4.909  0.3066 -2.7908  1.4183
   58MOL   H44743881   6.168   6.928   4.955 -0.3791  1.8767 -0.1970
   58MOL   H44843882   5.997   6.887   4.924 -0.4079  2.5887 -1.0622
   58MOL   H44943883   5.973   6.762   5.118  0.4565 -1.2791 -2.6807
   58MOL   H45043884   6.138   6.744   5.090 -1.9252 -1.8904  1.7031
   58MOL   H45143885   6.227   6.890   5.236  0.3363 -1.1908  1.1601
   58MOL   H45243886   6.148   6.816   5.452  2.0628 -0.3502 -0.7694
   58MOL   H45343887   6.159   6.680   5.331 -0.0774  0.3157 -0.8570
   58MOL   H45443888   5.713   6.826   5.657 -2.4800  1.3077  0.4173
   58MOL   H45543889   5.483   6.753   5.665  2.1368 -1.2954  0.6514
   58MOL   H45643890   5.540   6.541   5.292  0.7364  0.2046 -0.1701
   58MOL   H45743891   5.778   6.593   5.303  3.0303 -0.6299  1.5195
   58MOL   C45843892   5.014   6.867   5.217  0.2463 -0.3408 -0.1841
   58MOL   C45943893   5.106   6.776   5.302 -0.1053 -0.4248  0.1933
   58MOL   C46043894   5.064   6.772   5.453  0.7414 -0.3329 -0.5114
   58MOL   C46143895   5.124   6.667   5.540  0.0895  0.2574 -0.1750
   58MOL   C46243896   5.091   6.919   5.497 -0.0284 -0.0738 -0.1177
   58MOL   C46343897   4.992   7.010   5.419 -0.5023 -0.4396  0.5135
   58MOL   C46443898   5.030   7.010   5.271  1.0619 -0.2598 -0.4675
   58MOL   C46543899   4.939   7.118   5.198 -0.3023 -0.0832 -0.2105
   58MOL   O46643900   4.930   7.246   5.265 -0.2238  0.3181 -0.4233
   58MOL   C46743901   4.889   7.347   5.184  0.0094 -0.6164 -0.1537
   58MOL   O46843902   4.874   7.341   5.057  0.3935  0.1246 -0.3514
   58MOL   C46943903   4.864   7.478   5.255 -0.0298 -0.0697  0.1256
   58MOL   C47043904   4.893   7.494   5.387 -0.3971  0.3278  0.0480
   58MOL   C47143905   4.874   7.622   5.450 -1.0057  0.1373 -0.2536
   58MOL   C47243906   4.822   7.730   5.371 -0.6080  0.4040 -0.4926
   58MOL   C47343907   4.805   7.858   5.429 -0.0310 -0.4343  0.0689
   58MOL   O47443908   4.742   7.955   5.380 -0.8287  0.0407 -0.4714
   58MOL   O47543909   4.863   7.868   5.554 -0.0913 -0.1598  0.2959
   58MOL   C47643910   4.794   7.711   5.236  0.4157 -0.6496  0.0887
   58MOL   C47743911   4.811   7.586   5.180  0.1263 -0.2267 -0.1903
   58MOL   H47843912   4.908   6.839   5.212  0.0800  0.3466 -0.4773
   58MOL   H47943913   5.057   6.868   5.117  1.5748 -1.5396  0.3528
   58MOL   H48043914   5.209   6.810   5.293 -0.3647 -0.3307 -2.7694
   58MOL   H48143915   5.108   6.672   5.269  0.9631 -0.4366  0.2890
   58MOL   H48243916   4.956   6.769   5.462  0.9479 -1.5783  1.8111
   58MOL   H48343917   5.091   6.566   5.517  0.0106  0.7110 -2.0902
   58MOL   H48443918   5.096   6.702   5.639 -2.8605  0.5113 -1.0527
   58MOL   H48543919   5.198   6.939   5.484  0.0486 -0.1155  0.4584
   58MOL   H48643920   5.074   6.923   5.604 -3.7220 -0.6919 -0.6146
   58MOL   H48743921   4.889   6.974   5.422  0.5589 -3.5612  1.8330
   58MOL   H48843922   4.986   7.107   5.468 -1.3781 -0.4466  0.4300
   58MOL   H48943923   5.132   7.046   5.260  0.6084  0.9948 -0.6640
   58MOL   H49043924   4.838   7.079   5.185  0.0013 -1.0685  0.3018
   58MOL   H49143925   4.969   7.135   5.094 -0.5498  0.1219 -0.2485
   58MOL   H49243926   4.933   7.424   5.460 -0.0924 -2.7867 -2.9930
   58MOL   H49343927   4.912   7.632   5.551  1.2499 -0.7920 -0.9707
   58MOL   H49443928   4.767   7.794   5.173  0.2750  0.3460  1.4451
   58MOL   H49543929   4.803   7.560   5.075  2.7191 -1.1502 -0.2094
   58MOL   C49643930   5.031   0.037   5.977 -0.0564 -0.3249  0.3808
   58MOL   C49743931   4.964   0.053   5.835  0.7705 -0.0766 -0.4973
   58MOL   C49843932   4.927   7.950   5.768  0.2122  0.7699  0.5063
   58MOL   C49943933   4.885   7.988   5.620  0.0366  0.3077 -0.0625
   58MOL   C50043934   5.049   7.858   5.771 -0.1516 -0.0198  0.0040
   58MOL   C50143935   5.116   7.845   5.905 -0.5049  0.3876 -0.3845
   58MOL   C50243936   5.162   7.986   5.961 -0.4141  0.4499  0.5706
   58MOL   C50343937   5.227   7.971   6.104 -0.4706  0.0565  0.2282
   58MOL   O50443938   5.340   7.886   6.101  0.3444 -0.1270 -0.1414
   58MOL   C50543939   5.464   7.933   6.124  0.2135 -0.4478  0.1285
   58MOL   O50643940   5.487   0.016   6.161 -0.2787 -0.1549 -0.3605
   58MOL   C50743941   5.576   7.835   6.116  0.4427  0.3876  0.2219
   58MOL   C50843942   5.708   7.878   6.133 -1.2504  0.1205 -0.3993
   58MOL   C50943943   5.814   7.791   6.104  1.1235 -0.2563 -0.6057
   58MOL   C51043944   5.794   7.654   6.077  0.0204  0.0564  0.2266
   58MOL   C51143945   5.903   7.549   6.045  1.0999  0.0131 -0.0552
   58MOL   O51243946   5.882   7.430   6.028 -0.1702 -0.2127 -0.6862
   58MOL   O51343947   6.027   7.601   6.038 -0.0250  0.3203 -0.0327
   58MOL   C51443948   5.661   7.608   6.080 -0.2685 -0.1285  0.5361
   58MOL   C51543949   5.558   7.698   6.097  0.0128 -0.5740  0.3250
   58MOL   H51643950   4.963   8.026   6.050 -0.1880  0.1842  0.5568
   58MOL   H51743951   5.048   0.142   5.999  1.0681 -0.5560  0.6179
   58MOL   H51843952   5.027   0.114   5.771  0.1662 -0.1418 -1.1667
   58MOL   H51943953   4.876   0.115   5.852  0.1259 -1.1518  0.1538
   58MOL   H52043954   4.845   7.900   5.819  1.6368 -1.3179  0.8159
   58MOL   H52143955   4.958   0.014   5.563  0.2792 -0.9804 -1.0783
   58MOL   H52243956   4.793   0.013   5.622 -2.4222 -3.3837 -2.1687
   58MOL   H52343957   5.113   7.881   5.685 -0.4651 -0.9945 -0.4932
   58MOL   H52443958   5.014   7.759   5.743  0.2740 -0.2856  0.4026
   58MOL   H52543959   5.045   7.800   5.976  0.7488 -3.4724 -1.4266
   58MOL   H52643960   5.202   7.779   5.893  0.4493  1.6156 -0.3613
   58MOL   H52743961   5.235   0.006   5.900  0.4469  0.1968  1.3733
   58MOL   H52843962   5.158   7.935   6.180 -1.1185  2.0286  0.6146
   58MOL   H52943963   5.258   0.041   6.128 -2.2493  0.3969  1.1896
   58MOL   H53043964   5.740   7.980   6.147 -1.1987  0.1037 -0.4008
   58MOL   H53143965   5.910   7.841   6.103  0.6660  0.6878  0.8697
   58MOL   H53243966   5.637   7.502   6.085  0.2215 -0.2392  0.5959
   58MOL   H53343967   5.457   7.660   6.098 -1.1763  2.4086  0.1102
   58MOL   C53443968   6.403   7.779   5.887  0.0251 -0.2627  0.3733
   58MOL   C53543969   6.270   7.698   5.895  0.5179 -0.1111 -0.3262
   58MOL   C53643970   6.267   7.609   6.024  0.3325 -0.4084 -0.2343
   58MOL   C53743971   6.143   7.520   6.043 -0.5508 -0.1249 -0.1956
   58MOL   C53843972   6.396   7.525   6.036 -0.3712 -0.2027  0.2244
   58MOL   C53943973   6.522   7.624   6.039  0.4960  0.3880  0.3296
   58MOL   C54043974   6.538   7.701   5.909 -1.0741  0.7641  0.3584
   58MOL   C54143975   6.661   7.788   5.914  0.2513  0.2319  0.3444
   58MOL   O54243976   6.785   7.716   5.893 -0.7340  0.3179  0.1209
   58MOL   C54343977   6.865   7.691   6.003 -0.6827 -0.0182 -0.2614
   58MOL   O54443978   6.856   7.747   6.114 -0.1950 -0.2431 -0.2237
   58MOL   C54543979   6.970   7.590   5.976 -0.4102  0.0819  0.4459
   58MOL   C54643980   7.002   7.555   5.839 -0.6589  0.2282  0.3834
   58MOL   C54743981   7.092   7.449   5.809  0.4512 -0.1779  0.1064
   58MOL   C54843982   7.149   7.375   5.915  0.1689 -0.9662 -0.4351
   58MOL   C54943983   7.254   7.267   5.894  0.3207 -0.1219  0.3910
   58MOL   O55043984   7.289   7.189   5.987 -0.0379  0.0218 -0.1736
   58MOL   O55143985   7.301   7.274   5.773  0.3347 -0.1017 -0.3360
   58MOL   C55243986   7.127   7.417   6.046  0.3691 -0.1420  0.0063
   58MOL   C55343987   7.041   7.523   6.079 -0.7205 -0.5804  0.3478
   58MOL   H55443988   6.390   7.856   5.962 -1.9868  0.0421 -0.2522
   58MOL   H55543989   6.407   7.816   5.784  2.0958  0.0835  0.5615
   58MOL   H55643990   6.260   7.633   5.809 -0.3387  0.5074 -0.6984
   58MOL   H55743991   6.183   7.763   5.883 -1.3816 -2.7541 -1.2448
   58MOL   H55843992   6.266   7.676   6.110  0.8134  0.0173 -0.5603
   58MOL   H55943993   6.159   7.449   6.125  2.0419 -0.2752 -0.7851
   58MOL   H56043994   6.134   7.465   5.950 -0.7600  1.9732 -1.4319
   58MOL   H56143995   6.402   7.452   5.956  1.6528 -0.7590  0.8332
   58MOL   H56243996   6.397   7.470   6.130  2.2230  0.6870  0.7817
   58MOL   H56343997   6.509   7.693   6.123  2.6314  0.5192  0.5815
   58MOL   H56443998   6.612   7.564   6.056  0.8172  1.0006  0.8315
   58MOL   H56543999   6.546   7.631   5.826  0.6418  2.5018 -0.9780
   58MOL   H56644000   6.664   7.846   6.006  0.8352  0.1204  0.3970
   58MOL   H56744001   6.651   7.861   5.834 -1.2932 -0.8330 -0.4576
   58MOL   H56844002   6.953   7.601   5.754 -1.2546 -1.7024 -0.3450
   58MOL   H56944003   7.121   7.422   5.708 -1.4067 -0.3749 -0.3953
   58MOL   H57044004   7.181   7.368   6.126  0.5739  0.0610 -0.0081
   58MOL   H57144005   7.024   7.552   6.182 -1.3324 -0.8681  0.3346
   58MOL   C57244006   7.689   7.422   5.598 -0.8847  0.5686  0.0833
   58MOL   C57344007   7.594   7.370   5.706 -0.4748 -0.4850  0.3993
   58MOL   C57444008   7.498   7.264   5.634  0.5256  0.1750 -0.4536
   58MOL   C57544009   7.403   7.187   5.729  0.2165 -0.7556 -0.2556
   58MOL   C57644010   7.433   7.322   5.505 -0.2259  0.5221  0.7718
   58MOL   C57744011   7.536   7.374   5.414 -0.5523 -0.5315  0.7365
   58MOL   C57844012   7.623   7.487   5.479  0.5027  0.0531 -0.0838
   58MOL   C57944013   7.716   7.553   5.385  0.4621  0.8253  0.0887
   58MOL   O58044014   7.773   7.673   5.450 -0.0540 -0.5306  0.6534
   58MOL   C58144015   7.905   7.687   5.459 -0.4243 -0.0445  0.0338
   58MOL   O58244016   7.983   7.606   5.406 -0.2115 -0.3267 -0.0589
   58MOL   C58344017   7.947   7.796   5.549  0.1465  0.4502  0.1479
   58MOL   C58444018   0.044   7.809   5.599  0.1959  0.5637  0.7194
   58MOL   C58544019   0.082   7.919   5.674 -0.0220  0.2904  0.0404
   58MOL   C58644020   8.018   8.015   5.714 -0.5203 -0.0204  0.8790
   58MOL   C58744021   0.018   0.095   5.810 -0.2597 -0.1892  0.1806
   58MOL   O58844022   7.967   0.165   5.860 -0.4525  0.3030  0.3537
   58MOL   O58944023   0.154   0.113   5.833 -1.1352 -0.1640 -0.1425
   58MOL   C59044024   7.887   7.996   5.677  0.3248 -0.8433  0.2794
   58MOL   C59144025   7.847   7.887   5.597 -0.0066 -0.0321 -0.2553
   58MOL   H59244026   7.745   7.332   5.571  2.0377  2.0352  0.9883
   58MOL   H59344027   7.764   7.486   5.645 -1.6735  1.7152 -0.2107
   58MOL   H59444028   7.539   7.455   5.745  0.5621  0.6008 -0.4648
   58MOL   H59544029   7.649   7.325   5.789  2.0227  0.3018 -0.7890
   58MOL   H59644030   7.553   7.182   5.587  0.3641  1.5164 -3.0499
   58MOL   H59744031   7.465   7.142   5.806  1.1400 -1.0925 -1.1820
   58MOL   H59844032   7.359   7.102   5.676  0.4944 -0.0395 -1.6699
   58MOL   H59944033   7.370   7.407   5.533 -0.4588  0.5218  0.2530
   58MOL   H60044034   7.367   7.254   5.453 -0.0961  0.4271  0.7308
   58MOL   H60144035   7.601   7.293   5.382  0.7646 -0.1602  2.3460
   58MOL   H60244036   7.494   7.426   5.328 -1.0616 -1.2581  0.5393
   58MOL   H60344037   7.561   7.570   5.513  0.9016  1.2007 -2.0811
   58MOL   H60444038   7.661   7.596   5.301 -0.0500  1.7930  0.8938
   58MOL   H60544039   7.787   7.480   5.346 -0.6385 -1.0174  1.4787
   58MOL   H60644040   0.117   7.743   5.555  0.4519  0.4697  1.2701
   58MOL   H60744041   0.188   7.923   5.697  0.2962  0.4326 -1.4031
   58MOL   H60844042   7.807   0.025   5.717 -0.2115 -0.0053 -1.9968
   58MOL   H60944043   7.742   7.885   5.574 -0.6386 -1.3390  2.4671
   58MOL   C61044044   0.365   8.031   6.210  0.2725 -0.7564 -0.5303
   58MOL   C61144045   0.337   0.055   6.068 -0.0282  0.1066  0.0646
   58MOL   C61244046   0.220   0.150   6.072  0.0798 -0.7480 -0.0736
   58MOL   C61344047   0.194   0.207   5.933 -0.7381  0.3205  0.4640
   58MOL   C61444048   0.096   0.093   6.139 -0.4318 -0.4293 -0.1384
   58MOL   C61544049   0.134   0.067   6.287  0.1349 -0.1184  0.3082
   58MOL   C61644050   0.241   7.991   6.280  0.8741  0.5006 -0.4979
   58MOL   C61744051   0.277   7.958   6.422 -0.1141 -0.5277 -0.3646
   58MOL   O61844052   0.165   7.906   6.487 -0.1021 -0.8441 -0.6145
   58MOL   C61944053   0.162   7.825   6.595  0.1217 -0.6280 -0.9550
   58MOL   O62044054   0.265   7.792   6.656  0.5093  0.4317 -0.2369
   58MOL   C62144055   0.020   7.796   6.634 -0.0762 -0.2362  0.5344
   58MOL   C62244056   7.948   7.846   6.554  0.5130 -0.3528  0.6975
   58MOL   C62344057   7.817   7.819   6.586 -0.3348  0.2850 -1.2921
   58MOL   C62444058   7.786   7.746   6.705 -0.2962  0.2639  0.0605
   58MOL   C62544059   7.645   7.724   6.742 -0.0507 -0.0646  0.0457
   58MOL   O62644060   7.546   7.739   6.664 -0.1341 -0.0751 -0.2092
   58MOL   O62744061   7.628   7.682   6.865  0.6495  0.4051 -0.2450
   58MOL   C62844062   7.889   7.685   6.774  0.2670  0.3223 -1.2520
   58MOL   C62944063   8.021   7.709   6.738  0.4817  0.1391  0.1249
   58MOL   H63044064   0.415   0.066   6.279 -0.3284  0.0580 -0.8744
   58MOL   H63144065   0.440   7.952   6.199  0.6700 -0.5263  0.4785
   58MOL   H63244066   0.327   8.012   5.989  1.1213  0.6095 -0.5767
   58MOL   H63344067   0.422   0.111   6.031 -0.6619  1.1082  0.1125
   58MOL   H63444068   0.246   0.229   6.142 -0.6809  0.5582 -1.2169
   58MOL   H63544069   0.286   0.260   5.909 -0.8422  0.0546 -0.5299
   58MOL   H63644070   0.122   0.288   5.931 -2.7028 -1.3900  0.4220
   58MOL   H63744071   0.069   8.031   6.092 -1.2459 -0.4565  0.3610
   58MOL   H63844072   0.019   0.170   6.144 -0.5414 -0.5203 -0.4528
   58MOL   H63944073   0.176   0.152   6.341  1.5933 -1.5752  1.5029
   58MOL   H64044074   0.058   0.043   6.361  1.6431 -2.6231  1.0851
   58MOL   H64144075   0.194   7.903   6.237  0.6973 -0.8250  2.3169
   58MOL   H64244076   0.305   0.014   6.479  1.4258  0.7168 -2.9384
   58MOL   H64344077   0.360   7.892   6.444  1.2384  1.7347  1.4218
   58MOL   H64444078   7.973   7.911   6.471 -0.4959  0.5574  1.0994
   58MOL   H64544079   7.741   7.867   6.526 -1.4873  1.4966  1.0563
   58MOL   H64644080   7.857   7.632   6.863 -0.6230  0.0219 -1.7446
   58MOL   H64744081   0.062   7.665   6.804 -1.1780 -1.5896  0.8444
   58MOL   C64844082   7.364   7.853   7.256 -0.2659 -0.2711  0.4141
   58MOL   C64944083   7.389   7.759   7.141  0.0613  0.5161  0.3593
   58MOL   C65044084   7.505   7.781   7.053  0.4844  0.0716  0.3658
   58MOL   C65144085   7.502   7.675   6.937 -0.3288  0.1764 -0.2702
   58MOL   C65244086   7.502   7.927   7.000 -0.0101  0.1639 -0.6863
   58MOL   C65344087   7.488   8.023   7.118 -0.7397  0.1034  0.6469
   58MOL   C65444088   7.358   7.999   7.205 -0.1220  0.3534 -0.6122
   58MOL   C65544089   7.356   0.069   7.325  0.4454 -0.9011 -0.6989
   58MOL   O65644090   7.345   0.204   7.287 -0.3236  0.7286  0.9743
   58MOL   C65744091   7.291   0.295   7.377  0.4117  0.0176  0.1276
   58MOL   O65844092   7.238   0.264   7.484 -0.6955 -0.3250  0.2084
   58MOL   C65944093   7.303   0.429   7.320  0.0391 -0.5152 -0.4213
   58MOL   C66044094   7.235   0.530   7.388  0.5564  0.2064 -0.4547
   58MOL   C66144095   7.243   0.665   7.347  0.5054 -0.0585  0.8992
   58MOL   C66244096   7.325   0.697   7.237  0.2749  0.0529  0.6549
   58MOL   C66344097   7.319   0.834   7.174 -0.1727 -0.0864 -0.2657
   58MOL   O66444098   7.359   0.852   7.060  0.2662  0.4496  0.3177
   58MOL   O66544099   7.281   0.927   7.271 -0.7525 -0.3428 -0.1878
   58MOL   C66644100   7.390   0.591   7.169 -0.1911  0.7121  0.2107
   58MOL   C66744101   7.379   0.456   7.208 -0.4563 -0.3699 -0.1754
   58MOL   H66844102   7.434   7.828   7.336  0.0109 -0.5097  0.1019
   58MOL   H66944103   7.273   7.815   7.302  1.1403 -1.9850  1.8429
   58MOL   H67044104   7.297   7.751   7.082  0.8619  1.1796 -1.0115
   58MOL   H67144105   7.383   7.659   7.182  1.2743 -0.0685 -0.8609
   58MOL   H67244106   7.599   7.759   7.104 -0.0569  0.9011  1.7443
   58MOL   H67344107   7.417   7.686   6.870 -0.5271  0.8853  0.0946
   58MOL   H67444108   7.499   7.570   6.965  0.3396  0.1173 -0.4105
   58MOL   H67544109   7.423   7.934   6.927  0.4181 -0.0187 -1.1694
   58MOL   H67644110   7.601   7.935   6.956  1.8395 -1.6084  2.8789
   58MOL   H67744111   7.574   8.026   7.184 -0.1404 -2.3388  0.0256
   58MOL   H67844112   7.474   0.093   7.081 -0.7188 -0.0754  0.1442
   58MOL   H67944113   7.267   8.019   7.149  0.0744  1.3928 -0.5664
   58MOL   H68044114   7.440   0.051   7.393 -1.4194 -3.9697  0.8938
   58MOL   H68144115   7.273   0.058   7.395 -0.1010  4.8182 -0.1417
   58MOL   H68244116   7.174   0.517   7.475  0.3384  3.4526 -0.0594
   58MOL   H68344117   7.186   0.732   7.409 -1.9784 -1.2060 -0.1014
   58MOL   H68444118   7.453   0.610   7.083 -0.3453  3.6771  0.7039
   58MOL   H68544119   7.436   0.384   7.152  1.3537 -1.5192  3.0252
   58MOL   C68644120   7.205   1.300   7.540 -0.3871  0.0833 -0.2632
   58MOL   C68744121   7.294   1.207   7.454  0.0562  0.4126  0.0197
   58MOL   C68844122   7.220   1.159   7.322 -0.2899 -0.2428 -0.1413
   58MOL   C68944123   7.284   1.059   7.231 -0.4739  0.3839 -0.1855
   58MOL   C69044124   7.072   1.112   7.350 -0.0013 -0.0284  0.2306
   58MOL   C69144125   6.992   1.230   7.429  0.5352 -0.5258  0.0526
   58MOL   C69244126   7.060   1.259   7.567  0.0110 -0.4475  0.8081
   58MOL   C69344127   6.985   1.367   7.644  0.4772 -0.0373 -0.2466
   58MOL   O69444128   6.856   1.312   7.668  0.5086 -0.1640 -0.0628
   58MOL   C69544129   6.812   1.277   7.793  0.2458 -0.2817 -0.4762
   58MOL   O69644130   6.878   1.309   7.893 -0.3362  0.4743  0.1545
   58MOL   C69744131   6.685   1.209   7.782 -0.4003  0.9633 -0.8125
   58MOL   C69844132   6.640   1.162   7.661 -0.0959  0.5809 -0.0501
   58MOL   C69944133   6.516   1.096   7.650 -0.1420 -0.2711 -0.2334
   58MOL   C70044134   6.440   1.064   7.775  0.7419 -0.3596 -0.3461
   58MOL   C70144135   6.307   1.003   7.769 -0.3574  0.5033  0.1239
   58MOL   O70244136   6.231   1.002   7.864  0.5927  0.0001  0.1576
   58MOL   O70344137   6.284   0.943   7.645  0.1495  0.3560 -0.1566
   58MOL   C70444138   6.498   1.097   7.901 -0.3000  0.4066  0.0301
   58MOL   C70544139   6.612   1.180   7.902  0.7932  0.0121  0.1254
   58MOL   H70644140   7.197   1.400   7.499 -0.7025 -0.2694 -1.0730
   58MOL   H70744141   7.259   1.312   7.634 -1.6436  1.2056  0.3265
   58MOL   H70844142   7.317   1.121   7.517  1.4917  1.8111  1.4417
   58MOL   H70944143   7.390   1.237   7.413 -0.3501  0.6935 -0.7266
   58MOL   H71044144   7.207   1.244   7.256 -1.2405  0.6107  1.1241
   58MOL   H71144145   7.385   1.084   7.198  0.1872 -0.0029  1.4684
   58MOL   H71244146   7.224   1.057   7.141  1.9825 -1.5140 -1.8605
   58MOL   H71344147   7.071   1.018   7.405  1.0558  1.1860  2.3946
   58MOL   H71444148   7.005   1.082   7.269  1.0734 -0.6323 -0.4420
   58MOL   H71544149   6.988   1.314   7.360  0.3604 -0.7179 -0.1729
   58MOL   H71644150   6.889   1.193   7.434  0.3883 -0.1067  0.1430
   58MOL   H71744151   7.050   1.164   7.620 -2.5496 -0.5538  0.2041
   58MOL   H71844152   6.977   1.452   7.576  3.2938  0.6066  0.1573
   58MOL   H71944153   7.035   1.403   7.734 -2.2014  0.3376  1.1729
   58MOL   H72044154   6.686   1.177   7.564 -2.2349 -0.1250 -1.2102
   58MOL   H72144155   6.470   1.074   7.555 -0.5202  0.7553 -0.2934
   58MOL   H72244156   6.441   1.085   7.992 -0.7638 -0.7817 -0.4025
   58MOL   H72344157   6.647   1.209   8.000 -3.2528  0.6391  1.4915
   58MOL   C72444158   6.376   0.557   7.439 -0.4805  0.1187 -0.0525
   58MOL   C72544159   6.325   0.664   7.550 -0.2781 -0.4938 -0.3523
   58MOL   C72644160   6.210   0.751   7.514 -0.9996 -0.9639 -0.2707
   58MOL   C72744161   6.177   0.850   7.629  0.4902  0.4947 -0.1234
   58MOL   C72844162   6.243   0.816   7.376 -0.3571 -0.1992  0.9485
   58MOL   C72944163   6.272   0.712   7.268 -0.0773 -0.7685 -0.6102
   58MOL   C73044164   6.402   0.626   7.305 -0.2496 -0.3577 -0.0026
   58MOL   C73144165   6.441   0.525   7.198 -0.0142 -0.5347  0.1489
   58MOL   O73244166   6.546   0.444   7.247  0.0904  0.0606 -0.0641
   58MOL   C73344167   6.573   0.328   7.185 -0.1242 -0.3402 -0.0947
   58MOL   O73444168   6.523   0.303   7.077  0.0081  0.4156  0.1097
   58MOL   C73544169   6.661   0.234   7.257 -0.4505 -0.0945 -0.0467
   58MOL   C73644170   6.713   0.265   7.382 -0.0843  0.1266  0.6711
   58MOL   C73744171   6.795   0.180   7.455  0.3127  0.0865  0.2688
   58MOL   C73844172   6.819   0.048   7.402 -0.0703 -0.1721  1.0242
   58MOL   C73944173   6.895   7.980   7.483 -0.1300 -0.1991 -0.3457
   58MOL   O74044174   6.955   8.009   7.585  0.1064  0.2401  0.1932
   58MOL   O74144175   6.904   7.855   7.429 -0.2740  0.1599  0.2314
   58MOL   C74244176   6.760   0.011   7.277 -0.0417 -0.4046  0.2925
   58MOL   C74344177   6.689   0.107   7.200 -0.1635 -0.0275  0.0065
   58MOL   H74444178   6.299   0.481   7.428  0.7025 -1.0997  0.0145
   58MOL   H74544179   6.466   0.504   7.470 -0.0829 -0.2789 -1.8784
   58MOL   H74644180   6.404   0.728   7.591 -0.5607 -1.2578  1.4318
   58MOL   H74744181   6.300   0.599   7.634 -3.2924 -1.8772 -2.2763
   58MOL   H74844182   6.126   0.681   7.504 -1.7712 -0.2771  1.3237
   58MOL   H74944183   6.148   0.809   7.726  0.5232 -0.1616 -0.3845
   58MOL   H75044184   6.093   0.914   7.604  1.3462  1.6166 -0.1657
   58MOL   H75144185   6.324   0.889   7.376 -0.7980  0.2840  0.5796
   58MOL   H75244186   6.151   0.868   7.350 -2.5755 -4.9376 -1.3501
   58MOL   H75344187   6.184   0.651   7.251 -1.2451  0.0026  2.1954
   58MOL   H75444188   6.296   0.770   7.179 -0.6848  2.9108  1.4684
   58MOL   H75544189   6.489   0.691   7.307  0.6650 -1.5741  0.0501
   58MOL   H75644190   6.461   0.591   7.114 -0.0819  2.0493  2.1019
   58MOL   H75744191   6.355   0.461   7.177 -0.9243  0.3244  1.1260
   58MOL   H75844192   6.690   0.364   7.419 -2.0443 -0.7306  1.8043
   58MOL   H75944193   6.833   0.205   7.553 -2.2469  0.4109  1.2256
   58MOL   H76044194   6.783   7.949   7.228 -0.3460 -0.5964  0.5245
   58MOL   H76144195   6.671   0.091   7.095  2.4326 -1.0094 -0.3370
   58MOL   H76244196   6.957   7.803   7.488  0.6109  0.1682 -0.5498
   59MOL     C144197   7.724   3.415   3.977  0.3565 -0.4784 -0.3950
   59MOL     C244198   7.831   3.307   4.000  0.2149 -0.4604 -0.4657
   59MOL     C344199   7.900   3.328   4.134  0.3521 -0.8867  0.2007
   59MOL     C444200   7.997   3.215   4.157  0.6006  0.0057 -0.2001
   59MOL     C544201   7.965   3.468   4.145  0.5793 -0.3301 -0.2618
   59MOL     C644202   7.860   3.575   4.128  0.4138  0.3607 -0.0113
   59MOL     C744203   7.791   3.562   3.990 -0.2549  0.3545 -0.2224
   59MOL     C844204   7.703   3.693   3.966  0.2170  0.2825  0.6444
   59MOL     O944205   7.642   3.667   3.840  0.7562 -0.1566  0.7718
   59MOL    C1044206   7.605   3.757   3.753  0.3153  0.5198 -0.4671
   59MOL    O1144207   7.627   3.876   3.769  0.1226 -0.0047 -0.3997
   59MOL    C1244208   7.529   3.697   3.639 -0.3258 -0.5748 -0.0939
   59MOL    C1344209   7.506   3.778   3.529 -0.5952  0.0195  0.4858
   59MOL    C1444210   7.418   3.741   3.422  0.1430  0.4937  0.5112
   59MOL    C1544211   7.353   3.617   3.425 -0.5221 -0.7596  0.3726
   59MOL    C1644212   7.265   3.584   3.309 -0.0627 -0.3878  0.5422
   59MOL    O1744213   7.254   3.653   3.209  0.0364 -0.0477  0.1087
   59MOL    O1844214   7.201   3.469   3.340  0.4724  0.3144  0.1080
   59MOL    C1944215   7.373   3.530   3.539 -0.4722  0.5711 -0.2826
   59MOL    C2044216   7.468   3.568   3.642  0.1328 -0.9166 -0.7101
   59MOL    H2144217   7.640   3.404   4.045 -1.4714  1.2110 -2.3323
   59MOL    H2244218   7.671   3.414   3.882 -3.3198  0.7793  1.5738
   59MOL    H2344219   7.912   3.319   3.927  0.8461  1.0117  0.4530
   59MOL    H2444220   7.790   3.206   3.992 -1.1450 -0.0624  1.2473
   59MOL    H2544221   7.819   3.322   4.207  0.9487 -1.6123  0.8198
   59MOL    H2644222   0.027   3.209   4.067 -0.3334  2.6276 -1.0811
   59MOL    H2744223   7.942   3.121   4.163 -1.9326  1.3629 -1.2440
   59MOL    H2844224   0.016   3.467   4.075  0.9139  0.8066  0.1112
   59MOL    H2944225   8.014   3.470   4.243 -0.6638 -3.4613  0.4890
   59MOL    H3044226   7.786   3.568   4.208  1.9155  0.3378  1.4240
   59MOL    H3144227   7.912   3.671   4.136 -0.6640  1.0417 -1.0871
   59MOL    H3244228   7.870   3.570   3.915 -0.9960 -1.1257 -1.1918
   59MOL    H3344229   7.776   3.774   3.972  1.1002 -0.5772  1.6001
   59MOL    H3444230   7.633   3.702   4.049  0.9917 -1.5093  1.5160
   59MOL    H3544231   7.554   3.875   3.529  1.2580 -0.8654 -0.8186
   59MOL    H3644232   7.407   3.807   3.336  0.4660 -2.4266 -1.8405
   59MOL    H3744233   7.329   3.432   3.540  1.2613 -0.2403  3.0354
   59MOL    H3844234   7.500   3.495   3.715  1.8346  0.9659  0.4833
   59MOL    H3944235   0.032   3.225   4.242  1.0594 -1.3026 -0.4046
   59MOL    C4044236   6.781   3.212   3.298  0.2385 -0.4011 -0.1402
   59MOL    C4144237   6.910   3.266   3.223 -0.0952  0.4967  0.1494
   59MOL    C4244238   6.987   3.370   3.304 -0.1845 -0.4523  0.4435
   59MOL    C4344239   7.120   3.407   3.240  0.2695 -0.2810  0.0423
   59MOL    C4444240   6.902   3.487   3.346  0.3523  0.1719 -0.1039
   59MOL    C4544241   6.780   3.439   3.413 -0.0595 -0.1342 -0.1929
   59MOL    C4644242   6.692   3.334   3.335  0.0367 -0.3342  0.1972
   59MOL    C4744243   6.567   3.294   3.408 -0.0940  0.5716  0.5870
   59MOL    O4844244   6.487   3.221   3.321  0.5226  0.4771 -0.1269
   59MOL    C4944245   6.473   3.097   3.327 -0.7968 -0.6362 -0.5360
   59MOL    O5044246   6.522   3.032   3.415 -0.6545  0.4658  0.2998
   59MOL    C5144247   6.381   3.046   3.223 -0.3794  0.4148 -0.1481
   59MOL    C5244248   6.330   3.133   3.124 -0.3124 -0.0945 -0.5410
   59MOL    C5344249   6.249   3.082   3.025  0.1998 -0.0896  0.0778
   59MOL    C5444250   6.208   2.946   3.016 -0.1054  0.0913 -0.3788
   59MOL    C5544251   6.111   2.891   2.920  0.0812  0.1111  0.8013
   59MOL    O5644252   6.050   2.787   2.931  0.1554  0.7427  0.0124
   59MOL    O5744253   6.097   2.973   2.815  0.6168  0.0823 -0.4654
   59MOL    C5844254   6.257   2.866   3.121  0.4031 -0.0439  0.4890
   59MOL    C5944255   6.346   2.907   3.219  0.0451 -0.0438  0.2992
   59MOL    H6044256   6.803   3.145   3.382 -1.0816  0.9191  1.3012
   59MOL    H6144257   6.734   3.141   3.230 -2.6507 -0.0290  1.3804
   59MOL    H6244258   6.870   3.305   3.129 -1.7892 -0.1034  0.5959
   59MOL    H6344259   6.972   3.183   3.188 -1.2582 -1.2693  2.1259
   59MOL    H6444260   7.014   3.311   3.391 -1.0497 -0.5373  0.6537
   59MOL    H6544261   7.093   3.486   3.171 -0.5448 -0.5174  0.0856
   59MOL    H6644262   7.164   3.317   3.198  1.1417  0.0294  0.2766
   59MOL    H6744263   6.872   3.562   3.273 -2.1628  0.7818  1.4603
   59MOL    H6844264   6.962   3.553   3.409  1.6491 -1.8244  0.7920
   59MOL    H6944265   6.808   3.398   3.510 -0.1790 -0.7891 -0.4378
   59MOL    H7044266   6.714   3.524   3.432 -1.3408 -0.9987 -0.7281
   59MOL    H7144267   6.669   3.377   3.238  0.1962  0.6131  0.5677
   59MOL    H7244268   6.505   3.383   3.423 -2.7500 -0.8052 -1.6829
   59MOL    H7344269   6.592   3.250   3.504 -0.8275 -1.2068 -0.0311
   59MOL    H7444270   6.357   3.238   3.122 -2.0321  0.3954  0.9080
   59MOL    H7544271   6.212   3.151   2.951  0.6237  0.6021  0.5017
   59MOL    H7644272   6.220   2.765   3.123 -0.7616  0.3598 -0.3090
   59MOL    H7744273   6.379   2.829   3.286 -0.7542  0.2300  1.0187
   59MOL    C7844274   6.277   2.755   2.462 -0.8533 -0.0223 -0.1171
   59MOL    C7944275   6.195   2.777   2.592  0.2763  0.5793  0.1105
   59MOL    C8044276   6.101   2.900   2.576  0.3742  0.6262 -0.0725
   59MOL    C8144277   6.015   2.931   2.706 -0.1128  0.1722 -0.5157
   59MOL    C8244278   6.177   3.023   2.544  0.5913 -0.6499 -0.7369
   59MOL    C8344279   6.271   3.002   2.420 -0.1826 -0.8917  0.2949
   59MOL    C8444280   6.364   2.879   2.428 -0.1333 -0.0110  0.3124
   59MOL    C8544281   6.445   2.866   2.290 -0.2265 -0.2809  0.4916
   59MOL    O8644282   6.527   2.977   2.254 -0.3668  0.0216  0.1548
   59MOL    C8744283   6.618   2.959   2.153 -0.1483 -0.1452  0.2517
   59MOL    O8844284   6.629   2.860   2.082 -0.5097 -0.3318 -0.1292
   59MOL    C8944285   6.718   3.065   2.143  0.0196  0.1156  0.2336
   59MOL    C9044286   6.844   3.033   2.091 -0.2517  0.4927 -0.0559
   59MOL    C9144287   6.957   3.118   2.090 -0.4655  0.1711  0.1054
   59MOL    C9244288   6.938   3.244   2.141  0.1103 -1.0129  0.1800
   59MOL    C9344289   7.053   3.335   2.154 -0.5859  0.0686 -0.8158
   59MOL    O9444290   7.057   3.439   2.231  0.1799 -0.0125  0.6854
   59MOL    O9544291   7.148   3.307   2.062  0.8397 -0.0569 -0.2241
   59MOL    C9644292   6.811   3.280   2.190 -0.3567 -0.2159 -0.0110
   59MOL    C9744293   6.696   3.200   2.185  0.0701  0.2097 -0.1008
   59MOL    H9844294   6.205   2.737   2.382 -0.6594 -1.3761  0.0087
   59MOL    H9944295   6.338   2.666   2.476  0.1686  0.3787 -1.8659
   59MOL   H10044296   6.271   2.792   2.669  2.7746  0.6099 -2.2911
   59MOL   H10144297   6.130   2.692   2.616 -0.1849  1.3438  1.6311
   59MOL   H10244298   6.044   2.874   2.487 -1.5160 -1.7757  1.7518
   59MOL   H10344299   5.954   2.842   2.722 -0.1745  0.3550  0.2976
   59MOL   H10444300   5.961   3.023   2.682 -1.6064 -0.2356  1.1297
   59MOL   H10544301   6.241   3.048   2.629 -0.0558  0.2941 -0.5209
   59MOL   H10644302   6.118   3.110   2.516  1.2514  0.5433  1.3870
   59MOL   H10744303   6.225   3.021   2.323 -1.7152 -1.9317  0.8020
   59MOL   H10844304   6.338   3.088   2.423  0.7634 -1.6369  0.9375
   59MOL   H10944305   6.449   2.891   2.495  2.7747 -1.1900 -3.0389
   59MOL   H11044306   6.375   2.863   2.207 -0.6822  3.8032  0.6323
   59MOL   H11144307   6.499   2.771   2.296 -2.1090 -1.3757  0.5346
   59MOL   H11244308   6.867   2.933   2.057  2.1684  1.3530 -1.0467
   59MOL   H11344309   7.053   3.086   2.054 -0.2708 -0.1394  0.9110
   59MOL   H11444310   6.802   3.372   2.246  3.0424  1.3636 -1.9009
   59MOL   H11544311   6.606   3.236   2.232  0.6862 -0.0408  1.3119
   59MOL   C11644312   7.358   3.334   1.664 -0.4401 -0.4632 -0.1240
   59MOL   C11744313   7.288   3.376   1.796  0.0118  0.0714 -0.1587
   59MOL   C11844314   7.361   3.352   1.926 -0.1644  0.1155 -0.0637
   59MOL   C11944315   7.271   3.383   2.054 -0.1655 -0.9116  0.6820
   59MOL   C12044316   7.402   3.199   1.918 -0.2399 -0.6938 -0.0227
   59MOL   C12144317   7.481   3.169   1.789 -0.4296 -0.7050 -0.2897
   59MOL   C12244318   7.388   3.188   1.668  0.2566  0.5416 -0.3831
   59MOL   C12344319   7.445   3.138   1.536  0.5988 -0.1566  0.4109
   59MOL   O12444320   7.357   3.143   1.430  0.0944  0.0585 -0.1236
   59MOL   C12544321   7.267   3.043   1.414  0.5400 -0.5951 -0.3296
   59MOL   O12644322   7.232   2.971   1.510  0.2031  0.3506  0.7076
   59MOL   C12744323   7.187   3.040   1.286 -0.7945  0.1012 -0.1602
   59MOL   C12844324   7.227   3.108   1.172  0.2325 -0.0665  0.7618
   59MOL   C12944325   7.148   3.111   1.055  0.4110 -0.0227 -0.2727
   59MOL   C13044326   7.039   3.030   1.046  0.9125  0.7889 -0.5322
   59MOL   C13144327   6.956   3.013   0.921 -0.4148  0.3993 -0.2167
   59MOL   O13244328   6.846   2.956   0.923 -0.1092  0.1437 -0.4261
   59MOL   O13344329   7.017   3.065   0.821  0.1998 -0.3061 -0.8387
   59MOL   C13444330   6.995   2.956   1.165  0.2915  0.6728 -0.1920
   59MOL   C13544331   7.064   2.961   1.287 -0.2230  0.3321  0.2741
   59MOL   H13644332   7.446   3.393   1.638 -0.2945 -1.4543 -1.8917
   59MOL   H13744333   7.281   3.354   1.589 -1.1897 -1.6154  0.3344
   59MOL   H13844334   7.187   3.335   1.796  0.5452 -1.2869  0.9723
   59MOL   H13944335   7.278   3.483   1.777  1.4847  0.1190 -0.7636
   59MOL   H14044336   7.458   3.401   1.936  0.1680 -0.8147  1.4367
   59MOL   H14144337   7.249   3.488   2.072 -0.0545 -0.8266  0.3192
   59MOL   H14244338   7.326   3.341   2.138  0.0042 -0.9102  0.5720
   59MOL   H14344339   7.309   3.143   1.928 -1.8036  1.3345 -2.6386
   59MOL   H14444340   7.462   3.174   2.005  1.2291  0.7852 -0.5776
   59MOL   H14544341   7.575   3.225   1.779  1.0264 -2.5239  2.6064
   59MOL   H14644342   7.505   3.063   1.794 -0.8782 -0.6977  3.1265
   59MOL   H14744343   7.296   3.134   1.687  0.2349  1.2851  1.7850
   59MOL   H14844344   7.466   3.031   1.541 -2.0966 -0.6411  2.6188
   59MOL   H14944345   7.545   3.178   1.520  0.1602  0.6326 -0.4330
   59MOL   H15044346   7.321   3.161   1.183  0.8374 -1.2531  1.3395
   59MOL   H15144347   7.183   3.154   0.962  1.6334  1.5209  0.8680
   59MOL   H15244348   6.901   2.904   1.166 -0.1314  1.4036 -1.6417
   59MOL   H15344349   7.017   2.918   1.374 -0.5919  1.7023  0.7718
   59MOL   C15444350   6.698   3.227   0.470 -0.5736  0.1898  0.5725
   59MOL   C15544351   6.817   3.142   0.510 -0.3123  0.4196 -0.2452
   59MOL   C15644352   6.854   3.148   0.659 -0.0777 -0.5036 -0.8833
   59MOL   C15744353   6.976   3.057   0.685 -0.4391 -0.3826 -0.1180
   59MOL   C15844354   6.877   3.286   0.703 -0.3282 -0.0185  0.8879
   59MOL   C15944355   6.744   3.367   0.680  0.4221 -0.6159  0.2002
   59MOL   C16044356   6.696   3.367   0.533  0.4566  0.2287 -0.2589
   59MOL   C16144357   6.555   3.432   0.521 -0.1616  0.2813  0.4255
   59MOL   O16244358   6.566   3.567   0.556 -0.0284  0.8097 -0.0421
   59MOL   C16344359   6.471   3.632   0.631  0.6481  0.0364  0.0087
   59MOL   O16444360   6.351   3.602   0.624  0.0869 -0.5088 -0.4959
   59MOL   C16544361   6.519   3.750   0.712  0.0122  0.0911 -0.0510
   59MOL   C16644362   6.654   3.774   0.734  0.5227 -0.0300  0.4803
   59MOL   C16744363   6.699   3.870   0.826  0.0225  0.1154 -0.1221
   59MOL   C16844364   6.598   3.951   0.894  0.4407 -0.0560  0.3766
   59MOL   C16944365   6.632   4.036   1.008 -0.6974 -0.2833  0.5393
   59MOL   O17044366   6.554   4.069   1.092 -0.2940  0.3442 -0.3302
   59MOL   O17144367   6.762   4.073   0.991 -0.2918 -0.2159  0.6319
   59MOL   C17244368   6.461   3.924   0.869  0.2738 -0.0983 -0.4365
   59MOL   C17344369   6.422   3.816   0.783 -0.6126 -0.5578  0.5624
   59MOL   H17444370   6.612   3.167   0.498 -1.4128  0.6517 -0.9768
   59MOL   H17544371   6.685   3.236   0.363 -0.7408  0.1924  0.5940
   59MOL   H17644372   6.911   3.168   0.463 -0.4091 -0.3263 -0.8640
   59MOL   H17744373   6.808   3.036   0.486  2.8581 -0.4659  2.0776
   59MOL   H17844374   6.769   3.108   0.714  1.0593 -0.9592  0.5866
   59MOL   H17944375   7.061   3.083   0.622  0.2271  1.0591  1.3273
   59MOL   H18044376   6.956   2.952   0.665 -1.3010 -0.4380  0.9898
   59MOL   H18144377   6.961   3.328   0.647 -0.9051  1.8312  1.3756
   59MOL   H18244378   6.895   3.296   0.810 -1.6342  0.4927  1.0676
   59MOL   H18344379   6.673   3.318   0.747  1.2019  0.0019  1.5051
   59MOL   H18444380   6.752   3.463   0.731 -1.1165 -0.1407 -0.4296
   59MOL   H18544381   6.755   3.431   0.467  2.3563 -1.5829 -0.3420
   59MOL   H18644382   6.489   3.369   0.580  0.2831 -1.4717 -0.9012
   59MOL   H18744383   6.508   3.438   0.423 -0.7377 -0.2791  0.6641
   59MOL   H18844384   6.728   3.727   0.670  1.5830  1.5862  0.4896
   59MOL   H18944385   6.805   3.870   0.849 -0.2336 -0.8155  1.1239
   59MOL   H19044386   6.376   3.981   0.905 -1.7184 -2.2438 -1.5891
   59MOL   H19144387   6.318   3.796   0.763 -0.6798  2.2472 -2.3561
   59MOL   C19244388   7.079   4.385   0.950 -0.2373 -0.2082 -0.3043
   59MOL   C19344389   6.945   4.299   0.972 -0.0393 -0.0792 -0.1378
   59MOL   C19444390   6.961   4.188   1.071 -0.9764  0.9622 -0.3830
   59MOL   C19544391   6.826   4.135   1.102 -0.8105  0.4145  0.5505
   59MOL   C19644392   7.068   4.086   1.031  0.3827 -0.2888  0.4853
   59MOL   C19744393   7.199   4.158   0.986 -0.1501  0.3024 -0.2132
   59MOL   C19844394   7.183   4.284   0.899 -0.2023 -0.5762 -0.2419
   59MOL   C19944395   7.321   4.347   0.875 -0.3385 -0.4748 -0.3018
   59MOL   O20044396   7.324   4.456   0.788  0.1177  0.1307  0.1342
   59MOL   C20144397   7.313   4.447   0.657 -0.2423  0.0921 -0.3923
   59MOL   O20244398   7.275   4.349   0.595 -0.0895  0.3706  0.1479
   59MOL   C20344399   7.340   4.579   0.596 -0.6455  0.1673  0.0863
   59MOL   C20444400   7.332   4.584   0.456  0.7886  0.3169  0.4471
   59MOL   C20544401   7.346   4.706   0.382 -0.6757  0.9759  0.0339
   59MOL   C20644402   7.379   4.823   0.453  0.2103  0.1556  0.1210
   59MOL   C20744403   7.392   4.951   0.369  0.1326  0.7254  0.9370
   59MOL   O20844404   7.383   4.961   0.244 -0.2039  0.5181 -0.5600
   59MOL   O20944405   7.414   5.065   0.451  0.1917 -0.1790 -0.7058
   59MOL   C21044406   7.388   4.818   0.596 -0.2631 -0.1681  0.5577
   59MOL   C21144407   7.368   4.696   0.669 -0.5676 -0.6700 -0.4123
   59MOL   H21244408   7.117   4.427   1.043  1.3885 -0.3121 -0.9103
   59MOL   H21344409   7.069   4.460   0.872  0.8517 -0.2901 -0.5258
   59MOL   H21444410   6.915   4.265   0.873  1.4996  0.0326 -0.6700
   59MOL   H21544411   6.858   4.360   0.996  1.7654  1.6522  2.2776
   59MOL   H21644412   6.989   4.234   1.166 -2.2259  1.3024 -0.1695
   59MOL   H21744413   6.762   4.208   1.150 -0.2223 -0.2968  2.4624
   59MOL   H21844414   6.840   4.068   1.186 -0.4821  2.1925  1.9441
   59MOL   H21944415   7.037   4.028   0.945  1.0975 -1.8070  1.2380
   59MOL   H22044416   7.084   4.012   1.109 -0.5342 -0.4179  0.5625
   59MOL   H22144417   7.245   4.197   1.077  2.0394 -0.3740 -0.9949
   59MOL   H22244418   7.259   4.089   0.926  1.5825  1.6382 -0.0390
   59MOL   H22344419   7.145   4.254   0.802  2.9596  0.2738 -1.7930
   59MOL   H22444420   7.389   4.270   0.839 -0.0513 -1.4793  2.2824
   59MOL   H22544421   7.368   4.376   0.969  0.5943 -2.5086 -0.1014
   59MOL   H22644422   7.320   4.489   0.407  2.2625  0.0563  0.5798
   59MOL   H22744423   7.351   4.704   0.274 -0.3261 -0.0628  0.0616
   59MOL   H22844424   7.420   4.902   0.654 -0.0043 -0.9863  1.6118
   59MOL   H22944425   7.373   4.698   0.777  2.2136 -0.9934 -0.5098
   59MOL   C23044426   7.596   5.498   0.275  0.0808  0.4074 -1.0341
   59MOL   C23144427   7.479   5.402   0.296  0.4851  0.3912 -0.4734
   59MOL   C23244428   7.513   5.274   0.373 -0.5130 -1.1460 -0.6983
   59MOL   C23344429   7.392   5.193   0.393 -0.0738  0.0749  0.0073
   59MOL   C23444430   7.615   5.202   0.279  0.3663 -0.8184  0.4888
   59MOL   C23544431   7.746   5.294   0.256 -0.3428  0.5198  0.0663
   59MOL   C23644432   7.710   5.430   0.189 -0.0760 -0.6361  0.8055
   59MOL   C23744433   7.839   5.518   0.172  0.2010  0.0695 -0.0678
   59MOL   O23844434   7.794   5.639   0.120  0.0306 -0.5512 -0.3225
   59MOL   C23944435   7.800   5.663   8.016  0.3591  0.4687 -0.6586
   59MOL   O24044436   7.850   5.598   7.930  0.3307  0.3953  0.3479
   59MOL   C24144437   7.725   5.783   7.982  0.6415  0.7366  0.4718
   59MOL   C24244438   7.668   5.789   7.851 -0.2621  0.1583 -0.1258
   59MOL   C24344439   7.587   5.897   7.824  0.2014 -0.5001 -0.0312
   59MOL   C24444440   7.561   6.000   7.914  0.2240 -0.3604 -0.0417
   59MOL   C24544441   7.462   6.111   7.884 -0.1373 -0.6989  0.4660
   59MOL   O24644442   7.435   6.200   7.965  0.0993  0.0737 -0.1337
   59MOL   O24744443   7.408   6.092   7.766 -0.3257 -0.3931  0.5190
   59MOL   C24844444   7.620   5.990   0.014  0.6934 -0.0301  0.4135
   59MOL   C24944445   7.698   5.883   0.046 -0.3413  0.2614  0.3371
   59MOL   H25044446   7.630   5.511   0.378 -0.5361  1.0156 -0.9050
   59MOL   H25144447   7.554   5.588   0.230  1.0943  0.5719 -1.6632
   59MOL   H25244448   7.441   5.371   0.199  0.4439  0.9436 -0.6358
   59MOL   H25344449   7.396   5.455   0.341 -0.1872 -1.4766  0.5686
   59MOL   H25444450   7.558   5.292   0.471 -2.7701  0.0519  0.1575
   59MOL   H25544451   7.313   5.201   0.318 -0.3101 -1.6980  0.0596
   59MOL   H25644452   7.347   5.238   0.481  1.7462  0.0083  0.9991
   59MOL   H25744453   7.562   5.166   0.191 -1.3902  0.9903  0.7768
   59MOL   H25844454   7.645   5.101   0.309 -2.7525 -1.8627  0.2104
   59MOL   H25944455   7.800   5.307   0.350  1.2505 -1.1276 -0.5873
   59MOL   H26044456   7.814   5.233   0.195 -2.1530  0.7294 -2.2082
   59MOL   H26144457   7.673   5.404   0.090 -0.1664  1.5911  0.2475
   59MOL   H26244458   7.914   5.469   0.110  1.1106  0.0108  1.0684
   59MOL   H26344459   7.883   5.533   0.270  2.0635  0.5437 -0.9534
   59MOL   H26444460   7.686   5.714   7.776 -0.3958  0.5593 -0.5595
   59MOL   H26544461   7.566   5.903   7.718  1.1396 -0.2139 -0.2008
   59MOL   H26644462   7.596   6.070   0.083  0.5221 -0.5554  0.9614
   59MOL   H26744463   7.731   5.864   0.147  2.8918  0.4420 -0.6461
   59MOL   C26844464   7.247   5.963   7.381 -0.2600 -0.0694  0.2168
   59MOL   C26944465   7.234   5.992   7.532  0.0144  0.7612 -0.1515
   59MOL   C27044466   7.285   6.139   7.564 -0.8985  0.6674  0.6221
   59MOL   C27144467   7.292   6.161   7.717 -0.0740 -0.7058 -0.8112
   59MOL   C27244468   7.412   6.179   7.493 -0.4476  0.7051  0.0581
   59MOL   C27344469   7.408   6.150   7.338  0.3289 -0.0332  0.0054
   59MOL   C27444470   7.382   6.004   7.317 -0.5897  0.5623  0.3168
   59MOL   C27544471   7.399   5.958   7.173  0.0649 -0.2328  0.4998
   59MOL   O27644472   7.541   5.956   7.157  0.0034 -0.1441  0.1348
   59MOL   C27744473   7.617   5.845   7.127 -0.1019  0.7478  0.3020
   59MOL   O27844474   7.573   5.736   7.092  0.2481  0.1442  0.2879
   59MOL   C27944475   7.761   5.872   7.147  0.1917  0.4150 -0.3945
   59MOL   C28044476   7.811   5.997   7.182 -0.2470 -0.9017 -0.3115
   59MOL   C28144477   7.953   6.012   7.215  0.4466 -0.6227 -0.2160
   59MOL   C28244478   0.002   5.895   7.223  0.6635  0.4184  0.1066
   59MOL   C28344479   0.141   5.919   7.257  0.2834 -0.4418  0.9162
   59MOL   O28444480   0.170   6.032   7.303 -0.8013 -0.2442  0.0386
   59MOL   O28544481   0.221   5.821   7.242  0.3085  0.1860  0.3946
   59MOL   C28644482   7.980   5.765   7.188 -0.2524 -0.5898  0.0029
   59MOL   C28744483   7.844   5.755   7.147  0.0115 -0.4147  0.3622
   59MOL   H28844484   7.160   6.006   7.331 -0.1074  0.9039  0.7863
   59MOL   H28944485   7.244   5.856   7.362 -0.9021 -0.3155  1.6289
   59MOL   H29044486   7.288   5.924   7.597  1.0849  1.9167  0.1892
   59MOL   H29144487   7.129   5.985   7.560  0.1593 -0.3512  0.1231
   59MOL   H29244488   7.205   6.204   7.530  0.8095  1.7661 -1.4079
   59MOL   H29344489   7.202   6.133   7.771 -0.9336 -0.3224 -2.0364
   59MOL   H29444490   7.302   6.269   7.733  0.7707 -0.8913  0.0385
   59MOL   H29544491   7.501   6.126   7.528  0.7678  3.7535  1.8246
   59MOL   H29644492   7.436   6.283   7.517  1.5838  0.3208 -0.2400
   59MOL   H29744493   7.323   6.203   7.295  0.8094 -0.0726 -1.0119
   59MOL   H29844494   7.501   6.185   7.293  0.7766 -0.1717  0.8255
   59MOL   H29944495   7.454   5.950   7.379 -1.2700  0.9710  1.4648
   59MOL   H30044496   7.359   6.038   7.112  1.6367 -1.1612 -1.7928
   59MOL   H30144497   7.354   5.865   7.138 -0.4706  0.3409 -0.3222
   59MOL   H30244498   7.745   6.082   7.190  2.1025  0.8497  1.6210
   59MOL   H30344499   7.991   6.108   7.247 -0.3533  0.3955 -2.2631
   59MOL   H30444500   0.015   5.681   7.194 -0.5461 -0.7984  0.4489
   59MOL   H30544501   7.801   5.656   7.134 -0.5116 -0.1573  0.1082
   59MOL   C30644502   0.558   5.956   7.575  0.0815 -0.4054 -0.5016
   59MOL   C30744503   0.509   5.951   7.430  0.5328 -0.2561 -0.2553
   59MOL   C30844504   0.395   5.846   7.404  0.1678  0.4378  0.2513
   59MOL   C30944505   0.358   5.845   7.260 -0.1754  0.0626  0.0072
   59MOL   C31044506   0.428   5.709   7.464 -0.0620  0.5022 -0.2567
   59MOL   C31144507   0.468   5.721   7.616  0.1861  0.4576  0.8709
   59MOL   C31244508   0.583   5.818   7.636 -0.0439 -0.2490  1.0498
   59MOL   C31344509   0.618   5.821   7.788  0.3068 -0.1918 -0.1318
   59MOL   O31444510   0.521   5.889   7.869  0.0235 -0.2186 -0.4805
   59MOL   C31544511   0.448   5.822   7.953  0.1798 -0.3427 -0.4071
   59MOL   O31644512   0.482   5.711   7.990 -0.3899  0.0781 -0.6798
   59MOL   C31744513   0.328   5.895   8.005 -0.1756 -0.5345  0.9315
   59MOL   C31844514   0.237   5.833   0.052 -0.3959 -0.0539 -0.4673
   59MOL   C31944515   0.140   5.908   0.121  0.3927 -0.0095  0.9211
   59MOL   C32044516   0.113   6.040   0.085  0.6242  0.2649  0.3909
   59MOL   C32144517   8.029   6.100   0.171 -0.5662  0.3049  0.5146
   59MOL   O32244518   7.944   6.039   0.234  0.0715 -0.2193 -0.0042
   59MOL   O32344519   0.001   6.233   0.167 -0.3044 -0.0483 -0.1525
   59MOL   C32444520   0.199   6.104   8.025  0.1278  0.3347  0.1873
   59MOL   C32544521   0.304   6.032   7.966  0.0178 -0.4049  0.4907
   59MOL   H32644522   0.482   5.997   7.643  2.4055  0.0025  1.9322
   59MOL   H32744523   0.644   6.020   7.592  1.3599 -1.7952 -1.6409
   59MOL   H32844524   0.594   5.915   7.372  0.4848 -1.1947  0.2552
   59MOL   H32944525   0.492   6.054   7.399 -2.2277 -0.6385 -0.1259
   59MOL   H33044526   0.318   5.871   7.477 -0.2381 -0.4059  0.1148
   59MOL   H33144527   0.402   5.752   7.225  0.1606 -1.0284  3.1895
   59MOL   H33244528   0.386   5.934   7.204 -0.1927 -0.3125 -0.5988
   59MOL   H33344529   0.519   5.668   7.421 -0.0328 -2.8455  2.7225
   59MOL   H33444530   0.349   5.634   7.450 -0.4729  0.9858 -0.5481
   59MOL   H33544531   0.383   5.748   7.679  0.4771  0.2151  1.3770
   59MOL   H33644532   0.505   5.622   7.643  0.0808  1.2253  4.0588
   59MOL   H33744533   0.669   5.772   7.587 -0.7671  1.1721 -1.6525
   59MOL   H33844534   0.715   5.871   7.796 -0.4096  1.0784  0.9086
   59MOL   H33944535   0.648   5.719   7.811  3.2214  0.3106 -1.3833
   59MOL   H34044536   0.250   5.730   0.081  0.1846 -0.0236 -0.6165
   59MOL   H34144537   0.078   5.849   0.188  0.3958 -1.3153 -0.2114
   59MOL   H34244538   0.193   6.209   8.003  1.5674  0.2425 -0.6729
   59MOL   H34344539   0.372   6.083   7.899  2.2374 -1.7626  1.6350
   59MOL   C34444540   7.733   6.446   7.954  1.1919 -0.0540 -0.4330
   59MOL   C34544541   7.851   6.427   0.004 -0.7653  0.3035 -0.4165
   59MOL   C34644542   7.821   6.355   0.138  0.4253  0.2307  0.2606
   59MOL   C34744543   7.940   6.320   0.235 -0.0996 -0.2425  0.2990
   59MOL   C34844544   7.704   6.425   0.211  0.1583 -0.4001 -0.5592
   59MOL   C34944545   7.578   6.450   0.125 -0.0872  0.1035 -0.3892
   59MOL   C35044546   7.622   6.525   8.026  1.1940 -0.1510 -0.0277
   59MOL   C35144547   7.499   6.560   7.941 -0.2506  0.7715 -0.1210
   59MOL   O35244548   7.538   6.643   7.833 -0.3781 -0.5302 -0.0392
   59MOL   C35344549   7.464   6.642   7.728  0.7825  0.0717  0.4308
   59MOL   O35444550   7.356   6.579   7.716  0.5669 -0.1003  0.0518
   59MOL   C35544551   7.519   6.732   7.609 -0.4207 -0.4728 -0.0684
   59MOL   C35644552   7.436   6.779   7.508  0.2541  0.1477 -0.0851
   59MOL   C35744553   7.479   6.881   7.422 -0.2038 -0.5690 -0.1961
   59MOL   C35844554   7.614   6.935   7.427  0.7132  0.7513 -0.4928
   59MOL   C35944555   7.663   7.036   7.330  0.3069 -0.0710 -0.3387
   59MOL   O36044556   7.588   7.109   7.264  0.6857  0.5784 -0.2225
   59MOL   O36144557   7.798   7.048   7.339  0.0107  0.8151 -0.0570
   59MOL   C36244558   7.698   6.879   7.526 -0.2519 -0.1427  1.2002
   59MOL   C36344559   7.650   6.779   7.618  0.4441  0.2349 -0.5918
   59MOL   H36444560   7.685   6.352   7.927 -1.8818  0.8372  1.6253
   59MOL   H36544561   7.755   6.502   7.863 -0.5247  0.6606 -0.4276
   59MOL   H36644562   7.893   6.526   0.024  0.5392  0.1427 -2.2402
   59MOL   H36744563   7.919   6.363   7.980 -0.4125 -1.5119  1.9856
   59MOL   H36844564   7.795   6.252   0.113  1.3772  0.3474 -1.2482
   59MOL   H36944565   7.904   6.267   0.323 -0.1180 -2.1493 -0.8206
   59MOL   H37044566   7.989   6.409   0.274  1.2648 -1.1603  0.6922
   59MOL   H37144567   7.746   6.522   0.238  1.6126 -1.1447 -0.1277
   59MOL   H37244568   7.685   6.368   0.301 -1.5097 -0.0181 -0.6402
   59MOL   H37344569   7.510   6.368   0.101  0.5769 -0.6357  0.2510
   59MOL   H37444570   7.506   6.508   0.181  0.2297  2.5307 -2.3950
   59MOL   H37544571   7.662   6.624   0.019  0.4149 -0.3547  2.2060
   59MOL   H37644572   7.425   6.603   8.008  0.8857 -0.3395  1.8826
   59MOL   H37744573   7.454   6.467   7.906 -0.9592  2.3420 -3.5967
   59MOL   H37844574   7.334   6.743   7.505  0.7227 -1.2162  0.1141
   59MOL   H37944575   7.416   6.933   7.352  0.4595 -1.7394 -1.6826
   59MOL   H38044576   7.793   6.929   7.531 -0.3896  0.5915 -2.4974
   59MOL   H38144577   7.714   6.748   7.700 -0.8789 -0.1466  0.3063
   59MOL   C38244578   0.186   7.035   7.410 -0.3167 -0.3859  0.6371
   59MOL   C38344579   0.054   7.013   7.342  0.5865 -0.7470  0.5245
   59MOL   C38444580   8.010   7.149   7.320  0.0780 -0.0890  0.0378
   59MOL   C38544581   7.874   7.129   7.255 -0.2592  0.5962 -0.1433
   59MOL   C38644582   8.003   7.245   7.439 -0.7097  0.1027  0.2305
   59MOL   C38744583   0.115   7.251   7.503  0.7743 -0.4832  0.0880
   59MOL   C38844584   0.164   7.113   7.540  0.5829 -0.3849 -0.2719
   59MOL   C38944585   0.285   7.112   7.627 -0.7508 -0.7829 -0.5788
   59MOL   O39044586   0.255   7.157   7.762 -0.2542  0.2499  0.4364
   59MOL   C39144587   0.224   7.060   7.853 -0.2431 -0.5298 -0.0568
   59MOL   O39244588   0.266   6.946   7.841  0.0569 -0.0494 -0.2207
   59MOL   C39344589   0.129   7.111   7.952  0.2588  0.6621 -0.0566
   59MOL   C39444590   0.082   7.242   7.942  0.1945  0.0004  0.2474
   59MOL   C39544591   0.007   7.297   0.018 -0.2063  0.4333  0.5203
   59MOL   C39644592   8.008   7.213   0.131 -0.1315 -0.9118 -0.0700
   59MOL   C39744593   7.936   7.271   0.245  0.3270  0.0889 -0.5877
   59MOL   O39844594   7.970   7.257   0.361 -0.8340 -0.2406  0.6352
   59MOL   O39944595   7.823   7.342   0.213  0.4141  0.8674  0.0994
   59MOL   C40044596   0.022   7.080   0.144  0.1979 -0.2922  0.3565
   59MOL   C40144597   0.086   7.029   0.025  0.1052  0.4199 -0.4737
   59MOL   H40244598   0.253   7.087   7.342  1.4371 -1.3565  1.5880
   59MOL   H40344599   0.229   6.940   7.441 -1.2752 -0.7025  1.0310
   59MOL   H40444600   8.019   6.955   7.406 -1.1520  0.2348 -0.3674
   59MOL   H40544601   0.062   6.964   7.245  1.3539 -0.7843  0.5996
   59MOL   H40644602   0.040   7.208   7.253  0.8214  0.8511  1.5170
   59MOL   H40744603   7.883   7.079   7.159  3.0689 -0.5899  0.7224
   59MOL   H40844604   7.828   7.227   7.249  1.3688  1.2854 -1.8285
   59MOL   H40944605   7.937   7.213   7.519 -1.6330  1.2913 -0.0450
   59MOL   H41044606   7.972   7.347   7.415 -0.2744  0.8943  2.8463
   59MOL   H41144607   0.182   7.305   7.436 -1.6603  2.8565  0.1924
   59MOL   H41244608   0.113   7.318   7.590  1.0054 -1.0940  0.5705
   59MOL   H41344609   0.088   7.056   7.593  0.7962 -0.7297 -0.3345
   59MOL   H41444610   0.362   7.182   7.592 -1.5052  0.2059 -0.2770
   59MOL   H41544611   0.321   7.009   7.626 -0.3575 -0.7497  3.3674
   59MOL   H41644612   0.103   7.302   7.855 -1.4547 -0.8081 -0.7183
   59MOL   H41744613   7.996   7.395   0.004  0.9518  0.6707 -1.5088
   59MOL   H41844614   0.002   7.017   0.229  0.5415 -0.0350  0.6283
   59MOL   H41944615   0.112   6.924   0.036 -1.8278  0.0690  1.0432
   59MOL   C42044616   7.451   7.160   0.383 -0.8146 -0.2105  0.2837
   59MOL   C42144617   7.548   7.247   0.308  0.2073  0.2132 -0.8216
   59MOL   C42244618   7.662   7.301   0.397 -0.2870  0.6356  0.7416
   59MOL   C42344619   7.745   7.406   0.312 -0.3247  0.0216  0.5657
   59MOL   C42444620   7.603   7.374   0.516 -0.4255  0.3228 -0.4846
   59MOL   C42544621   7.512   7.280   0.598  0.1578  0.4677  0.5190
   59MOL   C42644622   7.401   7.233   0.507  0.1177 -0.2367 -0.4093
   59MOL   C42744623   7.317   7.149   0.602  0.5032 -0.1157 -0.1997
   59MOL   O42844624   7.191   7.119   0.552  0.3762 -0.0320 -0.4034
   59MOL   C42944625   7.170   7.003   0.487  0.1563  0.5226  0.3368
   59MOL   O43044626   7.259   6.915   0.479  0.1634 -0.0571 -0.0069
   59MOL   C43144627   7.032   6.994   0.434  0.3361 -0.0749 -0.2431
   59MOL   C43244628   6.998   6.878   0.356  0.7695  0.2461  0.0023
   59MOL   C43344629   6.861   6.859   0.321 -0.3550  0.1452 -0.1530
   59MOL   C43444630   6.759   6.951   0.347 -0.1812 -0.1445  0.3126
   59MOL   C43544631   6.622   6.918   0.313  0.5747  0.4767 -0.2741
   59MOL   O43644632   6.522   6.991   0.336  0.6246 -0.7558 -0.2365
   59MOL   O43744633   6.603   6.799   0.259  0.1045  0.5049 -0.4679
   59MOL   C43844634   6.792   7.072   0.413 -0.3152 -0.1777 -0.3006
   59MOL   C43944635   6.925   7.082   0.459 -0.0589 -0.7007  0.2216
   59MOL   H44044636   7.491   7.060   0.403 -0.3652  0.5809  3.7114
   59MOL   H44144637   7.373   7.123   0.318 -0.1365 -0.1264 -0.5884
   59MOL   H44244638   7.499   7.340   0.276 -0.2624  1.5257  3.4465
   59MOL   H44344639   7.593   7.186   0.229 -1.9658 -2.8304  0.1920
   59MOL   H44444640   7.729   7.224   0.437  0.8036  1.7488  1.0993
   59MOL   H44544641   7.810   7.464   0.377  0.2055 -0.0548  0.1092
   59MOL   H44644642   7.678   7.477   0.264  0.9399  0.7396 -0.1739
   59MOL   H44744643   7.547   7.460   0.478  2.9255  3.1336  0.7226
   59MOL   H44844644   7.681   7.404   0.585 -0.0472 -1.0482 -0.2933
   59MOL   H44944645   7.570   7.191   0.622  0.5678  0.0475 -1.9211
   59MOL   H45044646   7.467   7.319   0.690 -1.2537 -0.3841  0.2146
   59MOL   H45144647   7.345   7.318   0.467 -0.2473 -0.9847 -1.4971
   59MOL   H45244648   7.289   7.198   0.695 -1.0198 -1.8253  0.2526
   59MOL   H45344649   7.375   7.066   0.642  2.6643  1.6577  0.5032
   59MOL   H45444650   7.070   6.802   0.331  1.6718  1.2908 -0.6418
   59MOL   H45544651   6.842   6.765   0.270  1.8888 -0.6972  0.5248
   59MOL   H45644652   6.714   7.145   0.424 -0.6944 -0.4421 -1.1994
   59MOL   H45744653   6.947   7.171   0.517  0.4782  0.1323 -1.2253
   59MOL   C45844654   6.632   6.434   0.043 -1.1889 -0.2825  0.4816
   59MOL   C45944655   6.618   6.581   0.081 -0.4623  0.1589 -0.0205
   59MOL   C46044656   6.505   6.607   0.182 -0.2868 -0.2283 -0.0984
   59MOL   C46144657   6.485   6.752   0.215  0.3174 -0.1609 -0.4277
   59MOL   C46244658   6.375   6.549   0.124  0.2644 -0.4819 -0.0331
   59MOL   C46344659   6.403   6.400   0.099 -0.2982  0.6961 -0.6085
   59MOL   C46444660   6.507   6.371   8.024 -0.0780 -0.4258 -0.3311
   59MOL   C46544661   6.527   6.229   7.982  0.5108  0.5672 -0.2906
   59MOL   O46644662   6.425   6.189   7.891 -0.6213  0.4094 -0.0705
   59MOL   C46744663   6.442   6.079   7.810  0.6049  0.3365  0.0371
   59MOL   O46844664   6.534   6.001   7.823 -0.2540 -0.6180 -0.0786
   59MOL   C46944665   6.328   6.068   7.710  0.0011  1.1460  0.7737
   59MOL   C47044666   6.226   6.167   7.710 -0.6760  0.1537  0.0285
   59MOL   C47144667   6.121   6.167   7.611 -0.5844 -0.2870 -0.7015
   59MOL   C47244668   6.120   6.073   7.512 -0.2599 -0.3068 -0.1524
   59MOL   C47344669   6.021   6.075   7.403  0.2974 -0.4262 -0.0682
   59MOL   O47444670   5.981   5.970   7.346  0.0038  0.2221 -0.1408
   59MOL   O47544671   5.966   6.199   7.379  0.5000 -0.0682  0.9867
   59MOL   C47644672   6.218   5.970   7.514 -0.7956 -0.6214 -0.3994
   59MOL   C47744673   6.327   5.977   7.603 -0.1814  0.3870 -0.4666
   59MOL   H47844674   6.661   6.376   0.131 -1.9211 -0.3012  0.7160
   59MOL   H47944675   6.716   6.430   8.006 -1.0847  1.3179  0.5010
   59MOL   H48044676   6.603   6.643   8.025  2.0409  0.0361 -0.5632
   59MOL   H48144677   6.710   6.618   0.127 -0.6215  1.4555 -0.7368
   59MOL   H48244678   6.528   6.557   0.276 -2.1036  0.2319  0.6170
   59MOL   H48344679   6.403   6.779   0.282  1.9549  2.1939  0.6757
   59MOL   H48444680   6.451   6.794   0.120 -2.2458  0.6117  0.7942
   59MOL   H48544681   6.357   6.588   0.024  2.8992 -0.2090 -0.4406
   59MOL   H48644682   6.298   6.561   0.201  0.9838  0.5671  0.5345
   59MOL   H48744683   6.423   6.342   0.189 -2.0503  1.2704  0.1666
   59MOL   H48844684   6.313   6.351   0.064 -1.5418  1.8614  0.8887
   59MOL   H48944685   6.475   6.423   7.933 -0.2484  1.1584  0.6102
   59MOL   H49044686   6.519   6.170   0.041 -0.4220  1.3942  0.1623
   59MOL   H49144687   6.627   6.208   7.943  1.2928 -1.3156  2.5635
   59MOL   H49244688   6.218   6.250   7.779  3.0524 -0.1590  0.9283
   59MOL   H49344689   6.048   6.246   7.611  1.7762  1.9908 -1.1567
   59MOL   H49444690   6.214   5.895   7.436 -0.6151  0.6683 -1.6804
   59MOL   H49544691   6.402   5.900   7.612 -0.5431  0.1150  0.1975
   59MOL   C49644692   5.589   6.480   7.206 -0.0464 -0.3746 -0.2243
   59MOL   C49744693   5.671   6.351   7.183 -0.3218 -0.5168  0.0664
   59MOL   C49844694   5.767   6.336   7.304 -0.3204 -0.4634  1.0260
   59MOL   C49944695   5.852   6.212   7.287 -0.2255  0.5872 -0.7825
   59MOL   C50044696   5.865   6.456   7.322 -0.2615  0.3514  0.2722
   59MOL   C50144697   5.785   6.594   7.332  0.5085  0.1176 -0.1040
   59MOL   C50244698   5.681   6.600   7.218 -1.0152  0.6336  0.5160
   59MOL   C50344699   5.597   6.731   7.230  0.0485 -0.0065  0.2042
   59MOL   O50444700   5.517   6.761   7.114 -0.3956 -0.0174  0.1640
   59MOL   C50544701   5.432   6.855   7.133 -0.0478  0.1668 -0.4424
   59MOL   O50644702   5.365   6.871   7.233 -0.1288  0.7341 -0.1257
   59MOL   C50744703   5.402   6.929   7.013 -0.6470 -0.4599  0.1823
   59MOL   C50844704   5.472   6.914   6.893  0.6232  0.0838  0.5664
   59MOL   C50944705   5.419   6.968   6.772 -0.3560  0.0993 -0.7925
   59MOL   C51044706   5.295   7.043   6.775 -0.3212 -0.0527  1.3033
   59MOL   C51144707   5.249   7.106   6.645  0.5076  0.1908  0.1022
   59MOL   O51244708   5.291   7.075   6.531  0.3834 -0.9113  0.0712
   59MOL   O51344709   5.155   7.191   6.679  0.5017  0.0735  0.1971
   59MOL   C51444710   5.234   7.067   6.901  0.2150  0.0796 -0.4767
   59MOL   C51544711   5.285   7.008   7.017 -0.3889 -0.1814  0.0442
   59MOL   H51644712   5.535   6.476   7.300 -1.4896 -1.0087 -1.0578
   59MOL   H51744713   5.520   6.491   7.122 -1.2906  1.5115  1.0096
   59MOL   H51844714   5.717   6.355   7.084  1.7529 -3.1173  0.8661
   59MOL   H51944715   5.606   6.267   7.159  0.7530 -1.0009 -1.1855
   59MOL   H52044716   5.703   6.328   7.391 -0.1784  0.5448  1.2368
   59MOL   H52144717   5.882   6.200   7.183 -0.2616  1.2328 -0.8642
   59MOL   H52244718   5.791   6.125   7.312  1.0748 -0.3892 -0.9433
   59MOL   H52344719   5.927   6.467   7.233 -2.3290 -3.1382 -1.7119
   59MOL   H52444720   5.932   6.443   7.408  0.1837  1.2075  0.0539
   59MOL   H52544721   5.731   6.609   7.425 -3.0275 -0.8216 -1.9097
   59MOL   H52644722   5.865   6.668   7.325  0.6163  0.1913  1.6744
   59MOL   H52744723   5.735   6.594   7.124 -0.6749 -1.6349  0.8415
   59MOL   H52844724   5.667   6.814   7.242 -2.6836  2.1944  1.6960
   59MOL   H52944725   5.546   6.733   7.326  0.1338 -2.7724  0.3442
   59MOL   H53044726   5.552   6.841   6.890 -0.4619 -1.1252  1.0009
   59MOL   H53144727   5.475   6.949   6.681  0.3358 -0.6631 -0.2094
   59MOL   H53244728   5.151   7.134   6.910  0.9324  0.8904  0.1683
   59MOL   H53344729   5.228   7.027   7.107 -0.3070 -1.3043  0.3389
   59MOL   C53444730   4.997   7.659   6.613 -0.5391 -0.1352  0.6481
   59MOL   C53544731   5.025   7.514   6.557  0.7323 -0.6377  0.4049
   59MOL   C53644732   5.064   7.419   6.660  0.5704 -0.8845 -0.1262
   59MOL   C53744733   5.104   7.288   6.588 -0.3851 -0.3517 -0.5988
   59MOL   C53844734   5.168   7.475   6.755 -0.0300  0.1137  0.0923
   59MOL   C53944735   5.150   7.618   6.803 -0.6009 -0.8336  0.3546
   59MOL   C54044736   5.118   7.717   6.694 -0.1546  0.0089  0.3472
   59MOL   C54144737   5.100   7.856   6.758  0.0056 -0.1065 -0.5485
   59MOL   O54244738   5.201   7.888   6.850  0.0072  0.4980  0.7006
   59MOL   C54344739   5.239   8.017   6.870 -0.0710 -0.5630 -0.2015
   59MOL   O54444740   5.206   0.086   6.808 -0.5723 -0.1236 -0.6301
   59MOL   C54544741   5.331   8.019   6.994  0.0555  0.0583  0.1524
   59MOL   C54644742   5.343   0.104   7.064 -0.8945 -0.1663 -0.3506
   59MOL   C54744743   5.429   0.114   7.170 -0.1807  0.4906  0.4876
   59MOL   C54844744   5.518   0.008   7.206 -0.3102 -0.5269 -1.0317
   59MOL   C54944745   5.601   0.025   7.331  0.3940  0.1184  0.6733
   59MOL   O55044746   5.584   0.119   7.403 -0.0148  0.4266 -0.6059
   59MOL   O55144747   5.697   7.961   7.347 -0.1521 -0.2782 -0.3765
   59MOL   C55244748   5.510   7.918   7.129 -0.9122  0.0521  0.4091
   59MOL   C55344749   5.420   7.912   7.016  0.2806  0.0981 -0.8887
   59MOL   H55444750   4.911   7.656   6.679 -0.4355  1.3648  0.8767
   59MOL   H55544751   4.973   7.730   6.533 -0.8226  0.6534  1.4172
   59MOL   H55644752   5.103   7.523   6.482 -0.4389 -1.5813 -0.9543
   59MOL   H55744753   4.937   7.475   6.505 -0.3707  0.5130  1.3810
   59MOL   H55844754   4.974   7.404   6.720  1.2952 -2.2975  0.6343
   59MOL   H55944755   5.175   7.298   6.505  1.7867 -0.0771  1.2461
   59MOL   H56044756   5.014   7.252   6.538 -0.6094 -0.5537 -0.0508
   59MOL   H56144757   5.262   7.465   6.701  0.1408  2.7651 -0.1555
   59MOL   H56244758   5.172   7.412   6.844 -2.7068  0.5135  0.5516
   59MOL   H56344759   5.065   7.625   6.871  0.0547 -0.9929  1.1982
   59MOL   H56444760   5.252   7.644   6.833 -0.1183  0.0182 -1.8974
   59MOL   H56544761   5.200   7.724   6.623 -0.0718 -2.4020  0.1741
   59MOL   H56644762   4.999   7.845   6.798  0.7583  0.0481  1.4151
   59MOL   H56744763   5.094   7.931   6.679  1.6507 -2.2813 -2.8214
   59MOL   H56844764   5.282   0.191   7.044 -0.5030  0.1155 -0.3241
   59MOL   H56944765   5.443   0.212   7.215 -0.9975 -0.1086  2.0951
   59MOL   H57044766   5.575   7.836   7.156 -2.0816 -1.2959 -0.7618
   59MOL   H57144767   5.424   7.822   6.955  1.9138 -2.0951  2.2956
   59MOL   C57244768   5.487   7.711   7.643 -0.1542 -0.0658  0.0877
   59MOL   C57344769   5.543   7.834   7.576 -0.3370 -0.0592 -0.1148
   59MOL   C57444770   5.688   7.814   7.527  0.3178 -0.1102 -0.3304
   59MOL   C57544771   5.747   7.943   7.476  0.0737  0.1960 -0.2080
   59MOL   C57644772   5.786   7.757   7.631 -0.2612 -0.1196  0.0409
   59MOL   C57744773   5.728   7.630   7.686  0.0125 -0.3631 -0.3515
   59MOL   C57844774   5.585   7.645   7.747 -0.3705  0.3136  0.4897
   59MOL   C57944775   5.538   7.498   7.785  0.2168  0.2322 -0.0084
   59MOL   O58044776   5.620   7.451   7.887  0.1230 -0.3701 -0.3051
   59MOL   C58144777   5.575   7.327   7.933  0.1371  0.2843  0.2841
   59MOL   O58244778   5.503   7.258   7.861 -0.8138 -0.0560  0.7270
   59MOL   C58344779   5.631   7.285   0.032  0.0368  0.6411 -0.0333
   59MOL   C58444780   5.733   7.361   0.098 -0.4817 -0.2599  0.4440
   59MOL   C58544781   5.792   7.318   0.219  0.2866 -0.2458 -0.2937
   59MOL   C58644782   5.756   7.194   0.277  0.5184 -0.1589  0.0290
   59MOL   C58744783   5.814   7.152   0.401 -0.6106  0.2693  0.1044
   59MOL   O58844784   5.900   7.225   0.464  0.3118  0.3399  0.4082
   59MOL   O58944785   5.781   7.033   0.440 -0.4812  0.5378  0.1063
   59MOL   C59044786   5.658   7.117   0.208 -0.3092  0.2261  0.2937
   59MOL   C59144787   5.589   7.162   0.094  0.0533 -0.8164  0.1731
   59MOL   H59244788   5.462   7.647   7.559 -0.5701  1.7753 -1.2262
   59MOL   H59344789   5.392   7.726   7.694 -0.6743  0.5002 -1.0330
   59MOL   H59444790   5.538   7.910   7.654  1.2491 -1.0573  1.0070
   59MOL   H59544791   5.477   7.852   7.492  1.0486  1.8468 -0.8243
   59MOL   H59644792   5.696   7.743   7.445 -0.2334 -0.8166  0.2209
   59MOL   H59744793   5.855   7.936   7.481 -0.0857 -2.5018 -0.0493
   59MOL   H59844794   5.727   8.025   7.545 -0.0200  0.2508 -0.2976
   59MOL   H59944795   5.791   7.823   7.718  0.9476 -0.7200  0.4483
   59MOL   H60044796   5.878   7.743   7.575 -0.7280 -0.5955 -0.6098
   59MOL   H60144797   5.713   7.562   7.603 -2.2105  0.2311 -0.4707
   59MOL   H60244798   5.799   7.601   7.764  0.4999  1.8933  0.0982
   59MOL   H60344799   5.586   7.708   7.836  0.7633 -0.9997  1.4339
   59MOL   H60444800   5.543   7.444   7.690  1.5897  1.1272 -0.4690
   59MOL   H60544801   5.435   7.493   7.819 -0.3708 -0.4096 -1.8230
   59MOL   H60644802   5.759   7.457   0.055  4.5821 -0.9311  1.7221
   59MOL   H60744803   5.867   7.376   0.270 -0.0021 -1.5666  1.6955
   59MOL   H60844804   5.632   7.019   0.245 -0.7461 -0.2084 -1.1477
   59MOL   H60944805   5.511   7.108   0.042 -1.5786  0.3127  1.4039
   59MOL   C61044806   5.546   6.684   0.566  0.4828 -0.1609 -0.0164
   59MOL   C61144807   5.601   6.828   0.539 -0.2944 -0.2133  0.3282
   59MOL   C61244808   5.745   6.852   0.595 -0.6109 -0.2305 -0.1697
   59MOL   C61344809   5.799   6.990   0.578 -0.4757 -0.5541 -0.0778
   59MOL   C61444810   5.761   6.790   0.739 -0.0273  0.2491  0.6747
   59MOL   C61544811   5.713   6.647   0.750 -0.5384  0.4876  0.1300
   59MOL   C61644812   5.568   6.641   0.711 -0.3650 -0.8179 -0.0242
   59MOL   C61744813   5.502   6.507   0.745 -0.4367  0.2313  0.3087
   59MOL   O61844814   5.546   6.403   0.664  0.0363 -0.0248 -0.0425
   59MOL   C61944815   5.596   6.298   0.721 -0.3594 -0.2760  0.1716
   59MOL   O62044816   5.587   6.280   0.841  0.4692  0.6468 -0.0860
   59MOL   C62144817   5.654   6.198   0.624 -0.7616  0.8310 -0.6847
   59MOL   C62244818   5.640   6.224   0.488 -0.3590 -0.0650 -0.1508
   59MOL   C62344819   5.698   6.128   0.401 -0.3432  0.0067  0.2812
   59MOL   C62444820   5.762   6.009   0.443  0.3105  0.0110 -0.1942
   59MOL   C62544821   5.835   5.917   0.357  0.6294  0.2799 -0.1602
   59MOL   O62644822   5.873   5.809   0.395 -0.1819  1.1135  0.3020
   59MOL   O62744823   5.859   5.981   0.240  0.6020 -0.0105 -0.7044
   59MOL   C62844824   5.765   5.983   0.588  0.1330  0.4395  0.2944
   59MOL   C62944825   5.713   6.080   0.674  1.3872  0.1276  0.1009
   59MOL   H63044826   5.596   6.617   0.496  1.5009  0.0904  0.4605
   59MOL   H63144827   5.442   6.676   0.532  0.5869  0.2230 -0.4307
   59MOL   H63244828   5.537   6.910   0.572  3.0854  1.6638  2.5704
   59MOL   H63344829   5.600   6.851   0.433 -0.9133 -2.1585 -0.1043
   59MOL   H63444830   5.809   6.790   0.532  1.5207  1.1230  0.6186
   59MOL   H63544831   5.903   6.986   0.608  0.0101  5.0469 -0.5707
   59MOL   H63644832   5.747   7.056   0.647 -0.2951 -1.3624  0.8495
   59MOL   H63744833   5.710   6.851   0.814  0.6159  1.5624  0.0745
   59MOL   H63844834   5.863   6.789   0.777  0.0395 -3.5006  0.5695
   59MOL   H63944835   5.777   6.585   0.688 -2.5815 -1.0015 -0.5662
   59MOL   H64044836   5.731   6.628   0.856 -0.3963 -0.1288 -0.0002
   59MOL   H64144837   5.518   6.715   0.773  1.4784 -0.3259  0.9096
   59MOL   H64244838   5.394   6.500   0.731 -0.5194 -1.9413  1.7782
   59MOL   H64344839   5.513   6.483   0.851 -0.7503 -3.9645 -0.5190
   59MOL   H64444840   5.604   6.318   0.449  1.2192  0.8512  0.5891
   59MOL   H64544841   5.693   6.150   0.295 -2.5603  0.2908  0.4181
   59MOL   H64644842   5.815   5.897   0.628  0.2432  0.5694  0.4352
   59MOL   H64744843   5.710   6.058   0.779 -0.1260 -1.6927 -0.2920
   59MOL   C64844844   5.825   5.862   7.799 -0.2423  0.2320 -0.2568
   59MOL   C64944845   5.915   5.857   7.917  0.7350 -0.2586  0.0408
   59MOL   C65044846   5.845   5.933   0.002 -0.0675 -0.1685  0.6471
   59MOL   C65144847   5.919   5.919   0.130  0.5661 -0.5662 -0.0287
   59MOL   C65244848   5.832   6.084   7.989  0.3466 -0.2985 -0.0498
   59MOL   C65344849   5.737   6.095   7.862  0.0215  0.2589 -0.1551
   59MOL   C65444850   5.783   5.999   7.749 -0.1733  0.1292 -0.5830
   59MOL   C65544851   5.676   5.989   7.635 -0.2474 -0.1169  0.6225
   59MOL   O65644852   5.639   6.123   7.591 -0.3405 -0.6319  0.6418
   59MOL   C65744853   5.506   6.146   7.589 -0.0636 -0.6963 -0.9270
   59MOL   O65844854   5.417   6.061   7.595 -0.2212 -0.1226 -0.2538
   59MOL   C65944855   5.475   6.294   7.585 -0.1804 -0.1654  0.1857
   59MOL   C66044856   5.560   6.393   7.634  0.0649  0.8655 -0.3533
   59MOL   C66144857   5.523   6.530   7.635  0.4886 -0.6606 -0.2859
   59MOL   C66244858   5.407   6.575   7.570 -0.0425 -0.0152 -0.6570
   59MOL   C66344859   5.370   6.720   7.548 -0.3129  0.5875  0.4894
   59MOL   O66444860   5.264   6.765   7.513  0.3121 -0.3033  0.4102
   59MOL   O66544861   5.477   6.795   7.574 -0.7961  0.0258 -0.4679
   59MOL   C66644862   5.322   6.478   7.515 -0.7230 -0.2794 -0.1118
   59MOL   C66744863   5.359   6.343   7.526  0.3339  0.2063  0.7837
   59MOL   H66844864   5.731   5.809   7.814 -0.7419  0.5613 -2.0721
   59MOL   H66944865   5.874   5.818   7.713  0.6302  2.4257 -0.9268
   59MOL   H67044866   6.018   5.888   7.899  0.9841  0.5956  2.7096
   59MOL   H67144867   5.926   5.750   7.939 -0.9786 -0.2145  1.2051
   59MOL   H67244868   5.741   5.912   0.023 -0.8181  1.9463 -0.7432
   59MOL   H67344869   6.015   5.967   0.111  0.1063 -0.6471 -2.7828
   59MOL   H67444870   5.948   5.815   0.148 -0.1198 -0.5324  1.2866
   59MOL   H67544871   5.917   6.134   7.944  0.0771  1.5255  1.3841
   59MOL   H67644872   5.799   6.152   0.036 -0.5965 -1.2268  0.3683
   59MOL   H67744873   5.632   6.081   7.889  0.5229 -1.2252  1.0980
   59MOL   H67844874   5.756   6.197   7.829  0.5538  0.2705  0.1854
   59MOL   H67944875   5.875   6.043   7.711  0.6617 -0.3615  0.8432
   59MOL   H68044876   5.592   5.926   7.664 -0.6570 -0.5096 -1.3507
   59MOL   H68144877   5.732   5.950   7.551 -0.2196  0.6609  0.2728
   59MOL   H68244878   5.648   6.362   7.689 -0.6888  0.2466  0.4981
   59MOL   H68344879   5.584   6.597   7.694 -1.1985  0.7908 -0.1776
   59MOL   H68444880   5.227   6.500   7.469 -2.0589 -1.5076  2.0351
   59MOL   H68544881   5.282   6.277   7.490  1.8941 -1.6803  0.8436
   59MOL   C68644882   5.719   7.236   7.574 -0.3172  0.2383 -1.2667
   59MOL   C68744883   5.589   7.155   7.552  0.3430  0.1309 -0.4330
   59MOL   C68844884   5.601   7.009   7.590 -0.0655  0.0889 -0.9580
   59MOL   C68944885   5.465   6.936   7.567  0.7597 -0.7818 -0.5271
   59MOL   C69044886   5.719   6.940   7.519 -0.4688 -0.7842 -0.3656
   59MOL   C69144887   5.844   7.025   7.544  0.4637 -0.0425 -0.3696
   59MOL   C69244888   5.836   7.173   7.501 -0.6436 -0.2409  0.1289
   59MOL   C69344889   5.970   7.249   7.517 -0.0649  0.4616  0.3430
   59MOL   O69444890   5.979   7.328   7.641 -0.9864 -0.5849  0.2296
   59MOL   C69544891   6.055   7.440   7.634 -0.5974  0.9979  0.1171
   59MOL   O69644892   6.095   7.482   7.527 -0.4791  0.0244 -0.1290
   59MOL   C69744893   6.076   7.513   7.758 -0.0503  0.3155 -0.4181
   59MOL   C69844894   6.153   7.629   7.773  0.8013  0.7303  0.5647
   59MOL   C69944895   6.174   7.691   7.893 -0.0344 -0.1427 -0.0084
   59MOL   C70044896   6.100   7.656   8.006  0.2003 -0.4737  0.1543
   59MOL   C70144897   6.104   7.741   0.100 -0.3645  0.5094 -0.3329
   59MOL   O70244898   6.184   7.830   0.117  0.0152  0.0024  0.1260
   59MOL   O70344899   6.017   7.703   0.190 -0.0044 -0.1033  0.3326
   59MOL   C70444900   6.023   7.542   7.997  0.0130  0.6820  0.4364
   59MOL   C70544901   6.013   7.471   7.876  0.5522 -0.2379  0.3539
   59MOL   H70644902   5.744   7.237   7.680  0.5182  1.8661 -1.4562
   59MOL   H70744903   5.699   7.342   7.557 -1.6280  0.6531  2.4673
   59MOL   H70844904   5.550   7.163   7.451  0.3438 -4.5439 -0.9249
   59MOL   H70944905   5.517   7.203   7.618 -0.6223 -2.0303  0.1239
   59MOL   H71044906   5.616   7.003   7.698 -0.7472  1.1924 -0.7914
   59MOL   H71144907   5.428   6.954   7.466 -3.4061 -3.2992  0.4196
   59MOL   H71244908   5.397   6.981   7.640 -1.2217 -0.3502 -2.5714
   59MOL   H71344909   5.700   6.921   7.413  0.8665 -3.0774 -0.2381
   59MOL   H71444910   5.725   6.841   7.564  1.3164 -1.6722 -2.5000
   59MOL   H71544911   5.859   7.015   7.652 -1.6603 -1.4343 -0.1666
   59MOL   H71644912   5.930   6.984   7.491  0.0226 -1.6091  0.0931
   59MOL   H71744913   5.806   7.164   7.396 -0.4509  1.0565 -0.0382
   59MOL   H71844914   5.978   7.303   7.423 -3.5326  2.1867  0.9521
   59MOL   H71944915   6.051   7.177   7.533 -1.0542 -0.4218  1.4975
   59MOL   H72044916   6.217   7.660   7.691  0.3061  1.7440  0.5516
   59MOL   H72144917   6.247   7.771   7.896 -1.5161  1.2477 -0.2280
   59MOL   H72244918   5.977   7.495   0.050 -0.4110 -2.1296 -1.2823
   59MOL   H72344919   5.955   7.379   7.879  1.9309 -1.0726  2.3082
   59MOL   C72444920   6.101   7.460   0.554 -0.4477  0.5983  0.7698
   59MOL   C72544921   6.033   7.531   0.440 -0.1981 -0.1054 -0.3517
   59MOL   C72644922   6.066   7.692   0.440  0.4995  0.3925 -0.1472
   59MOL   C72744923   6.014   7.769   0.317  0.1092 -0.4778  1.0548
   59MOL   C72844924   6.017   7.738   0.582 -0.0344 -0.7084 -0.1023
   59MOL   C72944925   6.066   7.662   0.707  0.6540 -0.0024  0.4590
   59MOL   C73044926   6.051   7.508   0.691 -0.2801  0.9037 -0.0273
   59MOL   C73144927   6.117   7.433   0.803  0.7657  0.2785 -0.2341
   59MOL   O73244928   6.078   7.483   0.935 -0.2512  0.1702 -0.5270
   59MOL   C73344929   6.102   7.402   1.034 -0.0067 -0.0695 -0.2532
   59MOL   O73444930   6.163   7.293   1.028 -0.0758  0.0850 -0.4028
   59MOL   C73544931   6.059   7.445   1.163 -0.2077 -0.1005 -0.4821
   59MOL   C73644932   5.985   7.562   1.178  0.7157 -0.1270  0.2714
   59MOL   C73744933   5.934   7.595   1.303 -0.2084  0.3394  0.2345
   59MOL   C73844934   5.965   7.514   1.416  0.2164  0.2176  0.3340
   59MOL   C73944935   5.901   7.538   1.550  0.3075 -0.3378 -0.4324
   59MOL   O74044936   5.802   7.609   1.558 -0.0389 -0.0728 -0.0232
   59MOL   O74144937   5.956   7.475   1.661  0.8125 -0.4400 -0.0091
   59MOL   C74244938   6.055   7.406   1.406  0.3583 -0.0557 -0.2905
   59MOL   C74344939   6.088   7.366   1.277 -0.2855  0.0665 -0.2730
   59MOL   H74444940   6.209   7.475   0.553 -0.0774 -1.4951 -2.8852
   59MOL   H74544941   6.090   7.352   0.540 -0.1879  0.1159  3.8972
   59MOL   H74644942   5.926   7.509   0.442 -0.1790 -0.3534 -1.5656
   59MOL   H74744943   6.074   7.492   0.347 -0.6372  1.2952 -1.1533
   59MOL   H74844944   6.175   7.702   0.436  0.5351  0.2765  0.5156
   59MOL   H74944945   6.062   7.867   0.319 -0.8280  0.0831 -1.8868
   59MOL   H75044946   5.914   7.809   0.330 -0.1101 -0.4329 -0.6286
   59MOL   H75144947   5.909   7.722   0.577 -0.0483 -0.1446 -1.9714
   59MOL   H75244948   6.029   7.844   0.600  1.8192 -1.4297  3.2569
   59MOL   H75344949   6.174   7.668   0.721  0.4242  0.8231  2.0045
   59MOL   H75444950   6.023   7.699   0.801  0.3304  0.0317  0.2987
   59MOL   H75544951   5.945   7.484   0.700 -0.2548 -0.3922 -2.7367
   59MOL   H75644952   6.224   7.455   0.793  0.6215  1.7860  1.3308
   59MOL   H75744953   6.112   7.325   0.799  3.2130  0.0724  1.1421
   59MOL   H75844954   5.969   7.628   1.093 -1.0136  0.1705  0.8111
   59MOL   H75944955   5.873   7.684   1.306 -1.6586 -0.6841  3.6531
   59MOL   H76044956   6.080   7.354   1.497 -2.5319  2.4894  2.0960
   59MOL   H76144957   6.135   7.269   1.279 -2.1405 -0.8463  2.3961
   59MOL   H76244958   5.891   7.479   1.730  1.1259 -1.6843  0.3686
   60MOL     C144959   5.377   4.618   2.849  0.3494 -0.2558 -0.5137
   60MOL     C244960   5.270   4.671   2.760 -0.3676 -0.3250 -0.1811
   60MOL     C344961   5.242   4.570   2.640 -0.6428 -0.1111  0.3095
   60MOL     C444962   5.138   4.613   2.534  0.2980 -0.5576 -0.0029
   60MOL     C544963   5.373   4.537   2.572 -0.1404 -1.1413  0.2271
   60MOL     C644964   5.483   4.485   2.666 -0.5366  0.5446 -0.1508
   60MOL     C744965   5.510   4.593   2.779  0.1245  1.4025  0.2725
   60MOL     C844966   5.619   4.547   2.875 -0.5497 -0.3390 -0.4346
   60MOL     O944967   5.750   4.572   2.811 -0.1127  0.4070 -0.0597
   60MOL    C1044968   5.867   4.518   2.870 -0.2917 -0.0893  0.6868
   60MOL    O1144969   5.875   4.434   2.966 -0.1432 -0.2877 -0.1677
   60MOL    C1244970   5.983   4.548   2.780 -0.3463  0.8664  0.0843
   60MOL    C1344971   5.989   4.648   2.684  0.8725 -0.1507  0.0636
   60MOL    C1444972   6.098   4.666   2.598  0.2736  0.5415 -1.1625
   60MOL    C1544973   6.214   4.582   2.604 -0.4007  0.6046  0.1194
   60MOL    C1644974   6.325   4.594   2.506 -0.5502 -0.0689  0.5256
   60MOL    O1744975   6.327   4.689   2.427 -0.0688 -0.0829  0.4048
   60MOL    O1844976   6.418   4.490   2.513  0.0058  0.2327  0.1653
   60MOL    C1944977   6.205   4.468   2.692  0.3006 -0.3233 -0.7080
   60MOL    C2044978   6.097   4.464   2.782 -0.1779 -0.4569 -0.4195
   60MOL    H2144979   5.342   4.526   2.895  1.3887 -0.6764 -0.5402
   60MOL    H2244980   5.388   4.699   2.922 -0.3738 -1.0316  0.4707
   60MOL    H2344981   5.299   4.769   2.720  1.0701 -1.1163 -1.0964
   60MOL    H2444982   5.184   4.698   2.821 -0.1899 -2.3483  0.9962
   60MOL    H2544983   5.208   4.475   2.683 -1.3706  0.4181  0.8993
   60MOL    H2644984   5.035   4.610   2.570  0.5836  1.1773  1.0293
   60MOL    H2744985   5.140   4.549   2.446  2.9567 -0.8383  0.2101
   60MOL    H2844986   5.398   4.626   2.513 -1.8737 -0.3437  0.6480
   60MOL    H2944987   5.362   4.463   2.493 -1.0484  0.2023 -0.9521
   60MOL    H3044988   5.444   4.395   2.714 -2.2769  1.7296  0.7295
   60MOL    H3144989   5.568   4.466   2.601  1.7283 -1.5628  3.2706
   60MOL    H3244990   5.553   4.675   2.722  1.0940 -0.9410 -2.4722
   60MOL    H3344991   5.610   4.444   2.908 -0.6089  0.3558  1.8193
   60MOL    H3444992   5.614   4.614   2.961  0.8499 -0.5175 -0.2124
   60MOL    H3544993   5.902   4.710   2.667 -0.5933 -1.8779  1.0335
   60MOL    H3644994   6.081   4.738   2.520 -1.6936  0.0771 -1.1815
   60MOL    H3744995   6.282   4.393   2.697  0.6782  0.1624  0.8959
   60MOL    H3844996   6.098   4.382   2.853  0.2202  0.8033  1.0366
   60MOL    H3944997   5.159   4.714   2.497 -1.3317  0.0426  0.6498
   60MOL    C4044998   6.815   4.359   2.618 -0.0728 -0.0792  0.5713
   60MOL    C4144999   6.704   4.461   2.595 -0.1847  0.3192  0.3792
   60MOL    C4245000   6.653   4.429   2.449 -1.3343 -0.1799  0.1250
   60MOL    C4345001   6.523   4.508   2.420  0.1272 -0.1828  0.1820
   60MOL    C4445002   6.760   4.463   2.347 -0.6239  0.3569  0.5918
   60MOL    C4545003   6.884   4.366   2.366 -0.1593  0.1084  0.1664
   60MOL    C4645004   6.943   4.375   2.518  0.3254  0.2673 -0.1046
   60MOL    C4745005   7.046   4.263   2.543  0.0951 -0.1010 -0.1769
   60MOL    O4845006   7.106   4.301   2.667 -0.2365 -0.4203  0.3530
   60MOL    C4945007   7.205   4.389   2.664  0.3754 -0.1251 -0.8292
   60MOL    O5045008   7.267   4.427   2.562 -0.5577  0.5936 -0.7303
   60MOL    C5145009   7.231   4.435   2.809 -0.7130  0.0323 -0.3088
   60MOL    C5245010   7.349   4.508   2.841  0.9385 -0.7958 -0.0739
   60MOL    C5345011   7.369   4.561   2.969 -0.1050  0.3483  0.5331
   60MOL    C5445012   7.279   4.540   3.075  1.0509  0.5369  1.0771
   60MOL    C5545013   7.290   4.612   3.209 -0.0268 -0.1154  0.0929
   60MOL    O5645014   7.197   4.607   3.289  0.3919  0.0291 -0.1581
   60MOL    O5745015   7.394   4.690   3.215  1.0428 -0.1731  0.2054
   60MOL    C5845016   7.177   4.448   3.051  0.0305  0.9593 -0.9868
   60MOL    C5945017   7.146   4.408   2.919 -0.1029  0.3994 -0.0556
   60MOL    H6045018   6.780   4.257   2.633  1.9200 -1.2266 -2.0561
   60MOL    H6145019   6.848   4.385   2.719 -0.8849  1.3614  0.4739
   60MOL    H6245020   6.732   4.566   2.605 -0.5219  0.3065  1.5480
   60MOL    H6345021   6.628   4.434   2.668 -1.8881 -1.1021 -1.8593
   60MOL    H6445022   6.630   4.323   2.441  0.4527 -0.7451  1.9415
   60MOL    H6545023   6.480   4.479   2.325 -0.6733  0.7421  0.2414
   60MOL    H6645024   6.554   4.612   2.405 -1.4313  0.5840  2.0227
   60MOL    H6745025   6.777   4.570   2.357 -1.7832  0.7180 -1.0735
   60MOL    H6845026   6.719   4.449   2.246  1.6170 -1.5477 -0.0949
   60MOL    H6945027   6.841   4.267   2.349 -0.9257  0.1130  1.9661
   60MOL    H7045028   6.955   4.382   2.285  0.8548 -1.0637  0.8161
   60MOL    H7145029   6.977   4.478   2.525  3.6677 -0.8013  0.2434
   60MOL    H7245030   7.120   4.258   2.464 -0.2158  1.1218 -0.5540
   60MOL    H7345031   7.009   4.161   2.549 -2.0447  0.8106  3.9963
   60MOL    H7445032   7.424   4.528   2.765  0.2742 -1.5159 -0.9296
   60MOL    H7545033   7.456   4.620   2.991  0.6722 -1.0039  1.1604
   60MOL    H7645034   7.112   4.429   3.135  0.6938 -0.7620 -0.8265
   60MOL    H7745035   7.055   4.350   2.911 -1.5557  2.0405  3.4546
   60MOL    C7845036   7.341   5.082   3.090 -0.9638 -0.5876 -0.5613
   60MOL    C7945037   7.400   4.960   3.149 -0.2044  0.3973  0.4634
   60MOL    C8045038   7.325   4.918   3.268 -0.2619 -0.1111 -0.5057
   60MOL    C8145039   7.390   4.792   3.325  0.2838  0.8862  0.2994
   60MOL    C8245040   7.326   5.035   3.378 -0.3792 -0.1358 -0.2357
   60MOL    C8345041   7.278   5.175   3.314 -0.6642  0.4887  0.0889
   60MOL    C8445042   7.352   5.201   3.183 -0.3159 -0.0343 -0.1735
   60MOL    C8545043   7.289   5.328   3.123 -0.6307  0.6878  0.0574
   60MOL    O8645044   7.347   5.369   3.001 -0.1567  0.3561 -0.6607
   60MOL    C8745045   7.353   5.498   2.971 -0.3118  0.1875  0.0314
   60MOL    O8845046   7.307   5.589   3.043 -0.7160 -0.1036 -0.7411
   60MOL    C8945047   7.412   5.522   2.837 -0.3617  0.3614 -0.7273
   60MOL    C9045048   7.462   5.420   2.757  0.0343 -0.0753  0.1526
   60MOL    C9145049   7.516   5.450   2.629  0.6976 -0.1382 -0.2552
   60MOL    C9245050   7.506   5.580   2.573  0.2314 -0.1828  0.1629
   60MOL    C9345051   7.556   5.614   2.437  0.3585  0.1148 -0.0084
   60MOL    O9445052   7.571   5.538   2.341 -0.3192  0.9357 -0.0180
   60MOL    O9545053   7.572   5.747   2.428  0.0264  0.8177  0.0930
   60MOL    C9645054   7.456   5.682   2.664  0.4488 -0.1149  0.3223
   60MOL    C9745055   7.411   5.651   2.793 -0.1069  0.1842  0.2339
   60MOL    H9845056   7.235   5.064   3.070 -1.6350  0.7026  1.6076
   60MOL    H9945057   7.381   5.084   2.989 -1.6450  2.2520 -0.8035
   60MOL   H10045058   7.505   4.982   3.170  0.6088 -1.5121 -1.3900
   60MOL   H10145059   7.402   4.878   3.078  1.5275  0.6530  0.1863
   60MOL   H10245060   7.222   4.893   3.242 -0.7869  1.0490  0.4037
   60MOL   H10345061   7.339   4.770   3.419 -0.8781  0.4683 -0.4084
   60MOL   H10445062   7.493   4.805   3.356  1.0684  0.9874 -2.2479
   60MOL   H10545063   7.424   5.054   3.421 -0.8316  2.5022 -0.2933
   60MOL   H10645064   7.264   4.985   3.453  2.2122 -2.3550  0.4996
   60MOL   H10745065   7.172   5.175   3.288 -1.0777 -0.6281  1.6995
   60MOL   H10845066   7.303   5.257   3.380  1.0019  0.2514 -0.2224
   60MOL   H10945067   7.456   5.228   3.202 -1.2104  2.9531  0.6509
   60MOL   H11045068   7.301   5.415   3.188 -1.2908  0.2678  0.7418
   60MOL   H11145069   7.184   5.301   3.112 -0.0593 -1.4138 -0.4444
   60MOL   H11245070   7.461   5.318   2.791  0.9708 -0.3813 -0.7094
   60MOL   H11345071   7.561   5.373   2.567 -0.7776 -1.0159 -0.2579
   60MOL   H11445072   7.466   5.787   2.638 -0.8296 -0.3151 -1.0141
   60MOL   H11545073   7.392   5.735   2.858  0.2547  0.8849 -0.5548
   60MOL   C11645074   7.371   5.937   2.004 -0.2488  0.0518  0.0419
   60MOL   C11745075   7.500   5.907   2.075  0.5084 -0.4416  0.3113
   60MOL   C11845076   7.480   5.848   2.222  0.6191 -0.1499  0.1220
   60MOL   C11945077   7.603   5.809   2.297  0.1899 -0.0350 -0.2962
   60MOL   C12045078   7.410   5.951   2.304 -0.1777 -1.3340  0.1448
   60MOL   C12145079   7.283   5.999   2.235 -0.3294  0.4026 -0.0129
   60MOL   C12245080   7.298   6.043   2.089 -0.5924  0.3174  0.0535
   60MOL   C12345081   7.154   6.065   2.042  0.1081 -0.3432 -0.5443
   60MOL   O12445082   7.144   6.130   1.911  0.0663  0.8070 -0.6192
   60MOL   C12545083   7.029   6.196   1.894  0.4450  0.3219  0.4049
   60MOL   O12645084   6.932   6.176   1.958  0.3607 -0.6712  0.0411
   60MOL   C12745085   7.040   6.291   1.779  0.5238  0.2836 -0.3748
   60MOL   C12845086   6.927   6.368   1.739 -0.4079 -0.3860 -0.0182
   60MOL   C12945087   6.937   6.439   1.618 -0.2631 -0.7794 -0.2544
   60MOL   C13045088   7.055   6.457   1.547  0.9588 -0.0255  0.4140
   60MOL   C13145089   7.068   6.552   1.437  0.2987  0.4577 -0.0821
   60MOL   O13245090   7.175   6.579   1.383  0.2085  0.6811  0.2693
   60MOL   O13345091   6.953   6.609   1.407 -0.2524 -0.2017  0.1862
   60MOL   C13445092   7.172   6.400   1.602 -0.1460  0.2030  0.1797
   60MOL   C13545093   7.162   6.309   1.712 -0.2916 -0.8434  0.8114
   60MOL   H13645094   7.308   5.848   1.999  0.2741 -0.4543  2.2717
   60MOL   H13745095   7.399   5.973   1.905  2.9558 -1.6149  0.2935
   60MOL   H13845096   7.549   6.004   2.079 -1.2400  0.5496 -1.8565
   60MOL   H13945097   7.565   5.839   2.020 -2.0080 -3.3773  0.8371
   60MOL   H14045098   7.431   5.751   2.211 -0.0605  0.2374 -0.3385
   60MOL   H14145099   7.666   5.895   2.318 -0.8188  0.6874 -0.1599
   60MOL   H14245100   7.663   5.743   2.234 -1.0093 -0.0268 -1.4814
   60MOL   H14345101   7.486   6.028   2.307  0.6724 -1.9097 -3.3042
   60MOL   H14445102   7.396   5.907   2.402  1.6327  2.0374  1.9757
   60MOL   H14545103   7.203   5.925   2.234 -0.0963  0.1038  1.7058
   60MOL   H14645104   7.237   6.074   2.299 -0.9254  1.3488 -1.5275
   60MOL   H14745105   7.354   6.136   2.089  1.6640 -1.0258  0.6570
   60MOL   H14845106   7.102   6.124   2.118  1.3440 -0.0256  0.0700
   60MOL   H14945107   7.094   5.975   2.031  0.2161 -0.8170  2.4054
   60MOL   H15045108   6.837   6.351   1.796  0.2465  0.5735  1.3360
   60MOL   H15145109   6.853   6.498   1.585  1.1706  0.1982 -2.2865
   60MOL   H15245110   7.269   6.400   1.555  0.1822 -0.4646  0.8351
   60MOL   H15345111   7.251   6.261   1.750  0.9578  0.2218 -0.7163
   60MOL   C15445112   6.682   6.485   1.111  0.1760 -0.4011 -0.1115
   60MOL   C15545113   6.760   6.533   1.226 -0.1466 -0.5349  0.4966
   60MOL   C15645114   6.870   6.629   1.175  0.0074  0.1969 -0.6083
   60MOL   C15745115   6.940   6.697   1.299 -0.1189  0.1658 -0.6208
   60MOL   C15845116   6.968   6.555   1.081 -0.1043  0.6689 -0.3378
   60MOL   C15945117   6.896   6.490   0.964  0.0339 -0.4827  0.0536
   60MOL   C16045118   6.777   6.406   1.019  0.2667 -0.2997  0.8238
   60MOL   C16145119   6.697   6.340   0.901  0.2877 -0.2222  0.1216
   60MOL   O16245120   6.627   6.435   0.824 -0.3822  0.6644  0.1298
   60MOL   C16345121   6.537   6.389   0.732  0.4069 -0.2407 -0.7354
   60MOL   O16445122   6.531   6.269   0.703  0.2804 -0.1898  0.3156
   60MOL   C16545123   6.447   6.502   0.678  0.5489  0.0787 -0.6056
   60MOL   C16645124   6.400   6.510   0.544 -0.0302 -0.3722  0.2866
   60MOL   C16745125   6.306   6.607   0.501 -0.4798 -0.1544  0.4360
   60MOL   C16845126   6.286   6.720   0.588  0.1079  0.3009  0.0362
   60MOL   C16945127   6.209   6.837   0.547 -0.1554  0.6866 -0.4920
   60MOL   O17045128   6.156   6.906   0.635  0.3563  0.3066 -0.3783
   60MOL   O17145129   6.206   6.856   0.415 -0.8301 -0.6646  0.1885
   60MOL   C17245130   6.342   6.717   0.717 -0.3339 -0.6134 -0.9958
   60MOL   C17345131   6.415   6.610   0.769 -0.6242 -0.1067  0.4150
   60MOL   H17445132   6.643   6.573   1.062 -1.6069  0.4687  2.7567
   60MOL   H17545133   6.596   6.426   1.144 -0.4685  0.4810 -0.2249
   60MOL   H17645134   6.796   6.455   1.293 -0.3233 -0.0638  1.1345
   60MOL   H17745135   6.691   6.591   1.287  0.3730  2.8603 -2.0341
   60MOL   H17845136   6.828   6.706   1.111  1.1404 -0.5868 -2.3571
   60MOL   H17945137   6.877   6.778   1.337  2.9814  2.1788  0.4120
   60MOL   H18045138   7.034   6.743   1.270  0.9042 -0.8773  0.9836
   60MOL   H18145139   7.019   6.474   1.133 -1.4103 -0.8892 -1.4144
   60MOL   H18245140   7.042   6.627   1.047  1.3091 -1.2451 -1.3769
   60MOL   H18345141   6.864   6.576   0.906  0.4245  0.3370  1.0246
   60MOL   H18445142   6.962   6.436   0.897  0.8535  0.1833  0.3022
   60MOL   H18545143   6.809   6.316   1.072  0.7575 -0.7691 -0.2605
   60MOL   H18645144   6.631   6.261   0.937  0.9121 -0.1373  1.4729
   60MOL   H18745145   6.764   6.293   0.829 -2.1561 -1.6237 -1.3104
   60MOL   H18845146   6.426   6.423   0.485 -0.1671  0.5784 -1.1925
   60MOL   H18945147   6.260   6.598   0.404 -2.6139 -0.8375  1.4629
   60MOL   H19045148   6.320   6.792   0.791 -1.2063 -1.5771 -0.2676
   60MOL   H19145149   6.454   6.616   0.869 -0.4434 -2.2504  0.4829
   60MOL   C19245150   6.111   7.138   0.002  0.9599 -0.0838 -0.2730
   60MOL   C19345151   6.081   7.107   0.148  0.5808  0.3157  0.0712
   60MOL   C19445152   6.161   6.982   0.211 -0.0372 -0.4739  0.2256
   60MOL   C19545153   6.122   6.961   0.364  0.8395  0.0484  0.2701
   60MOL   C19645154   6.130   6.859   0.121  0.7627 -0.2002  0.1165
   60MOL   C19745155   6.178   6.890   8.013 -0.1269  0.2803  0.0717
   60MOL   C19845156   6.101   7.006   7.947  0.1855  0.6810  0.6658
   60MOL   C19945157   6.136   7.036   7.799 -0.4248 -0.4872 -0.1017
   60MOL   O20045158   6.278   7.046   7.794 -0.8069  0.0835  0.1066
   60MOL   C20145159   6.343   7.121   7.709  0.1647 -0.0380  0.1652
   60MOL   O20245160   6.279   7.186   7.622 -0.2415 -0.5356 -0.0356
   60MOL   C20345161   6.493   7.120   7.736  0.6191 -1.0561 -0.0853
   60MOL   C20445162   6.544   7.047   7.842 -1.4207 -0.1890  0.1170
   60MOL   C20545163   6.679   7.062   7.872 -0.0311 -0.0031 -0.1070
   60MOL   C20645164   6.765   7.133   7.785 -0.4822 -0.0206 -0.1401
   60MOL   C20745165   6.909   7.158   7.833  0.4615 -0.0520 -0.5819
   60MOL   O20845166   6.997   7.206   7.761  0.6187 -0.3990 -0.6401
   60MOL   O20945167   6.935   7.116   7.963 -0.4766 -0.4380  0.5935
   60MOL   C21045168   6.722   7.200   7.672  0.0531  0.9661 -0.2489
   60MOL   C21145169   6.581   7.190   7.649 -0.2678 -0.3944 -0.2168
   60MOL   H21245170   6.210   7.180   8.017  0.4263  0.6496 -1.5853
   60MOL   H21345171   6.052   7.222   7.998  0.8620  0.2936  0.7642
   60MOL   H21445172   5.976   7.082   0.159  0.2311  1.8360  0.2398
   60MOL   H21545173   6.096   7.200   0.202  0.9105  1.0673 -1.3020
   60MOL   H21645174   6.269   6.994   0.217 -0.1868  0.0609  2.2330
   60MOL   H21745175   6.017   6.938   0.381  0.8852 -2.1014 -2.0734
   60MOL   H21845176   6.135   7.050   0.426 -0.9335  1.6490 -1.5620
   60MOL   H21945177   6.022   6.846   0.129  0.4638  2.3051  0.6027
   60MOL   H22045178   6.171   6.767   0.162  3.1549  0.5125 -0.5818
   60MOL   H22145179   6.285   6.905   8.022 -0.1884  0.0831  1.1491
   60MOL   H22245180   6.173   6.799   7.953  0.5896  0.5373 -0.3937
   60MOL   H22345181   5.995   6.980   7.940  0.1661  1.4248 -2.5920
   60MOL   H22445182   6.096   7.132   7.766 -0.9654 -0.0246  1.8265
   60MOL   H22545183   6.113   6.961   7.723  3.1923 -0.6402 -1.0931
   60MOL   H22645184   6.487   6.973   7.897  2.0105 -2.5540  0.6372
   60MOL   H22745185   6.713   7.014   7.962 -0.0057 -0.5640 -0.4179
   60MOL   H22845186   6.795   7.254   7.614  1.0752  0.5864  0.6660
   60MOL   H22945187   6.533   7.248   7.571  1.2727 -0.3654 -1.1766
   60MOL   C23045188   7.163   7.508   0.141 -0.2770 -0.0464  0.2845
   60MOL   C23145189   7.170   7.368   0.079 -0.0279  0.0712  0.0003
   60MOL   C23245190   7.027   7.305   0.053 -0.8144  0.5674  0.5148
   60MOL   C23345191   7.050   7.165   8.025  0.2415 -0.0510 -0.0585
   60MOL   C23445192   6.938   7.306   0.179 -0.1827  0.7078 -0.7721
   60MOL   C23545193   6.933   7.438   0.254  0.5370 -0.3448 -0.0579
   60MOL   C23645194   7.071   7.504   0.268 -0.5046 -0.7008 -0.1173
   60MOL   C23745195   7.065   7.648   0.337 -0.3010 -0.0056 -0.4513
   60MOL   O23845196   6.974   7.718   0.260 -0.0217 -0.1729 -0.2101
   60MOL   C23945197   6.865   7.778   0.319  0.0704 -0.2632  0.8964
   60MOL   O24045198   6.843   7.766   0.438 -0.4510  0.6027  0.2961
   60MOL   C24145199   6.773   7.842   0.225 -0.8165  0.3896  0.4754
   60MOL   C24245200   6.666   7.926   0.268 -0.6476 -1.0648  0.0376
   60MOL   C24345201   6.574   7.981   0.180 -0.2482  1.0075 -0.1763
   60MOL   C24445202   6.583   7.954   0.043 -0.2735 -0.4497 -0.4777
   60MOL   C24545203   6.501   8.031   7.981 -0.7851 -0.8173  0.4016
   60MOL   O24645204   6.421   0.085   8.026  0.4652  0.1271  0.3094
   60MOL   O24745205   6.522   8.001   7.852  0.0714  0.4258  0.2720
   60MOL   C24845206   6.682   7.862   0.002  0.4338  0.1053  0.8792
   60MOL   C24945207   6.779   7.812   0.088  0.6367 -0.8052  0.1701
   60MOL   H25045208   7.122   7.580   0.070 -1.3952 -1.3030 -0.3594
   60MOL   H25145209   7.262   7.549   0.164  0.3654 -0.9497 -0.7993
   60MOL   H25245210   7.228   7.306   0.148 -0.8161  0.7493  1.2988
   60MOL   H25345211   7.236   7.368   8.025 -0.0195 -3.3963 -0.0793
   60MOL   H25445212   6.985   7.377   8.015  0.3916  0.4564 -0.3514
   60MOL   H25545213   7.080   7.090   0.066 -2.0356  0.5004  1.5051
   60MOL   H25645214   7.129   7.165   7.950  1.0973  2.6584  0.7746
   60MOL   H25745215   6.978   7.240   0.256 -3.2027  0.4007  0.6019
   60MOL   H25845216   6.837   7.273   0.154  0.5246 -0.6762 -1.8615
   60MOL   H25945217   6.858   7.500   0.206  3.7042  1.7361 -2.5316
   60MOL   H26045218   6.893   7.419   0.353  0.6887 -1.2224 -0.1579
   60MOL   H26145219   7.121   7.441   0.342  2.3623 -0.1203 -1.4986
   60MOL   H26245220   7.162   7.696   0.349  0.7549 -1.7123 -1.7543
   60MOL   H26345221   7.030   7.624   0.438 -0.7004 -3.3639 -1.3069
   60MOL   H26445222   6.659   7.969   0.367 -1.7097  1.9292 -1.2916
   60MOL   H26545223   6.504   0.016   0.229  0.4878 -0.3714  2.9358
   60MOL   H26645224   6.677   7.831   7.931 -1.1704 -1.9543  1.5464
   60MOL   H26745225   6.852   7.740   0.055 -0.6423 -0.8369 -2.6695
   60MOL   C26845226   6.365   0.019   7.383 -0.0784 -0.1136 -0.2111
   60MOL   C26945227   6.410   0.086   7.515  0.4322  0.0610 -0.5916
   60MOL   C27045228   6.438   8.015   7.623  0.2024  0.0922  0.3801
   60MOL   C27145229   6.483   0.055   7.750  0.1944  0.6390  0.3705
   60MOL   C27245230   6.323   7.911   7.635 -0.7588 -0.2840 -0.0195
   60MOL   C27345231   6.257   7.856   7.509 -0.2587  0.2197 -0.4321
   60MOL   C27445232   6.236   7.965   7.404 -0.7930 -0.2433 -0.2528
   60MOL   C27545233   6.200   7.902   7.268  0.6246  0.2141 -0.0261
   60MOL   O27645234   6.097   7.806   7.268  0.2282  0.0430 -0.1810
   60MOL   C27745235   6.047   7.762   7.152 -0.3543  0.7883 -0.2391
   60MOL   O27845236   6.095   7.785   7.043  0.4571 -0.1111 -0.1408
   60MOL   C27945237   5.925   7.674   7.175 -0.3432 -0.4193 -0.2006
   60MOL   C28045238   5.835   7.663   7.069 -0.5664  0.0208 -0.1129
   60MOL   C28145239   5.727   7.583   7.075 -0.2802  0.1275  0.2831
   60MOL   C28245240   5.704   7.505   7.187 -0.7900 -1.0777 -0.7322
   60MOL   C28345241   5.603   7.402   7.184  0.4240 -0.3489 -0.3205
   60MOL   O28445242   5.603   7.310   7.261 -0.0790  0.3893 -0.6187
   60MOL   O28545243   5.500   7.430   7.106  0.1692 -0.1748  0.5523
   60MOL   C28645244   5.794   7.514   7.296  0.4145  0.6620 -0.4180
   60MOL   C28745245   5.902   7.604   7.290 -0.5458  0.5834  0.1337
   60MOL   H28845246   6.449   7.991   7.346 -0.7128 -1.9660  1.2659
   60MOL   H28945247   6.354   0.091   7.302  3.7278 -0.4929 -1.1574
   60MOL   H29045248   6.333   0.157   7.544  0.7466 -0.4238  1.5284
   60MOL   H29145249   6.498   0.146   7.492 -0.4930  1.5837 -0.1980
   60MOL   H29245250   6.521   7.952   7.590 -0.9218 -0.4934 -1.3852
   60MOL   H29345251   6.405   0.124   7.782  0.6824  1.3897 -0.0434
   60MOL   H29445252   6.568   0.114   7.715  1.4335 -2.2600 -1.7782
   60MOL   H29545253   6.239   7.946   7.695 -1.0668 -0.5746 -0.2794
   60MOL   H29645254   6.357   7.822   7.688 -0.7614  0.4261  1.1966
   60MOL   H29745255   6.323   7.787   7.457  0.0013 -0.0447  0.2472
   60MOL   H29845256   6.169   7.799   7.538  1.3197 -1.6599  0.7451
   60MOL   H29945257   6.145   8.019   7.431  0.2553 -0.1485  3.2208
   60MOL   H30045258   6.287   7.844   7.239 -0.7941 -0.8312 -2.3147
   60MOL   H30145259   6.189   7.977   7.189  1.6722  1.2258  0.7541
   60MOL   H30245260   5.860   7.718   6.979 -2.5982  0.5883 -0.3488
   60MOL   H30345261   5.660   7.574   6.990  0.1141  0.6931 -0.0964
   60MOL   H30445262   5.776   7.459   7.387 -0.1107  0.9173 -0.3672
   60MOL   H30545263   5.967   7.611   7.377  1.1530  1.6022 -1.1751
   60MOL   C30645264   5.180   7.552   7.406 -0.7841  0.4655  0.2579
   60MOL   C30745265   5.292   7.465   7.333 -0.1704 -0.8127 -0.4302
   60MOL   C30845266   5.263   7.443   7.188  0.2458  0.4089  0.1294
   60MOL   C30945267   5.373   7.364   7.117 -0.2570 -0.3239 -0.4624
   60MOL   C31045268   5.121   7.392   7.165 -0.1236 -0.1801 -0.0693
   60MOL   C31145269   5.010   7.469   7.237 -0.0961  0.1962 -0.4157
   60MOL   C31245270   5.041   7.496   7.391 -0.5428 -0.1548  0.4833
   60MOL   C31345271   4.938   7.596   7.442 -0.4134 -0.3222  0.3540
   60MOL   O31445272   4.811   7.536   7.427  0.1072  0.0997  0.4201
   60MOL   C31545273   4.709   7.602   7.456 -0.4689 -0.1275  0.1054
   60MOL   O31645274   4.708   7.724   7.484  0.1469 -0.7907 -0.0028
   60MOL   C31745275   4.581   7.524   7.440  0.2404 -0.6170 -0.3728
   60MOL   C31845276   4.467   7.588   7.482 -0.7918 -0.2048 -0.8420
   60MOL   C31945277   4.343   7.526   7.472  0.2708 -0.0547 -1.0065
   60MOL   C32045278   4.335   7.398   7.414  0.4803 -1.1049 -0.0937
   60MOL   C32145279   4.202   7.338   7.402  0.1266  0.1497 -0.4958
   60MOL   O32245280   4.100   7.400   7.425  0.5877 -0.0558  0.5255
   60MOL   O32345281   4.207   7.207   7.359  0.1993  0.3931  0.1600
   60MOL   C32445282   4.452   7.334   7.372 -0.3427  0.5922 -0.2306
   60MOL   C32545283   4.574   7.398   7.377  0.5333  0.0343  0.2415
   60MOL   H32645284   5.192   7.648   7.354  2.2492  0.6110  1.1364
   60MOL   H32745285   5.208   7.565   7.510 -0.1433 -0.7155  0.2439
   60MOL   H32845286   5.306   7.373   7.389 -0.9931 -0.9988 -0.5176
   60MOL   H32945287   5.387   7.517   7.343 -1.6274  1.8305  0.2627
   60MOL   H33045288   5.264   7.547   7.155 -0.7101  0.9367  1.7355
   60MOL   H33145289   5.337   7.342   7.017 -1.0465 -0.1802 -0.2117
   60MOL   H33245290   5.402   7.270   7.164 -1.3255  1.2040  3.4579
   60MOL   H33345291   5.118   7.287   7.194 -3.4392  0.8336  3.7388
   60MOL   H33445292   5.103   7.403   7.059  1.2068  0.7020 -0.2292
   60MOL   H33545293   4.975   7.554   7.179 -0.3482  0.4690  0.1281
   60MOL   H33645294   4.928   7.396   7.238  1.2807 -1.4165 -2.2168
   60MOL   H33745295   5.024   7.405   7.447  2.0980 -1.1171 -0.2108
   60MOL   H33845296   4.949   7.691   7.389  3.6904 -0.4501  0.8457
   60MOL   H33945297   4.946   7.620   7.548 -1.5323  2.1839 -0.0773
   60MOL   H34045298   4.468   7.687   7.523 -2.1288 -0.3725 -0.3547
   60MOL   H34145299   4.255   7.584   7.495  1.4656  1.6700 -0.7503
   60MOL   H34245300   4.447   7.233   7.334  0.3734  0.6090 -0.3713
   60MOL   H34345301   4.658   7.339   7.343  0.9619  1.4562 -1.2536
   60MOL   C34445302   3.955   6.873   7.105  0.0043 -0.8131  0.0909
   60MOL   C34545303   3.957   6.963   7.229  0.5696 -0.3853 -0.1090
   60MOL   C34645304   4.090   7.035   7.248 -0.6398  0.3119 -0.2355
   60MOL   C34745305   4.088   7.127   7.367  0.1816 -0.2439  0.3788
   60MOL   C34845306   4.203   6.924   7.265 -0.5496  0.5885 -0.3655
   60MOL   C34945307   4.209   6.844   7.133  0.0844  0.4008  0.3075
   60MOL   C35045308   4.073   6.772   7.113 -0.0025 -0.1080  1.1097
   60MOL   C35145309   4.075   6.689   6.988 -0.0733 -0.3443  0.4208
   60MOL   O35245310   4.153   6.574   6.995  0.0636 -0.4926  0.3501
   60MOL   C35345311   4.263   6.555   6.909 -0.4759 -0.4722 -0.0206
   60MOL   O35445312   4.311   6.642   6.833 -0.5816 -0.4769 -0.3343
   60MOL   C35545313   4.312   6.410   6.911  0.7864 -0.2198 -0.5850
   60MOL   C35645314   4.443   6.376   6.873 -0.1203 -0.4575  0.0238
   60MOL   C35745315   4.481   6.245   6.845  0.0365  0.7535  1.2264
   60MOL   C35845316   4.384   6.135   6.862 -0.4944  0.3463  0.1307
   60MOL   C35945317   4.413   5.995   6.823 -0.2176  0.1542  0.9833
   60MOL   O36045318   4.374   5.896   6.876 -0.2130  0.6727  0.0495
   60MOL   O36145319   4.495   5.996   6.721  0.3965 -0.0754 -0.0848
   60MOL   C36245320   4.258   6.166   6.918  0.5219 -0.2294  0.0806
   60MOL   C36345321   4.220   6.300   6.937  0.6600 -0.0095 -0.3975
   60MOL   H36445322   3.960   6.941   7.020  0.2731  0.9279  1.4624
   60MOL   H36545323   3.859   6.823   7.093 -1.3138  1.7700 -0.3513
   60MOL   H36645324   3.937   6.902   7.317 -2.7760  0.5223 -0.1947
   60MOL   H36745325   3.882   7.042   7.231  0.7263 -0.2211 -0.6974
   60MOL   H36845326   4.107   7.091   7.156  1.4117  1.7742  0.9835
   60MOL   H36945327   4.079   7.075   7.463 -1.5149 -0.5619  0.0599
   60MOL   H37045328   4.004   7.196   7.360 -0.3417 -1.0079 -0.9316
   60MOL   H37145329   4.196   6.846   7.341  2.9497  0.7700  0.2345
   60MOL   H37245330   4.301   6.966   7.288  0.5305 -2.2683  0.5454
   60MOL   H37345331   4.230   6.914   7.053 -1.3264  3.1261  2.2667
   60MOL   H37445332   4.299   6.783   7.125  0.9010  1.1777  3.1629
   60MOL   H37545333   4.056   6.709   7.201 -1.7874 -1.3733 -0.1076
   60MOL   H37645334   4.104   6.743   6.897  0.2639 -2.2418 -0.6266
   60MOL   H37745335   3.972   6.655   6.982 -0.6407  1.4430 -0.2924
   60MOL   H37845336   4.513   6.455   6.852 -0.1702 -0.2333  0.7000
   60MOL   H37945337   4.580   6.236   6.802 -1.1705 -0.1521 -1.4926
   60MOL   H38045338   4.184   6.087   6.926  2.4383 -2.3352 -2.0366
   60MOL   H38145339   4.122   6.320   6.976 -0.4657 -1.9718 -2.1340
   60MOL   C38245340   4.912   5.916   6.809  0.4936 -0.3479  0.0590
   60MOL   C38345341   4.785   5.948   6.728 -0.6012 -0.8749  0.5082
   60MOL   C38445342   4.675   5.841   6.729  0.1726  0.2641 -0.5594
   60MOL   C38545343   4.545   5.886   6.653 -0.6380 -0.0473  0.5697
   60MOL   C38645344   4.739   5.716   6.665 -1.2453 -0.2536 -0.1447
   60MOL   C38745345   4.873   5.671   6.731 -0.0614  0.6237 -0.2792
   60MOL   C38845346   4.975   5.789   6.753  0.6984 -0.0618  0.3499
   60MOL   C38945347   5.103   5.742   6.840  0.4008 -0.2121  0.0582
   60MOL   O39045348   5.074   5.729   6.973  0.3478 -0.1729  0.0103
   60MOL   C39145349   5.136   5.805   7.061  0.1671  0.5759 -0.6251
   60MOL   O39245350   5.213   5.894   7.031 -0.2962 -0.1411  0.3645
   60MOL   C39345351   5.101   5.766   7.205 -0.1891 -0.3048  0.4015
   60MOL   C39445352   4.996   5.679   7.230  0.2565  0.1658 -0.1387
   60MOL   C39545353   4.972   5.622   7.356 -0.1514 -0.2242 -0.7957
   60MOL   C39645354   5.042   5.666   7.473  0.1753 -0.4022 -0.1310
   60MOL   C39745355   5.025   5.593   7.601 -0.1815  0.0798 -0.3774
   60MOL   O39845356   4.953   5.495   7.613 -0.2022  0.2186 -0.2058
   60MOL   O39945357   5.090   5.643   7.698 -0.1844 -0.2237  0.0805
   60MOL   C40045358   5.133   5.767   7.445  0.1699 -0.9899  0.0915
   60MOL   C40145359   5.165   5.816   7.317 -0.1643  0.4409  0.0960
   60MOL   H40245360   4.893   5.905   6.916 -0.8781 -0.6184 -0.2056
   60MOL   H40345361   4.979   6.002   6.803 -1.0845  0.9017  0.0994
   60MOL   H40445362   4.811   5.988   6.630 -0.3455  2.8146  2.0052
   60MOL   H40545363   4.750   6.042   6.771 -0.9590 -0.7273 -0.1037
   60MOL   H40645364   4.661   5.825   6.836 -2.9092 -1.5828 -1.1697
   60MOL   H40745365   4.471   5.807   6.649  0.2654 -0.7979 -1.9546
   60MOL   H40845366   4.568   5.917   6.551  0.4803 -0.8525  0.5743
   60MOL   H40945367   4.753   5.742   6.560  0.2015  1.6670  0.5056
   60MOL   H41045368   4.662   5.639   6.668 -1.8698  0.3933  0.9114
   60MOL   H41145369   4.858   5.628   6.830 -3.3240  3.1300  0.4022
   60MOL   H41245370   4.898   5.580   6.676 -2.1858  0.9993 -1.9288
   60MOL   H41345371   5.016   5.802   6.653  0.3219  1.8140  0.4409
   60MOL   H41445372   5.189   5.804   6.815  1.0302 -0.9223  0.4549
   60MOL   H41545373   5.124   5.640   6.810 -1.5139 -0.5004 -0.3502
   60MOL   H41645374   4.928   5.641   7.155 -0.3374 -0.3761  0.6558
   60MOL   H41745375   4.892   5.549   7.354 -1.3690  1.0799 -0.9506
   60MOL   H41845376   5.188   5.807   7.528 -2.1967  0.2722  1.1144
   60MOL   H41945377   5.235   5.897   7.300 -0.4570  1.2846  2.7924
   60MOL   C42045378   5.169   5.894   0.020 -0.0490 -0.0527 -0.3447
   60MOL   C42145379   5.094   5.819   7.942 -0.0697 -0.5073  0.1717
   60MOL   C42245380   5.161   5.685   7.918  0.1367  0.8336 -0.2739
   60MOL   C42345381   5.079   5.591   7.833  0.3984  0.2619  0.4331
   60MOL   C42445382   5.298   5.700   7.875 -0.1404  0.0526  0.0148
   60MOL   C42545383   5.379   5.786   7.970 -0.2061 -0.1523 -0.2135
   60MOL   C42645384   5.317   5.919   8.015 -0.2971 -0.4074  1.0140
   60MOL   C42745385   5.402   5.981   0.101 -0.1230  0.5891  1.0099
   60MOL   O42845386   5.385   5.895   0.211  0.5930  0.0224 -0.3689
   60MOL   C42945387   5.389   5.945   0.333  0.9996  0.5896 -0.3167
   60MOL   O43045388   5.375   6.067   0.355  0.2945  0.4503  0.1456
   60MOL   C43145389   5.411   5.845   0.444  0.5956 -0.2922  0.0704
   60MOL   C43245390   5.429   5.710   0.413 -0.6939 -0.0683 -0.0652
   60MOL   C43345391   5.440   5.620   0.519  0.0786  0.3163 -0.2780
   60MOL   C43445392   5.437   5.658   0.655 -0.4213  0.0703  0.3438
   60MOL   C43545393   5.452   5.556   0.768 -0.0949 -0.5148  0.7233
   60MOL   O43645394   5.429   5.584   0.883  0.1927 -0.7165  0.0772
   60MOL   O43745395   5.502   5.438   0.717 -0.0772  0.0488  0.4424
   60MOL   C43845396   5.422   5.795   0.682 -0.1618 -0.0933 -0.1329
   60MOL   C43945397   5.406   5.883   0.578  0.7953 -0.0640  0.3919
   60MOL   H44045398   5.175   5.838   0.113  0.1715  0.0904 -0.2740
   60MOL   H44145399   5.124   5.990   0.044 -1.4983 -0.1060 -2.6423
   60MOL   H44245400   5.087   5.883   7.854 -3.2884 -0.5895  0.3137
   60MOL   H44345401   4.990   5.809   7.970  0.4921 -0.6730  2.2584
   60MOL   H44445402   5.165   5.632   8.013  2.7931 -0.3761 -1.0332
   60MOL   H44545403   4.973   5.589   7.858 -0.5500  2.7517 -2.9259
   60MOL   H44645404   5.120   5.490   7.832  1.0262  0.5191 -0.2156
   60MOL   H44745405   5.306   5.745   7.776  3.2215 -0.7617 -0.1519
   60MOL   H44845406   5.341   5.601   7.861  0.0646  0.2685 -0.9289
   60MOL   H44945407   5.399   5.720   0.022 -0.7585  0.0496  0.0849
   60MOL   H45045408   5.478   5.806   7.929  0.3919  1.8858  2.1119
   60MOL   H45145409   5.316   5.989   7.932 -0.3955 -2.5440 -0.8136
   60MOL   H45245410   5.373   6.086   0.106 -1.2446  0.5587 -3.2911
   60MOL   H45345411   5.506   5.981   0.069 -0.3573  1.2929  0.2393
   60MOL   H45445412   5.430   5.679   0.310  0.8499  0.1087 -0.1075
   60MOL   H45545413   5.458   5.519   0.486 -0.2485  0.3202 -0.4697
   60MOL   H45645414   5.432   5.825   0.785 -0.8592 -0.3135  0.0013
   60MOL   H45745415   5.406   5.991   0.589  0.2186 -0.0161 -0.0860
   60MOL   C45845416   5.829   5.141   0.629 -0.3802 -0.0323  0.0331
   60MOL   C45945417   5.753   5.257   0.704 -0.5102 -0.7972  0.1657
   60MOL   C46045418   5.606   5.228   0.738  0.5227  0.2572  0.1742
   60MOL   C46145419   5.532   5.331   0.807 -0.2770 -0.1203 -0.0930
   60MOL   C46245420   5.529   5.180   0.615  0.3889  0.4903  0.7695
   60MOL   C46345421   5.599   5.069   0.530 -0.0727  0.7008 -0.1542
   60MOL   C46445422   5.755   5.095   0.498 -0.2529 -0.3386  0.0642
   60MOL   C46545423   5.815   4.972   0.427 -0.0380 -0.9392  0.0450
   60MOL   O46645424   5.729   4.913   0.326  0.1677 -0.3502 -0.1559
   60MOL   C46745425   5.765   4.807   0.254  0.2208  0.1331  0.4489
   60MOL   O46845426   5.874   4.752   0.246 -0.1964 -0.3331 -0.2321
   60MOL   C46945427   5.648   4.763   0.171 -0.0351 -0.0434  0.1552
   60MOL   C47045428   5.519   4.818   0.198  1.0094  0.3950  0.5266
   60MOL   C47145429   5.411   4.782   0.116 -1.0428 -0.1586  0.3632
   60MOL   C47245430   5.421   4.691   0.008 -0.5486  0.2595  0.1794
   60MOL   C47345431   5.302   4.652   7.966 -0.5501 -0.6049 -0.1946
   60MOL   O47445432   5.297   4.563   7.888 -0.3202 -0.6418  0.2423
   60MOL   O47545433   5.187   4.705   8.018  0.3508  0.0108  0.0373
   60MOL   C47645434   5.551   4.632   8.013  0.5323 -0.4122 -0.2574
   60MOL   C47745435   5.662   4.668   0.067 -0.1358  0.4859  0.4722
   60MOL   H47845436   5.848   5.057   0.696  1.2249  1.1585  1.0740
   60MOL   H47945437   5.924   5.183   0.596 -0.2603 -0.5113 -0.2463
   60MOL   H48045438   5.762   5.342   0.637 -0.5458  0.9595  2.3535
   60MOL   H48145439   5.804   5.285   0.796 -1.8117  1.7609  0.1681
   60MOL   H48245440   5.603   5.147   0.811  0.7363  1.8743  2.0189
   60MOL   H48345441   5.602   5.365   0.884 -1.1530  2.5310 -0.3894
   60MOL   H48445442   5.448   5.288   0.861  0.2780  1.5092  2.1793
   60MOL   H48545443   5.487   5.255   0.548  0.6297  0.5872  0.7271
   60MOL   H48645444   5.443   5.128   0.656 -0.4837 -0.1034 -1.7203
   60MOL   H48745445   5.574   4.972   0.573 -0.6409  0.4169 -1.1084
   60MOL   H48845446   5.544   5.077   0.436  1.8208 -0.2602 -1.4012
   60MOL   H48945447   5.765   5.181   0.432  2.4800 -2.6863 -2.7334
   60MOL   H49045448   5.836   4.894   0.501 -1.0705 -1.3586 -0.0943
   60MOL   H49145449   5.915   4.991   0.389  0.0716  0.0125  0.7811
   60MOL   H49245450   5.494   4.900   0.263 -4.5563  0.2111 -1.0659
   60MOL   H49345451   5.320   4.827   0.153 -0.5962  1.2699 -0.2604
   60MOL   H49445452   5.562   4.556   7.937  3.2976  0.0202 -0.3308
   60MOL   H49545453   5.761   4.625   0.060  0.0428  0.9093  0.3434
   60MOL   C49645454   4.874   5.014   0.061  0.7301 -0.2562  0.7046
   60MOL   C49745455   4.946   4.880   0.060 -0.0573 -1.3391 -0.4962
   60MOL   C49845456   4.983   4.832   7.951 -0.5108 -0.0839  0.0770
   60MOL   C49945457   5.062   4.697   7.947  0.2346 -0.3559 -0.2579
   60MOL   C50045458   4.854   4.820   7.869  0.7127 -0.1121 -0.1219
   60MOL   C50145459   4.780   4.957   7.862  0.6430 -0.4357  0.2959
   60MOL   C50245460   4.749   5.015   8.006  0.5138 -0.4759 -0.1193
   60MOL   C50345461   4.676   5.148   7.993 -0.3021  0.1732  0.4216
   60MOL   O50445462   4.649   5.209   0.094  0.4975  0.0461  0.3802
   60MOL   C50545463   4.594   5.326   0.097  0.1810 -0.7310 -1.1392
   60MOL   O50645464   4.546   5.387   0.002  0.3364 -0.1859  0.1168
   60MOL   C50745465   4.591   5.365   0.241  0.5449  0.3162  0.5738
   60MOL   C50845466   4.502   5.473   0.278  0.3617  1.1408 -0.1094
   60MOL   C50945467   4.479   5.510   0.412 -0.2625 -0.2257  0.6029
   60MOL   C51045468   4.549   5.439   0.509 -0.1224  0.0705  0.5907
   60MOL   C51145469   4.527   5.462   0.658  0.0050 -0.0221  0.2104
   60MOL   O51245470   4.433   5.535   0.698 -0.0515 -0.2733  0.1493
   60MOL   O51345471   4.618   5.402   0.738 -0.3647 -0.0131  0.1620
   60MOL   C51445472   4.643   5.341   0.471  0.6924 -0.6048 -0.2378
   60MOL   C51545473   4.674   5.303   0.338  0.4655 -0.0809  0.1902
   60MOL   H51645474   4.951   5.084   0.026  0.3632  0.5799  1.5266
   60MOL   H51745475   4.844   5.042   0.162  0.9963 -2.9752  1.5763
   60MOL   H51845476   4.883   4.803   0.102 -0.3447 -1.1006 -0.4881
   60MOL   H51945477   5.041   4.898   0.112 -0.2035 -2.8645  0.3084
   60MOL   H52045478   5.043   4.911   7.907 -0.5541 -0.2477 -0.2778
   60MOL   H52145479   5.066   4.663   7.843  0.1512  0.1182 -0.4160
   60MOL   H52245480   5.005   4.618   7.996  1.2691 -1.6100 -1.0414
   60MOL   H52345481   4.799   4.732   7.901  0.2267 -0.5564 -2.1073
   60MOL   H52445482   4.872   4.787   7.767 -0.4563  0.1250 -0.4115
   60MOL   H52545483   4.838   5.023   7.798 -1.1658 -1.0795 -2.0842
   60MOL   H52645484   4.689   4.950   7.803 -1.5749 -1.4112  3.6595
   60MOL   H52745485   4.677   4.953   0.027 -2.6171  3.5019  0.5423
   60MOL   H52845486   4.579   5.127   7.948 -0.1948  0.0526  0.2457
   60MOL   H52945487   4.731   5.221   7.933  0.8170 -0.2879  0.8747
   60MOL   H53045488   4.448   5.521   0.199  1.4716  0.6865 -1.1629
   60MOL   H53145489   4.417   5.595   0.435  2.9801  2.3091  0.3423
   60MOL   H53245490   4.705   5.302   0.550  0.4111  1.8388  1.2381
   60MOL   H53345491   4.755   5.240   0.303  0.5026  0.8827 -1.5265
   60MOL   C53445492   4.588   5.061   1.008 -0.0187  0.0151  0.2234
   60MOL   C53545493   4.645   5.167   0.914 -0.4253 -0.4013 -0.4665
   60MOL   C53645494   4.563   5.296   0.942 -0.4052  0.1582 -0.1643
   60MOL   C53745495   4.618   5.418   0.879 -0.0276 -0.6540  0.3632
   60MOL   C53845496   4.409   5.268   0.919 -0.2356 -0.5765  0.3737
   60MOL   C53945497   4.361   5.169   1.015 -0.7922  0.4115  0.1693
   60MOL   C54045498   4.436   5.040   0.983 -0.6631  0.6692  0.9658
   60MOL   C54145499   4.378   4.918   1.049  0.4909  0.0591 -0.8632
   60MOL   O54245500   4.462   4.808   1.035  0.0276 -0.0172 -0.2721
   60MOL   C54345501   4.453   4.718   0.934  0.8445  0.0010 -0.8464
   60MOL   O54445502   4.363   4.727   0.844 -0.1090  0.0200  0.3448
   60MOL   C54545503   4.549   4.601   0.947 -0.8279 -0.2585 -0.0190
   60MOL   C54645504   4.648   4.600   1.050  0.2708  0.2971  0.3876
   60MOL   C54745505   4.735   4.486   1.066 -0.4411  0.4071 -0.1240
   60MOL   C54845506   4.714   4.373   0.981 -1.0472  0.6383  0.1595
   60MOL   C54945507   4.790   4.245   0.992  0.6317  0.5897  0.7232
   60MOL   O55045508   4.773   4.142   0.918  0.3032  0.7695  0.0872
   60MOL   O55145509   4.883   4.252   1.088  0.3589 -0.8047 -0.7208
   60MOL   C55245510   4.614   4.375   0.886 -0.3539  0.3664  0.1890
   60MOL   C55345511   4.529   4.488   0.869  0.4328  0.1741  1.1492
   60MOL   H55445512   4.617   5.083   1.110  1.6789 -0.7943 -0.0705
   60MOL   H55545513   4.627   4.961   0.988  0.3539  0.0364  0.8447
   60MOL   H55645514   4.630   5.140   0.809 -0.0168  1.8863 -1.1564
   60MOL   H55745515   4.750   5.185   0.935 -0.4592 -2.0390  1.2366
   60MOL   H55845516   4.576   5.316   1.049 -1.9846 -0.1884  0.1016
   60MOL   H55945517   4.722   5.432   0.911 -0.1100  1.8038 -0.3191
   60MOL   H56045518   4.565   5.506   0.915 -2.7360 -1.5378 -1.3701
   60MOL   H56145519   4.388   5.247   0.815 -1.0601 -2.1752  0.8415
   60MOL   H56245520   4.362   5.363   0.942 -2.1170 -1.6146  0.9387
   60MOL   H56345521   4.381   5.188   1.120  0.3975  0.7701 -0.1066
   60MOL   H56445522   4.256   5.149   0.996 -0.6305 -0.6438  0.3331
   60MOL   H56545523   4.426   5.022   0.876  2.0215  2.7038  0.3417
   60MOL   H56645524   4.278   4.895   1.013 -0.4340 -0.9916  2.1830
   60MOL   H56745525   4.373   4.928   1.158  1.4701 -1.9644 -0.6149
   60MOL   H56845526   4.638   4.677   1.126 -0.1133 -0.1377  0.7837
   60MOL   H56945527   4.807   4.490   1.146 -0.5429 -0.0847 -0.0081
   60MOL   H57045528   4.608   4.290   0.819 -0.6848  1.7953 -1.6341
   60MOL   H57145529   4.462   4.490   0.784  2.1622  0.5975 -0.2304
   60MOL   C57245530   5.228   4.074   1.404 -0.4477 -0.8713 -0.9325
   60MOL   C57345531   5.133   4.041   1.282  0.1568  0.2340  1.3074
   60MOL   C57445532   5.057   4.168   1.240  0.2489  0.2585  0.5989
   60MOL   C57545533   4.957   4.139   1.128 -0.2004 -0.1124 -0.4744
   60MOL   C57645534   4.982   4.220   1.371 -0.5802  0.3391  0.4413
   60MOL   C57745535   5.064   4.248   1.494 -0.0214  0.0850 -0.0422
   60MOL   C57845536   5.148   4.126   1.528 -0.0539  0.5912  1.0313
   60MOL   C57945537   5.235   4.149   1.648 -0.0041 -0.5525  0.7718
   60MOL   O58045538   5.151   4.170   1.760 -0.0028 -0.4155 -0.0617
   60MOL   C58145539   5.200   4.229   1.868  0.3145  0.1854 -0.5486
   60MOL   O58245540   5.318   4.261   1.880 -0.6245  0.3757 -0.1806
   60MOL   C58345541   5.111   4.222   1.989  0.0078  0.7713  0.1972
   60MOL   C58445542   4.971   4.189   1.978  0.1452  0.0390 -0.0781
   60MOL   C58545543   4.896   4.164   2.095 -0.1859 -0.2296 -0.3171
   60MOL   C58645544   4.956   4.193   2.220  0.5926 -0.3766  0.3207
   60MOL   C58745545   4.859   4.202   2.334 -1.0287  0.2685  0.0360
   60MOL   O58845546   4.738   4.186   2.318  0.7979  0.0188 -0.1590
   60MOL   O58945547   4.918   4.221   2.456  0.1457  0.4034 -0.1037
   60MOL   C59045548   5.092   4.217   2.238  0.4089  0.6696  0.1529
   60MOL   C59145549   5.165   4.232   2.117 -0.0112  1.2476 -0.5421
   60MOL   H59245550   5.289   4.158   1.372 -1.8827  0.2479 -0.7658
   60MOL   H59345551   5.290   3.996   1.447  1.6046  0.5511 -1.2643
   60MOL   H59445552   5.065   3.961   1.311 -1.1745  0.2463 -1.6479
   60MOL   H59545553   5.194   4.008   1.197 -2.6042  0.9338 -0.9973
   60MOL   H59645554   5.121   4.253   1.214 -0.3327  0.9885  1.5106
   60MOL   H59745555   4.883   4.077   1.177  0.1226  0.5875  0.9361
   60MOL   H59845556   5.010   4.096   1.044 -1.0714 -2.2870  0.0597
   60MOL   H59945557   4.907   4.146   1.400  0.3875 -0.8006  0.0842
   60MOL   H60045558   4.927   4.308   1.337  1.0879  0.4876 -2.0370
   60MOL   H60145559   5.129   4.329   1.461 -1.3343  0.5466 -1.5499
   60MOL   H60245560   5.005   4.289   1.575  0.2843 -0.9927  0.7402
   60MOL   H60345561   5.074   4.053   1.560  0.1678  0.5796  1.5223
   60MOL   H60445562   5.303   4.233   1.630  0.5053 -1.5312 -1.9693
   60MOL   H60545563   5.290   4.057   1.667  1.1506 -0.0071  0.1145
   60MOL   H60645564   4.921   4.184   1.883 -0.7108 -0.9491  0.4148
   60MOL   H60745565   4.791   4.139   2.087 -0.0743  0.0161 -2.9801
   60MOL   H60845566   5.128   4.238   2.337 -1.7276 -1.8985  1.5434
   60MOL   H60945567   5.267   4.265   2.129 -0.1287  1.2173  0.6671
   60MOL   C61045568   5.101   4.191   2.854  0.5292  0.4738  0.4481
   60MOL   C61145569   5.026   4.158   2.728 -0.1227 -0.1853 -0.5704
   60MOL   C61245570   4.909   4.258   2.699  0.6800 -0.0019  0.2884
   60MOL   C61345571   4.829   4.227   2.568 -0.3768 -0.1067 -0.3017
   60MOL   C61445572   4.814   4.268   2.814 -0.6316 -0.4011 -0.2487
   60MOL   C61545573   4.890   4.310   2.938 -0.3214 -0.3724  0.1147
   60MOL   C61645574   5.007   4.211   2.975  0.0445  0.2856  0.0249
   60MOL   C61745575   5.078   4.249   3.100 -0.0016  0.7697  0.5914
   60MOL   O61845576   4.996   4.239   3.213  0.3354  0.0958  0.7086
   60MOL   C61945577   5.051   4.301   3.328  0.3608  0.0609 -1.0728
   60MOL   O62045578   5.162   4.354   3.336 -0.1330 -0.2002  0.1087
   60MOL   C62145579   4.958   4.292   3.446  0.2760 -0.2482  0.0379
   60MOL   C62245580   5.002   4.329   3.574  0.2198  0.6068  0.1074
   60MOL   C62345581   4.912   4.311   3.682  0.0620  0.1071  0.3069
   60MOL   C62445582   4.776   4.268   3.670 -0.3674 -0.8939  0.1361
   60MOL   C62545583   4.692   4.243   3.791 -0.0181  0.6018  0.2873
   60MOL   O62645584   4.608   4.157   3.793 -0.3770  0.1883  0.1246
   60MOL   O62745585   4.708   4.328   3.894 -0.5699  0.3574  0.2129
   60MOL   C62845586   4.730   4.230   3.543 -0.2538  0.0572  0.3365
   60MOL   C62945587   4.824   4.239   3.434  0.2843 -0.5561 -0.4629
   60MOL   H63045588   5.151   4.285   2.832  0.2774  0.5366  0.1385
   60MOL   H63145589   5.186   4.130   2.886 -0.0758 -0.3492  0.5047
   60MOL   H63245590   4.979   4.059   2.731  0.4284 -0.4127  0.9054
   60MOL   H63345591   5.096   4.160   2.645  2.1059  0.2456  1.2851
   60MOL   H63445592   4.936   4.364   2.694 -1.0750  0.5780  2.0934
   60MOL   H63545593   4.743   4.290   2.545 -0.4881 -0.0705  0.2249
   60MOL   H63645594   4.796   4.124   2.578  0.8758 -0.6583 -1.6611
   60MOL   H63745595   4.753   4.179   2.829 -0.3344 -1.0137 -2.4824
   60MOL   H63845596   4.735   4.343   2.806  0.1715  0.3772 -1.0353
   60MOL   H63945597   4.933   4.407   2.911  1.1934 -1.1647 -0.3583
   60MOL   H64045598   4.823   4.316   3.024 -0.6172  1.7305 -0.2276
   60MOL   H64145599   4.956   4.119   3.003  0.1130  0.9240  2.3361
   60MOL   H64245600   5.114   4.352   3.088  4.6444 -0.9064 -0.9773
   60MOL   H64345601   5.168   4.188   3.110 -0.6253 -0.4542 -1.0251
   60MOL   H64445602   5.106   4.354   3.590  0.5229 -0.7369  0.3032
   60MOL   H64545603   4.960   4.337   3.775  0.5216  1.3049 -0.2564
   60MOL   H64645604   4.630   4.198   3.518  1.3790 -4.1031 -1.2303
   60MOL   H64745605   4.792   4.209   3.335 -0.0405  0.3058 -0.6175
   60MOL   C64845606   4.781   4.335   4.349 -0.2232 -0.0932  1.2027
   60MOL   C64945607   4.761   4.310   4.199  0.3553 -0.3081 -0.0694
   60MOL   C65045608   4.655   4.399   4.127  0.3954  0.3314  0.2310
   60MOL   C65145609   4.611   4.332   3.995  0.8361 -0.1201  0.4874
   60MOL   C65245610   4.537   4.439   4.220 -0.1411  0.3225  0.0183
   60MOL   C65345611   4.577   4.465   4.367  0.0239 -0.0900  0.5087
   60MOL   C65445612   4.645   4.340   4.423  0.2223  0.2321 -0.1779
   60MOL   C65545613   4.646   4.355   4.576  0.3786  0.3695 -0.5595
   60MOL   O65645614   4.519   4.325   4.639 -0.2262  0.3261 -0.0517
   60MOL   C65745615   4.503   4.229   4.735 -0.7920  0.3522  0.8461
   60MOL   O65845616   4.599   4.185   4.793 -0.4830  0.3408 -0.8091
   60MOL   C65945617   4.362   4.200   4.768 -0.8108  0.3394  0.3861
   60MOL   C66045618   4.254   4.227   4.677 -0.3202 -0.8546  0.2607
   60MOL   C66145619   4.126   4.167   4.689  0.3013  0.2877 -0.2382
   60MOL   C66245620   4.102   4.094   4.809 -0.2324 -0.1923  0.0652
   60MOL   C66345621   3.965   4.040   4.842  0.4364 -0.0352  0.4683
   60MOL   O66445622   3.932   3.969   4.937 -0.5694  0.2183 -0.0146
   60MOL   O66545623   3.877   4.079   4.750 -0.0461 -0.3316  0.6142
   60MOL   C66645624   4.208   4.070   4.901  0.3262  0.0141  0.0024
   60MOL   C66745625   4.336   4.117   4.876  0.2745 -0.0953  0.4691
   60MOL   H66845626   4.844   4.422   4.367 -0.2306  0.0609  0.5080
   60MOL   H66945627   4.847   4.254   4.380  0.1881 -0.0549  0.4517
   60MOL   H67045628   4.725   4.209   4.183  0.8666 -0.6071  0.6404
   60MOL   H67145629   4.857   4.301   4.148  0.7330  0.6218  0.4694
   60MOL   H67245630   4.700   4.491   4.089  0.9782  0.3997  1.0730
   60MOL   H67345631   4.516   4.373   3.964  1.2606  0.2379 -0.3515
   60MOL   H67445632   4.589   4.226   4.012 -0.9384  0.4176  1.6403
   60MOL   H67545633   4.469   4.354   4.209  0.8792 -0.2964 -1.8272
   60MOL   H67645634   4.497   4.530   4.175  2.0380  0.6043 -1.4087
   60MOL   H67745635   4.641   4.553   4.373 -0.0689 -0.0337  0.6971
   60MOL   H67845636   4.497   4.488   4.438 -0.0972 -0.5179  0.5117
   60MOL   H67945637   4.572   4.262   4.402  0.3363  0.7382 -2.5620
   60MOL   H68045638   4.676   4.455   4.606 -0.7802  0.3274  0.8076
   60MOL   H68145639   4.717   4.285   4.619  0.0257 -0.3169 -1.0814
   60MOL   H68245640   4.283   4.288   4.592  1.5294 -0.7528  0.9429
   60MOL   H68345641   4.053   4.190   4.613 -1.0230  1.3441  1.3213
   60MOL   H68445642   4.193   4.007   4.988  0.9866 -0.0009  0.1063
   60MOL   H68545643   4.426   4.092   4.931  1.7593  0.6954 -1.5405
   60MOL   C68645644   3.398   4.128   4.612 -0.1383  0.0213  1.0254
   60MOL   C68745645   3.506   4.044   4.682 -0.9925 -0.3758  0.3737
   60MOL   C68845646   3.649   4.109   4.675  0.2856 -0.2833  0.2163
   60MOL   C68945647   3.749   4.027   4.751 -0.7611 -0.1684 -0.2268
   60MOL   C69045648   3.689   4.133   4.529 -0.4362  0.1129 -0.6259
   60MOL   C69145649   3.575   4.211   4.457  0.2405  0.6473 -0.3831
   60MOL   C69245650   3.432   4.146   4.465 -0.0971  0.4895  1.0118
   60MOL   C69345651   3.330   4.222   4.367 -0.5896 -0.3469 -0.4870
   60MOL   O69445652   3.374   4.209   4.235  0.0667 -0.3734  0.2203
   60MOL   C69545653   3.371   4.302   4.138 -0.4969 -0.8869  0.1179
   60MOL   O69645654   3.292   4.398   4.145 -0.3594  0.7992 -0.3221
   60MOL   C69745655   3.482   4.287   4.036  0.5482 -0.4013 -1.1776
   60MOL   C69845656   3.566   4.172   4.033  0.6949  0.8204 -1.0282
   60MOL   C69945657   3.668   4.168   3.942 -0.7111 -0.0362  0.7433
   60MOL   C70045658   3.693   4.269   3.842 -0.3384  0.4643 -0.0028
   60MOL   C70145659   3.801   4.249   3.736 -0.4428 -0.5041  0.0148
   60MOL   O70245660   3.875   4.151   3.735 -1.0260  0.3006  0.3128
   60MOL   O70345661   3.811   4.360   3.659  0.0994  0.0584  0.4242
   60MOL   C70445662   3.597   4.373   3.840  0.1633  0.5677 -0.1440
   60MOL   C70545663   3.495   4.385   3.936  0.1094  0.5273 -0.1667
   60MOL   H70645664   3.399   4.227   4.658 -1.7744 -0.1752  1.5211
   60MOL   H70745665   3.302   4.082   4.636  0.3310 -1.8289 -0.5238
   60MOL   H70845666   3.506   3.943   4.641 -0.5369 -1.0418  1.9694
   60MOL   H70945667   3.486   4.035   4.789 -1.9650  1.1281  0.3383
   60MOL   H71045668   3.651   4.209   4.718  0.6426 -0.7009  1.1916
   60MOL   H71145669   3.750   3.922   4.721  2.4639 -0.2545  0.0073
   60MOL   H71245670   3.718   4.039   4.854 -1.3044  1.4794 -0.5719
   60MOL   H71345671   3.706   4.042   4.471  0.7901 -0.1516  0.1428
   60MOL   H71445672   3.779   4.193   4.519  0.7412 -1.3323  1.0463
   60MOL   H71545673   3.554   4.305   4.508 -2.3398 -0.8144  1.3447
   60MOL   H71645674   3.597   4.246   4.356 -0.5397  1.5949 -0.2306
   60MOL   H71745675   3.449   4.047   4.423 -0.3219  0.5258  0.8379
   60MOL   H71845676   3.341   4.325   4.401 -1.1983 -0.8724  1.3673
   60MOL   H71945677   3.225   4.196   4.379 -1.0526  0.9438 -1.5038
   60MOL   H72045678   3.553   4.097   4.109  0.8655  0.7028 -1.1151
   60MOL   H72145679   3.737   4.085   3.940 -1.0696 -0.3158 -0.2214
   60MOL   H72245680   3.609   4.457   3.772  1.7602  0.6997  0.2883
   60MOL   H72345681   3.439   4.478   3.940  0.7482  0.9388 -0.6154
   60MOL   C72445682   3.824   4.734   3.429 -0.8105 -0.1887  0.8352
   60MOL   C72545683   3.812   4.582   3.466  0.4424  0.0508  0.2668
   60MOL   C72645684   3.938   4.521   3.535  0.1916 -0.1712 -0.3823
   60MOL   C72745685   3.917   4.372   3.567 -0.3197  0.3204 -0.2676
   60MOL   C72845686   4.061   4.540   3.446  0.3598  0.7023  0.1289
   60MOL   C72945687   4.074   4.688   3.403  0.1474 -0.0557  0.0030
   60MOL   C73045688   3.944   4.747   3.336  0.2702 -0.2989  0.1272
   60MOL   C73145689   3.964   4.892   3.296  0.0071 -0.5135  0.0634
   60MOL   O73245690   3.852   4.954   3.236 -0.7456  0.3436 -0.1325
   60MOL   C73345691   3.850   4.987   3.101 -0.1409 -0.4521 -0.1026
   60MOL   O73445692   3.931   4.953   3.018  0.2591 -0.2690  0.4146
   60MOL   C73545693   3.728   5.067   3.066  0.5593  0.8151 -0.5021
   60MOL   C73645694   3.677   5.058   2.935  0.0977 -0.8847 -0.0582
   60MOL   C73745695   3.551   5.115   2.901  0.4816  0.1737 -1.2522
   60MOL   C73845696   3.470   5.171   3.005  0.5019 -0.9953 -0.2625
   60MOL   C73945697   3.334   5.223   2.961 -0.4164 -0.3230 -0.1370
   60MOL   O74045698   3.292   5.214   2.848 -0.1666 -0.4105 -0.2594
   60MOL   O74145699   3.259   5.290   3.057 -0.1009  0.5251  0.3587
   60MOL   C74245700   3.522   5.186   3.132 -0.0426  0.4389  0.4600
   60MOL   C74345701   3.651   5.134   3.160  1.0591  0.1362 -0.3509
   60MOL   H74445702   3.838   4.807   3.509  3.3342  0.5165 -0.4008
   60MOL   H74545703   3.739   4.768   3.371 -2.4901 -1.1354  2.7003
   60MOL   H74645704   3.792   4.524   3.376  1.5470  3.8712 -2.5650
   60MOL   H74745705   3.721   4.562   3.523  0.3125 -0.5966 -0.1503
   60MOL   H74845706   3.947   4.579   3.627 -0.3622  0.7073 -0.8756
   60MOL   H74945707   4.014   4.346   3.609 -1.1119  0.1041  1.4548
   60MOL   H75045708   3.896   4.320   3.473  1.5234  0.4469 -0.7795
   60MOL   H75145709   4.045   4.491   3.350 -0.2038  0.3262  0.4182
   60MOL   H75245710   4.154   4.503   3.489  1.4263  2.0511 -0.9549
   60MOL   H75345711   4.098   4.743   3.494  0.6959  2.0791 -1.3868
   60MOL   H75445712   4.159   4.704   3.337 -0.6806  0.0317 -1.0589
   60MOL   H75545713   3.930   4.697   3.240 -1.5328  3.0557 -1.4638
   60MOL   H75645714   4.057   4.907   3.241 -0.7317  1.7208 -0.6117
   60MOL   H75745715   3.986   4.943   3.389 -2.2074 -1.0626  0.9214
   60MOL   H75845716   3.720   5.019   2.844  0.0228  0.7510 -0.8179
   60MOL   H75945717   3.514   5.112   2.800 -2.7273 -1.3683 -0.0795
   60MOL   H76045718   3.478   5.233   3.218 -0.5153 -2.0295  1.5881
   60MOL   H76145719   3.690   5.149   3.260  0.2655 -0.2934  0.0222
   60MOL   H76245720   3.168   5.279   3.035 -0.2206 -0.3467  1.2751
   61MOL     C145721   1.930   7.246   4.294 -0.0015  0.0145 -0.4893
   61MOL     C245722   1.878   7.213   4.154 -0.3178 -0.2820  0.9271
   61MOL     C345723   1.920   7.309   4.042  0.0161 -0.1809 -0.0524
   61MOL     C445724   1.859   7.285   3.904  0.2608 -0.2005  0.9588
   61MOL     C545725   1.874   7.448   4.092 -0.2851 -0.1696  0.3324
   61MOL     C645726   1.937   7.486   4.226 -1.3283 -0.1739 -0.0258
   61MOL     C745727   1.897   7.390   4.337 -0.2192  0.2460  0.5388
   61MOL     C845728   1.966   7.411   4.471 -0.1037  0.4214  0.1838
   61MOL     O945729   1.933   7.540   4.521  0.2394 -0.5134  0.3784
   61MOL    C1045730   1.950   7.551   4.652 -0.1827 -0.8840 -0.5282
   61MOL    O1145731   1.995   7.456   4.722 -0.3422 -0.2420 -0.4219
   61MOL    C1245732   1.895   7.669   4.721 -0.2286 -0.2887 -0.4270
   61MOL    C1345733   1.851   7.659   4.862  0.1993 -0.0784 -1.0777
   61MOL    C1445734   1.794   7.774   4.927  0.3484  0.2990  0.2520
   61MOL    C1545735   1.762   7.891   4.846  0.1233  0.2874 -0.1175
   61MOL    C1645736   1.702   8.016   4.911  0.1789 -0.7442  0.6940
   61MOL    O1745737   1.652   8.027   5.023 -0.5459 -0.1582 -0.1946
   61MOL    O1845738   1.720   0.089   4.827  0.3758  0.5414  0.6196
   61MOL    C1945739   1.792   7.898   4.707  0.5597 -0.1141 -0.9346
   61MOL    C2045740   1.855   7.786   4.651 -0.4227 -0.1344  0.0766
   61MOL    H2145741   2.035   7.220   4.303  0.3027  0.9050 -1.3286
   61MOL    H2245742   1.880   7.176   4.361 -0.0607  0.5161  0.0028
   61MOL    H2345743   1.769   7.213   4.153 -0.3162  0.2821 -1.1212
   61MOL    H2445744   1.899   7.108   4.134  2.4541  0.3756  0.0729
   61MOL    H2545745   2.029   7.305   4.036  0.1176  0.8504  1.0672
   61MOL    H2645746   1.753   7.262   3.907 -0.1156  1.0996 -0.9914
   61MOL    H2745747   1.916   7.206   3.854  1.6702  1.3181  0.1243
   61MOL    H2845748   1.765   7.451   4.093 -0.3081 -0.4267  3.2776
   61MOL    H2945749   1.908   7.526   4.023 -0.5875  0.2285  0.6297
   61MOL    H3045750   2.044   7.475   4.206 -1.2648  0.8057 -0.2588
   61MOL    H3145751   1.912   7.590   4.249 -1.5014 -0.0728 -0.6659
   61MOL    H3245752   1.789   7.405   4.345 -0.5173 -1.2777 -0.3849
   61MOL    H3345753   2.075   7.402   4.461 -0.3910 -2.9740 -0.4383
   61MOL    H3445754   1.934   7.333   4.539  1.1892  0.6670  1.1019
   61MOL    H3545755   1.876   7.574   4.923 -1.1737  0.3476  0.1029
   61MOL    H3645756   1.762   7.779   5.030 -0.2357 -0.8882  0.1350
   61MOL    H3745757   1.757   7.972   4.637 -0.5586 -0.2480 -0.5283
   61MOL    H3845758   1.851   7.794   4.544 -0.8588  1.8662  0.2273
   61MOL    H3945759   1.873   7.378   3.849  0.4927 -0.5701  0.3873
   61MOL    C4045760   1.414   0.357   4.654 -0.0065  0.7332  0.0474
   61MOL    C4145761   1.550   0.296   4.687  0.4686  0.6009  0.0604
   61MOL    C4245762   1.571   0.284   4.834 -0.0245 -0.1907 -0.0899
   61MOL    C4345763   1.705   0.227   4.868 -0.0554  0.7441 -0.1002
   61MOL    C4445764   1.546   0.424   4.902 -0.0007  0.4795  0.3163
   61MOL    C4545765   1.412   0.487   4.871  0.1844  0.3691  0.7949
   61MOL    C4645766   1.388   0.491   4.716 -0.3523 -0.0839  0.1293
   61MOL    C4745767   1.247   0.546   4.681  0.1086 -0.5995 -0.0214
   61MOL    O4845768   1.226   0.539   4.543 -0.3552 -0.0490  0.1788
   61MOL    C4945769   1.099   0.542   4.497  0.5235  0.1630  0.6789
   61MOL    O5045770   1.004   0.609   4.539  0.1498 -0.1340 -0.4300
   61MOL    C5145771   1.077   0.466   4.370  0.4636 -0.0333  0.0350
   61MOL    C5245772   0.946   0.434   4.329  0.2109  0.0092 -0.4700
   61MOL    C5345773   0.928   0.382   4.199 -0.0835  0.6232 -0.1144
   61MOL    C5445774   1.037   0.336   4.121  0.4689 -0.1950  0.0640
   61MOL    C5545775   1.028   0.275   3.982  0.5753 -0.2511  0.0254
   61MOL    O5645776   1.118   0.258   3.904  0.7452 -0.0859 -0.0328
   61MOL    O5745777   0.901   0.229   3.966  0.9122  0.8337  0.1468
   61MOL    C5845778   1.171   0.353   4.172 -0.7396  0.3729 -0.2168
   61MOL    C5945779   1.188   0.414   4.293  0.4325  0.3033 -0.9435
   61MOL    H6045780   1.336   0.290   4.690  0.5360  0.0396 -0.0525
   61MOL    H6145781   1.406   0.360   4.545 -0.0117 -2.2132 -0.0656
   61MOL    H6245782   1.630   0.364   4.656 -0.2409  1.8030  0.7849
   61MOL    H6345783   1.557   0.195   4.647 -1.1844 -0.6143  2.7177
   61MOL    H6445784   1.492   0.230   4.885  0.5098 -2.3118 -1.4555
   61MOL    H6545785   1.725   0.237   4.975 -0.8743  0.9855  0.0301
   61MOL    H6645786   1.784   0.275   4.809  0.5571 -0.2728 -0.1166
   61MOL    H6745787   1.629   0.493   4.914  1.2366 -0.3596 -2.9133
   61MOL    H6845788   1.533   0.399   5.008 -0.4974 -0.9161 -0.0664
   61MOL    H6945789   1.327   0.447   4.926  1.1514  0.3961  2.3284
   61MOL    H7045790   1.415   0.589   4.909 -0.9354  0.3205  1.0268
   61MOL    H7145791   1.466   0.553   4.671 -0.1197 -0.1713  0.4142
   61MOL    H7245792   1.247   0.652   4.707 -2.3256 -0.2320 -1.4119
   61MOL    H7345793   1.172   0.487   4.733 -1.7506  0.7569 -1.0824
   61MOL    H7445794   0.860   0.466   4.386  0.9733 -0.1856  0.8262
   61MOL    H7545795   0.828   0.367   4.161 -0.2874  0.7747  0.3546
   61MOL    H7645796   1.252   0.322   4.108  0.1190  0.1868  0.9379
   61MOL    H7745797   1.290   0.443   4.318  0.7985 -2.1427  0.5264
   61MOL    C7845798   0.480   0.154   3.877 -0.3466 -0.5224 -1.2477
   61MOL    C7945799   0.622   0.223   3.868 -0.2311 -0.4023  0.1520
   61MOL    C8045800   0.731   0.109   3.844  0.2000  0.4862  0.4250
   61MOL    C8145801   0.880   0.154   3.848  0.0679  0.5366  0.2079
   61MOL    C8245802   0.717   0.001   3.963 -0.1720 -0.3495  0.2057
   61MOL    C8345803   0.579   7.973   3.971 -0.6188  0.1311 -0.1031
   61MOL    C8445804   0.469   0.042   3.988  0.1686  0.1677 -0.2314
   61MOL    C8545805   0.334   8.000   3.988 -0.4401  0.2244  0.2559
   61MOL    O8645806   0.331   7.913   4.104  0.3669 -0.3759  0.2629
   61MOL    C8745807   0.283   7.973   4.218  0.0707  0.2972  0.2626
   61MOL    O8845808   0.242   0.051   4.232 -0.0515  0.2906  0.2166
   61MOL    C8945809   0.296   7.888   4.341  0.1687  0.6123 -0.1475
   61MOL    C9045810   0.283   7.955   4.462  0.0824  0.1370  0.0698
   61MOL    C9145811   0.299   7.874   4.582 -0.3777  0.1434  0.1118
   61MOL    C9245812   0.330   7.733   4.577 -0.6376 -0.0577  0.4583
   61MOL    C9345813   0.346   7.650   4.700  0.4555  1.0367  0.4074
   61MOL    O9445814   0.341   7.528   4.693 -0.2881  0.4455 -0.1170
   61MOL    O9545815   0.360   7.718   4.807  0.0091 -0.7978  0.2369
   61MOL    C9645816   0.347   7.678   4.452  0.1460 -0.6379 -0.6138
   61MOL    C9745817   0.322   7.750   4.337 -0.1108  0.1945  0.1072
   61MOL    H9845818   0.447   0.101   3.787 -2.3240 -0.1606 -0.7574
   61MOL    H9945819   0.402   0.228   3.892  0.6591  0.6006 -1.4859
   61MOL   H10045820   0.645   0.278   3.959  1.8535 -1.3056  0.1955
   61MOL   H10145821   0.631   0.291   3.783 -0.9828 -0.5612 -0.0538
   61MOL   H10245822   0.722   0.064   3.746 -2.3002  1.1439  0.3258
   61MOL   H10345823   0.916   0.212   3.763  3.6910  2.5077  2.9012
   61MOL   H10445824   0.953   0.073   3.852 -0.7526 -0.2641 -1.0315
   61MOL   H10545825   0.738   0.060   4.052  0.5479  2.1327 -1.5377
   61MOL   H10645826   0.788   7.952   3.945  0.5149  0.6702 -1.7911
   61MOL   H10745827   0.556   7.927   3.875 -0.5911  3.3656 -1.7409
   61MOL   H10845828   0.573   7.898   4.050 -4.2266  0.4540  0.0481
   61MOL   H10945829   0.476   0.099   4.081 -1.3551  2.7085 -1.6459
   61MOL   H11045830   0.321   7.926   3.909 -1.3066  2.0174 -1.3202
   61MOL   H11145831   0.247   0.033   3.971 -1.5792 -1.6999 -1.5437
   61MOL   H11245832   0.250   0.025   4.475  0.3495  0.3072 -0.5661
   61MOL   H11345833   0.280   7.924   4.676  0.2201 -2.4819  1.6791
   61MOL   H11445834   0.385   7.578   4.438  2.1966 -0.0989  0.9890
   61MOL   H11545835   0.337   7.700   4.243  1.6767 -0.3445  0.6720
   61MOL   C11645836   0.311   7.874   5.260 -0.4125 -0.1208  0.1793
   61MOL   C11745837   0.315   7.750   5.177  0.2727  0.2803 -0.3386
   61MOL   C11845838   0.295   7.791   5.023 -0.3408  0.2550 -0.1674
   61MOL   C11945839   0.315   7.672   4.927  1.0536  0.4980 -0.0284
   61MOL   C12045840   0.160   7.861   5.001 -0.3986 -0.3967  0.3710
   61MOL   C12145841   0.151   7.985   5.099  0.1510 -0.1919 -0.0789
   61MOL   C12245842   0.177   7.953   5.245 -0.1257  1.4997  0.8262
   61MOL   C12345843   0.160   0.050   5.323 -0.2576 -0.6649  0.4835
   61MOL   O12445844   0.276   0.135   5.327 -0.6086  0.0354  0.3285
   61MOL   C12545845   0.369   0.117   5.422  0.3202  0.4158 -0.3938
   61MOL   O12645846   0.362   0.022   5.507  0.3423 -0.2014 -0.2083
   61MOL   C12745847   0.481   0.218   5.416  0.3073  0.2765 -0.8690
   61MOL   C12845848   0.467   0.333   5.335 -0.0544 -0.1939  0.3761
   61MOL   C12945849   0.569   0.425   5.316  0.4996 -0.1591  0.7925
   61MOL   C13045850   0.692   0.402   5.388  0.1187 -0.4573  0.1933
   61MOL   C13145851   0.794   0.505   5.392 -0.0079 -0.3329 -0.5398
   61MOL   O13245852   0.909   0.485   5.431 -0.3816 -0.5682  0.6606
   61MOL   O13345853   0.753   0.624   5.337 -0.2544  0.4555  0.4959
   61MOL   C13445854   0.706   0.294   5.473  0.4837 -0.0577 -0.1252
   61MOL   C13545855   0.603   0.195   5.479  0.0812 -0.3308  0.1398
   61MOL   H13645856   0.393   7.937   5.224 -1.1693 -0.4956 -2.3552
   61MOL   H13745857   0.332   7.849   5.363  0.2084  2.7111  0.8057
   61MOL   H13845858   0.246   7.675   5.215  1.3420 -0.0273  1.0209
   61MOL   H13945859   0.416   7.709   5.178 -0.2411 -0.9978  0.3473
   61MOL   H14045860   0.367   7.870   5.002 -0.5126  0.6545  0.7400
   61MOL   H14145861   0.226   7.610   4.939  2.0409 -0.4641  2.6700
   61MOL   H14245862   0.390   7.610   4.975  1.8343  1.9396  0.6206
   61MOL   H14345863   0.078   7.796   5.030  0.0737  0.2721  3.3629
   61MOL   H14445864   0.149   7.891   4.897  2.0579 -1.5020 -0.2530
   61MOL   H14545865   0.238   0.016   5.077  0.0673  0.2428  0.8295
   61MOL   H14645866   0.062   0.015   5.088  0.3173 -0.3198 -2.4668
   61MOL   H14745867   0.097   7.891   5.287 -0.3621  0.5479 -1.0039
   61MOL   H14845868   0.137   0.027   5.428 -0.9097 -0.1143  0.4634
   61MOL   H14945869   0.076   0.108   5.286 -0.1707 -1.4881 -1.0222
   61MOL   H15045870   0.367   0.358   5.300 -0.0382 -3.1467 -1.9552
   61MOL   H15145871   0.559   0.512   5.253  1.8703 -1.2763 -0.9967
   61MOL   H15245872   0.793   0.260   5.527 -2.7913 -3.5801  3.2565
   61MOL   H15345873   0.619   0.104   5.534  1.2342 -0.6789 -0.7672
   61MOL   C15445874   0.631   1.024   5.233  0.6869 -0.5184  0.0003
   61MOL   C15545875   0.690   0.890   5.227  0.4442 -0.3496 -0.0723
   61MOL   C15645876   0.780   0.866   5.348 -0.4305  0.3790 -0.3651
   61MOL   C15745877   0.847   0.727   5.339 -0.4283  0.1218 -0.1579
   61MOL   C15845878   0.890   0.975   5.375  0.1019  0.0512 -0.0476
   61MOL   C15945879   0.828   1.115   5.363 -0.2792 -0.2674  0.1124
   61MOL   C16045880   0.739   1.138   5.244 -0.3676  0.4623 -0.5161
   61MOL   C16145881   0.686   1.284   5.251  0.5032  0.6604 -0.4783
   61MOL   O16245882   0.590   1.311   5.152  0.6135 -0.5658  0.2276
   61MOL   C16345883   0.457   1.317   5.185 -0.4970 -0.3908 -0.4108
   61MOL   O16445884   0.407   1.309   5.295  0.4245 -0.3334 -0.0113
   61MOL   C16545885   0.372   1.324   5.065 -0.0353 -0.4730 -0.1381
   61MOL   C16645886   0.238   1.357   5.075 -0.2786 -0.3435  0.3713
   61MOL   C16745887   0.160   1.378   4.962  0.4191 -0.5000  0.7854
   61MOL   C16845888   0.211   1.363   4.836 -0.3488  0.4034  0.4235
   61MOL   C16945889   0.125   1.374   4.718 -0.5595 -0.9757  0.1902
   61MOL   O17045890   0.167   1.352   4.601  0.0832 -0.1661  0.4792
   61MOL   O17145891   8.031   1.408   4.743  0.8491 -0.1640  0.7739
   61MOL   C17245892   0.347   1.322   4.819  0.5618  0.1859  0.1505
   61MOL   C17345893   0.422   1.302   4.934 -0.1996 -0.5907 -0.4944
   61MOL   H17445894   0.556   1.031   5.311  0.1937  0.8608 -0.5792
   61MOL   H17545895   0.581   1.033   5.136  2.5165 -0.6365 -0.9841
   61MOL   H17645896   0.756   0.888   5.139  0.7157  1.5474  0.0682
   61MOL   H17745897   0.620   0.813   5.195  1.1887  0.3096 -3.4921
   61MOL   H17845898   0.712   0.843   5.430  2.2905 -1.0666  1.5752
   61MOL   H17945899   0.920   0.726   5.420 -0.9324 -1.8872  0.2938
   61MOL   H18045900   0.903   0.723   5.246  0.8599  1.8600  0.5004
   61MOL   H18145901   0.966   0.959   5.298 -0.3104 -0.5267 -0.3301
   61MOL   H18245902   0.941   0.970   5.472 -0.2130 -1.4730  0.0542
   61MOL   H18345903   0.763   1.109   5.451 -0.7516  0.0360 -0.2130
   61MOL   H18445904   0.898   1.198   5.378 -0.5928 -0.1855  1.1715
   61MOL   H18545905   0.789   1.126   5.148 -0.9737 -2.9312 -0.4821
   61MOL   H18645906   0.762   1.361   5.246  2.2626 -0.7767  2.4293
   61MOL   H18745907   0.647   1.305   5.351 -1.0003 -1.3751 -0.6034
   61MOL   H18845908   0.183   1.386   5.163 -2.6933  1.6852 -1.7455
   61MOL   H18945909   0.060   1.415   4.982  0.4629  0.2983 -0.4492
   61MOL   H19045910   0.384   1.312   4.718  1.2376 -0.6970  0.4762
   61MOL   H19145911   0.525   1.273   4.917 -0.2097 -0.8465 -0.1194
   61MOL   C19245912   7.627   1.176   4.706 -0.3518  0.5330 -0.1310
   61MOL   C19345913   7.727   1.283   4.749 -0.3459  0.8462  0.4140
   61MOL   C19445914   7.833   1.299   4.637  0.1192  0.1755 -0.5047
   61MOL   C19545915   7.928   1.416   4.646 -0.0057 -0.0626 -0.5971
   61MOL   C19645916   7.905   1.161   4.621  0.3124 -0.4891 -0.2049
   61MOL   C19745917   7.805   1.045   4.591  0.4720 -1.0734 -0.4081
   61MOL   C19845918   7.695   1.041   4.694  0.3919 -0.1825 -0.0735
   61MOL   C19945919   7.616   0.913   4.662 -0.2814  0.0696 -0.9629
   61MOL   O20045920   7.670   0.782   4.696 -0.1037 -0.0058  0.8013
   61MOL   C20145921   7.610   0.675   4.644 -0.0759 -1.0693  0.1042
   61MOL   O20245922   7.527   0.682   4.552 -0.0649  0.1220 -0.0545
   61MOL   C20345923   7.650   0.554   4.717  0.9076 -0.6694 -0.3770
   61MOL   C20445924   7.572   0.439   4.701 -0.3668 -0.1960  0.5381
   61MOL   C20545925   7.611   0.326   4.773  0.7229  0.6241  0.4971
   61MOL   C20645926   7.727   0.323   4.856 -0.3242 -0.0570  0.8088
   61MOL   C20745927   7.766   0.207   4.943 -0.1719 -0.9425  0.2188
   61MOL   O20845928   7.853   0.212   5.027 -0.1139  0.1311  0.4253
   61MOL   O20945929   7.698   0.093   4.907 -0.5149  0.7209  0.2757
   61MOL   C21045930   7.793   0.448   4.875  0.1927 -0.2172 -0.1475
   61MOL   C21145931   7.756   0.569   4.806 -0.1895  0.1105 -0.4323
   61MOL   H21245932   7.579   1.197   4.610  0.1459  0.7382 -0.3340
   61MOL   H21345933   7.548   1.175   4.782  1.2442  0.6458  1.5728
   61MOL   H21445934   7.782   1.262   4.840  0.8243 -2.3228 -0.9528
   61MOL   H21545935   7.672   1.377   4.755 -1.0553  0.4919 -0.3987
   61MOL   H21645936   7.773   1.308   4.547  0.4783  0.5570 -0.7120
   61MOL   H21745937   7.875   1.510   4.657  1.7009  1.0781 -1.7521
   61MOL   H21845938   7.973   1.434   4.548  0.7983  3.2234  0.3325
   61MOL   H21945939   7.962   1.122   4.705 -1.0411  0.0250  0.9731
   61MOL   H22045940   7.982   1.170   4.545  0.9683 -0.3237  0.4760
   61MOL   H22145941   7.764   1.066   4.492  0.9796 -0.3271 -0.4613
   61MOL   H22245942   7.859   0.951   4.578  0.0013 -1.1524 -1.9749
   61MOL   H22345943   7.735   1.023   4.794 -0.7323  0.1030  0.4289
   61MOL   H22445944   7.575   0.915   4.561 -0.8511  1.1843 -0.7223
   61MOL   H22545945   7.522   0.929   4.716 -2.9252 -0.2866 -5.2289
   61MOL   H22645946   7.497   0.434   4.623 -0.5613  0.8584  0.6549
   61MOL   H22745947   7.558   0.235   4.750  1.5098  0.1939  0.3550
   61MOL   H22845948   7.885   0.455   4.932 -0.0350  2.2011 -0.0209
   61MOL   H22945949   7.810   0.662   4.818 -0.9219  0.5106 -0.2421
   61MOL   C23045950   7.408   7.894   5.121 -0.0724  0.3613 -1.1022
   61MOL   C23145951   7.530   7.975   5.082  0.1011 -0.5474  0.2862
   61MOL   C23245952   7.623   7.906   4.980 -0.0061  0.3504 -0.8440
   61MOL   C23345953   7.741   7.998   4.948  0.3213 -0.4993 -0.3062
   61MOL   C23445954   7.657   7.759   5.030  0.3674  0.0511  0.2815
   61MOL   C23545955   7.528   7.682   5.070 -0.3705 -0.2322  0.1756
   61MOL   C23645956   7.450   7.753   5.177  0.1742  0.2336  0.3252
   61MOL   C23745957   7.333   7.664   5.221 -0.0754 -0.5963 -0.6998
   61MOL   O23845958   7.239   7.647   5.115  0.4916 -0.1158 -0.5085
   61MOL   C23945959   7.136   7.564   5.114  0.6413  0.6803  1.0861
   61MOL   O24045960   7.092   7.513   5.219  0.2010  0.5772  0.8771
   61MOL   C24145961   7.080   7.538   4.979 -1.3416 -0.0453 -0.2783
   61MOL   C24245962   7.148   7.580   4.864  0.1080  0.0325  0.1923
   61MOL   C24345963   7.097   7.542   4.737  0.6808 -0.2841 -0.1715
   61MOL   C24445964   6.982   7.462   4.728  0.4436 -0.2516 -0.0119
   61MOL   C24545965   6.924   7.433   4.600  0.2157  0.2054 -0.6482
   61MOL   O24645966   6.847   7.340   4.572  0.3931  0.5960  0.3493
   61MOL   O24745967   6.945   7.531   4.509  0.4797  0.0832 -0.1185
   61MOL   C24845968   6.919   7.413   4.841  0.1879 -0.4374  0.1228
   61MOL   C24945969   6.970   7.457   4.972  0.6630  0.1550  0.2336
   61MOL   H25045970   7.335   7.881   5.040 -1.3871 -0.4902  0.1845
   61MOL   H25145971   7.344   7.937   5.198 -1.3746 -3.3754  0.0262
   61MOL   H25245972   7.582   8.005   5.173  0.9743 -2.0894  0.3163
   61MOL   H25345973   7.514   0.043   5.041 -0.5833 -0.9956 -0.5696
   61MOL   H25445974   7.562   7.889   4.892  0.3710 -0.0239 -1.0359
   61MOL   H25545975   7.798   7.965   4.861  0.7741  1.7613 -0.9064
   61MOL   H25645976   7.796   8.004   5.042  1.0794  2.3925 -0.8807
   61MOL   H25745977   7.725   7.754   5.115 -0.3173  0.5742  0.8623
   61MOL   H25845978   7.714   7.704   4.955  1.4772 -0.4193  1.4637
   61MOL   H25945979   7.466   7.657   4.984 -1.0779 -1.7890  1.1191
   61MOL   H26045980   7.559   7.582   5.101 -0.1512 -0.1650  0.1746
   61MOL   H26145981   7.510   7.770   5.266 -1.3868 -1.4423  1.7295
   61MOL   H26245982   7.283   7.719   5.302  2.3542  0.5982  0.0433
   61MOL   H26345983   7.371   7.568   5.257  0.3135  0.4994  1.9286
   61MOL   H26445984   7.242   7.634   4.866  0.6839 -0.9137 -0.8450
   61MOL   H26545985   7.150   7.582   4.651 -1.2390 -0.7823 -1.6200
   61MOL   H26645986   6.833   7.347   4.843  0.4078 -0.7012  0.9685
   61MOL   H26745987   6.926   7.424   5.064  0.5212 -1.1778 -0.3053
   61MOL   C26845988   6.919   7.895   4.269  0.4896  0.0911  0.9610
   61MOL   C26945989   6.958   7.774   4.350 -0.3270 -0.3586  0.1037
   61MOL   C27045990   6.849   7.668   4.332 -0.0737  1.0183  0.2605
   61MOL   C27145991   6.887   7.528   4.377  0.1447  0.3370  0.5016
   61MOL   C27245992   6.709   7.714   4.379  0.0163 -0.3398  0.7489
   61MOL   C27345993   6.667   7.846   4.306 -0.4317 -0.2440 -0.0759
   61MOL   C27445994   6.785   7.950   4.313 -0.2154  0.7136 -0.6193
   61MOL   C27545995   6.747   0.051   4.234 -0.7871  0.5936 -0.3502
   61MOL   O27645996   6.618   0.091   4.250  0.3328  0.2208 -0.2840
   61MOL   C27745997   6.583   0.216   4.222  0.0172 -0.2229 -0.1088
   61MOL   O27845998   6.665   0.306   4.216  0.6586 -0.4350 -0.4645
   61MOL   C27945999   6.440   0.238   4.198 -0.2574 -0.4194 -0.3116
   61MOL   C28046000   6.394   0.360   4.146 -0.2564 -0.2424  0.3695
   61MOL   C28146001   6.258   0.386   4.129  0.0557  0.5238 -0.1364
   61MOL   C28246002   6.163   0.287   4.172  0.1616  0.1516 -0.7916
   61MOL   C28346003   6.013   0.307   4.159  0.2840 -0.2199  0.3191
   61MOL   O28446004   5.934   0.222   4.189  0.5626  0.2994  0.5706
   61MOL   O28546005   5.973   0.438   4.135 -0.2915 -0.2386 -0.6520
   61MOL   C28646006   6.215   0.168   4.217 -0.6341 -0.0751 -0.3266
   61MOL   C28746007   6.349   0.141   4.227  0.4556  0.3204  0.1836
   61MOL   H28846008   6.925   7.875   4.161  1.2433 -1.5278  1.2796
   61MOL   H28946009   7.004   7.964   4.272  0.4425  0.3656 -2.2175
   61MOL   H29046010   6.967   7.795   4.456 -1.0048 -0.4832  0.1903
   61MOL   H29146011   7.059   7.747   4.319 -1.4057 -0.1548 -3.9664
   61MOL   H29246012   6.825   7.656   4.227  0.5467 -0.6013  0.2876
   61MOL   H29346013   6.948   7.471   4.307 -0.2342 -0.4370  0.7920
   61MOL   H29446014   6.792   7.476   4.390  0.0578 -0.5259 -3.2726
   61MOL   H29546015   6.712   7.731   4.487 -0.2920  2.0257  0.4075
   61MOL   H29646016   6.638   7.636   4.350 -1.9154  0.8295  2.2086
   61MOL   H29746017   6.650   7.829   4.200  0.0321 -0.6300 -0.0897
   61MOL   H29846018   6.578   7.883   4.358 -0.3273 -0.1598  0.0417
   61MOL   H29946019   6.793   7.977   4.418 -0.1909  0.2892 -0.5114
   61MOL   H30046020   6.760   0.034   4.127 -0.5726  0.1546 -0.2535
   61MOL   H30146021   6.820   0.130   4.255  1.5206 -1.3931 -0.6171
   61MOL   H30246022   6.478   0.412   4.102 -0.1268 -3.1309 -3.0430
   61MOL   H30346023   6.219   0.479   4.089 -1.4676  1.1151  2.5586
   61MOL   H30446024   6.148   0.086   4.240  0.5566 -0.4641  1.8620
   61MOL   H30546025   6.386   0.044   4.260  2.8748  0.7277 -1.1701
   61MOL   C30646026   5.565   0.729   4.075 -0.1541 -0.3982 -0.6618
   61MOL   C30746027   5.663   0.649   4.165 -0.8300  0.1837 -0.1684
   61MOL   C30846028   5.773   0.576   4.083  0.4047  0.3355 -0.3848
   61MOL   C30946029   5.850   0.486   4.183  0.0544 -0.0999 -0.3902
   61MOL   C31046030   5.715   0.494   3.966 -0.1333  0.3989  0.0383
   61MOL   C31146031   5.618   0.580   3.876  0.0258 -0.2433 -0.2722
   61MOL   C31246032   5.505   0.645   3.962  0.7179 -0.0328 -0.1264
   61MOL   C31346033   5.393   0.729   3.894 -1.0711  0.8778  0.2398
   61MOL   O31446034   5.319   0.641   3.805  0.4748 -0.0915 -0.0475
   61MOL   C31546035   5.188   0.648   3.803 -0.3099  0.1405 -0.0373
   61MOL   O31646036   5.121   0.702   3.895  0.9023  0.1255  0.4808
   61MOL   C31746037   5.125   0.592   3.677 -0.4669 -0.2410  0.3633
   61MOL   C31846038   5.185   0.485   3.609 -0.1684 -0.2114  0.2365
   61MOL   C31946039   5.136   0.431   3.490  0.1956  0.1572 -1.3389
   61MOL   C32046040   5.021   0.493   3.430 -0.3302  0.4061 -0.2170
   61MOL   C32146041   4.964   0.443   3.300 -0.6250  0.7232  0.3110
   61MOL   O32246042   5.016   0.353   3.233 -0.0781  0.2572 -0.6245
   61MOL   O32346043   4.849   0.501   3.260  0.0321  0.0329  0.0830
   61MOL   C32446044   4.963   0.603   3.496 -0.2173 -0.7847 -0.1760
   61MOL   C32546045   5.007   0.651   3.621 -0.6303 -0.0353 -0.0075
   61MOL   H32646046   5.621   0.819   4.049 -0.3503 -0.1648 -0.2688
   61MOL   H32746047   5.486   0.755   4.146  0.1523 -1.5439  0.1241
   61MOL   H32846048   5.611   0.574   4.225  0.6234 -0.5715  0.1673
   61MOL   H32946049   5.719   0.708   4.239 -1.2205 -0.5976  0.7567
   61MOL   H33046050   5.844   0.648   4.043  2.1378 -1.5474 -0.7714
   61MOL   H33146051   5.786   0.406   4.219 -0.2225  0.5932  0.6628
   61MOL   H33246052   5.867   0.539   4.277  2.2668 -0.4906 -0.5461
   61MOL   H33346053   5.663   0.401   3.990  0.8264 -0.1459  0.0491
   61MOL   H33446054   5.796   0.461   3.901 -1.6072  0.8164 -2.0704
   61MOL   H33546055   5.684   0.650   3.825  0.9228  0.4449  1.7658
   61MOL   H33646056   5.571   0.507   3.810  0.4429  0.5589 -1.4650
   61MOL   H33746057   5.454   0.557   4.001 -0.6217  0.9399  0.3532
   61MOL   H33846058   5.437   0.815   3.843  1.1290 -0.2379  0.2277
   61MOL   H33946059   5.338   0.764   3.981  0.5986  1.4568  1.0693
   61MOL   H34046060   5.284   0.455   3.640  0.9052  0.9275 -1.9842
   61MOL   H34146061   5.187   0.352   3.437 -1.7516  0.0698 -3.0836
   61MOL   H34246062   4.874   0.641   3.448 -0.9810 -2.9839 -0.5464
   61MOL   H34346063   4.955   0.733   3.668 -0.8234 -1.0676  1.6315
   61MOL   C34446064   4.704   0.747   2.868  0.3552 -0.5055 -0.0199
   61MOL   C34546065   4.705   0.615   2.941 -0.3243  0.5344  0.9741
   61MOL   C34646066   4.793   0.617   3.071  0.1090 -0.2606  0.3042
   61MOL   C34746067   4.801   0.479   3.129 -0.0928  0.4199 -0.1353
   61MOL   C34846068   4.935   0.670   3.028 -0.4763  0.3911 -0.0564
   61MOL   C34946069   4.942   0.803   2.944  0.2407  0.0199  0.6859
   61MOL   C35046070   4.843   0.791   2.821  0.2776  0.6307 -0.0245
   61MOL   C35146071   4.836   0.918   2.735  0.0342  0.3734  0.4974
   61MOL   O35246072   4.960   0.989   2.734 -0.6044 -0.3551  0.0333
   61MOL   C35346073   5.052   0.969   2.638 -0.0426 -0.5825 -0.3426
   61MOL   O35446074   5.034   0.890   2.545 -0.5795 -0.6268 -0.0377
   61MOL   C35546075   5.160   1.070   2.650  0.8488  0.3107 -0.1177
   61MOL   C35646076   5.234   1.103   2.534 -0.1455 -0.1273  0.0017
   61MOL   C35746077   5.352   1.179   2.551  0.7841 -0.6414  0.1655
   61MOL   C35846078   5.393   1.227   2.679  0.1923  0.1025 -0.1105
   61MOL   C35946079   5.511   1.315   2.686  0.6044 -0.3638  0.2398
   61MOL   O36046080   5.540   1.387   2.588  0.1703  0.0705  0.1552
   61MOL   O36146081   5.570   1.312   2.807 -0.4913  0.2008  0.4714
   61MOL   C36246082   5.325   1.185   2.790 -0.4252  0.3657  0.7482
   61MOL   C36346083   5.207   1.110   2.779  0.6721  0.5059 -0.2843
   61MOL   H36446084   4.671   0.827   2.935  2.5881 -1.0684  1.7900
   61MOL   H36546085   4.621   0.751   2.796  0.1469  1.1037  0.2708
   61MOL   H36646086   4.736   0.535   2.874 -0.3731  1.3333 -0.0131
   61MOL   H36746087   4.603   0.594   2.972 -0.8692 -1.1713 -1.7463
   61MOL   H36846088   4.742   0.694   3.131  1.0347  0.2001  0.5027
   61MOL   H36946089   4.856   0.408   3.067 -0.0950 -0.8390  1.2754
   61MOL   H37046090   4.700   0.438   3.138 -0.3659  1.0880 -0.1551
   61MOL   H37146091   4.983   0.587   2.976 -0.2926 -0.1345  0.9369
   61MOL   H37246092   4.988   0.684   3.122 -1.3856 -2.5420  0.9342
   61MOL   H37346093   4.904   0.887   3.002  0.9860  1.9291 -1.4856
   61MOL   H37446094   5.045   0.819   2.914  0.5202 -0.3404  1.4567
   61MOL   H37546095   4.882   0.717   2.751 -1.0977  0.1539 -0.2920
   61MOL   H37646096   4.760   0.991   2.764 -1.2745 -0.8134  0.1557
   61MOL   H37746097   4.803   0.893   2.634  0.9709 -0.8394  0.4756
   61MOL   H37846098   5.201   1.071   2.436  0.1058  0.4942 -0.2899
   61MOL   H37946099   5.399   1.219   2.462  1.2544  0.9057  1.0993
   61MOL   H38046100   5.359   1.206   2.890 -3.3747 -2.1368  2.3617
   61MOL   H38146101   5.158   1.080   2.870 -0.1006  1.1046 -0.5001
   61MOL   C38246102   5.702   1.344   3.222  0.0748  0.0110  0.3807
   61MOL   C38346103   5.645   1.353   3.081 -0.1578  0.6212  0.6457
   61MOL   C38446104   5.749   1.355   2.968  0.4090 -0.9569 -0.1061
   61MOL   C38546105   5.678   1.401   2.838  0.9068  0.4114 -0.3117
   61MOL   C38646106   5.869   1.452   2.998 -0.2567 -0.0969 -0.1299
   61MOL   C38746107   5.917   1.450   3.144 -0.3191  0.4658 -0.0031
   61MOL   C38846108   5.800   1.462   3.246  0.7794  0.2381  0.6171
   61MOL   C38946109   5.862   1.472   3.394  1.0719  0.3059  0.1961
   61MOL   O39046110   5.947   1.583   3.395 -0.0029 -0.1369  0.1113
   61MOL   C39146111   6.001   1.627   3.504  0.4346 -0.0326  1.0372
   61MOL   O39246112   5.996   1.557   3.606 -0.1739 -0.5844 -0.0857
   61MOL   C39346113   6.084   1.746   3.478 -1.0331  0.0013 -0.5413
   61MOL   C39446114   6.125   1.827   3.590 -0.2317  0.8677  0.3363
   61MOL   C39546115   6.205   1.944   3.569  0.0523  0.3935  0.0569
   61MOL   C39646116   6.241   1.980   3.437 -0.1288  0.1339 -0.0195
   61MOL   C39746117   6.327   2.101   3.415  0.0933  0.2232 -0.1155
   61MOL   O39846118   6.343   2.194   3.498  0.2295 -0.1277 -0.0320
   61MOL   O39946119   6.400   2.083   3.301  0.7709 -0.2814 -0.4351
   61MOL   C40046120   6.182   1.911   3.328  0.1707  0.0673 -0.0868
   61MOL   C40146121   6.108   1.794   3.349 -0.1352  0.5196  0.1471
   61MOL   H40246122   5.749   1.247   3.231 -0.6134 -0.2572  1.1068
   61MOL   H40346123   5.623   1.348   3.297  0.5708  1.3091  0.8655
   61MOL   H40446124   5.594   1.450   3.080 -1.8807 -0.2446  2.0968
   61MOL   H40546125   5.562   1.285   3.065  0.5932 -0.0903 -0.2465
   61MOL   H40646126   5.788   1.254   2.959 -2.1272 -2.0491  0.7308
   61MOL   H40746127   5.749   1.389   2.756  0.7617 -2.0239 -0.1108
   61MOL   H40846128   5.651   1.507   2.837  0.4824  0.3164  0.6810
   61MOL   H40946129   5.848   1.559   2.993  2.0390  0.2996 -1.6987
   61MOL   H41046130   5.946   1.430   2.924  2.0576 -0.8317  2.4051
   61MOL   H41146131   5.977   1.360   3.158  1.7325  1.7530 -0.3319
   61MOL   H41246132   5.990   1.531   3.145  0.3917 -0.1920  1.3804
   61MOL   H41346133   5.744   1.553   3.226  1.2695  0.3074 -0.5263
   61MOL   H41446134   5.919   1.387   3.431 -0.4653 -0.8519 -0.0874
   61MOL   H41546135   5.787   1.471   3.473 -2.0624  0.2931 -2.7186
   61MOL   H41646136   6.108   1.805   3.695 -1.5636  1.1262  0.1829
   61MOL   H41746137   6.246   2.007   3.646  1.8104 -0.4016 -0.2056
   61MOL   H41846138   6.198   1.954   3.230 -1.8822  1.4742  0.1631
   61MOL   H41946139   6.064   1.741   3.266 -1.5532  2.2459 -0.2411
   61MOL   C42046140   6.316   2.350   2.959 -0.3175  0.2833  0.5744
   61MOL   C42146141   6.361   2.236   3.054  0.5627  0.2852  0.0375
   61MOL   C42246142   6.442   2.290   3.171  0.4993  0.2032 -0.2071
   61MOL   C42346143   6.496   2.180   3.256  0.2265 -0.5011  0.6709
   61MOL   C42446144   6.556   2.382   3.118 -0.3482  0.3477  0.1043
   61MOL   C42546145   6.504   2.491   3.021  0.2977 -0.1545 -0.2125
   61MOL   C42646146   6.435   2.430   2.902  0.2269 -0.0144 -0.1584
   61MOL   C42746147   6.402   2.526   2.785  0.5731 -0.3683  0.2560
   61MOL   O42846148   6.317   2.462   2.686 -0.1849 -0.2570 -0.3349
   61MOL   C42946149   6.357   2.357   2.617 -0.3790  0.0085 -0.1349
   61MOL   O43046150   6.472   2.325   2.598  0.1678  0.4206  0.1040
   61MOL   C43146151   6.243   2.276   2.567 -0.0668 -0.6709  0.6918
   61MOL   C43246152   6.115   2.331   2.581  0.3436 -0.4369  0.4205
   61MOL   C43346153   6.001   2.256   2.548  0.0361  0.1304  0.1640
   61MOL   C43446154   6.012   2.124   2.500  0.6328 -0.0291 -0.9310
   61MOL   C43546155   5.886   2.039   2.470 -0.0413  0.2619  0.5009
   61MOL   O43646156   5.773   2.084   2.468  0.1997  0.7451  0.0670
   61MOL   O43746157   5.913   1.912   2.431 -0.4395 -0.1343 -0.1234
   61MOL   C43846158   6.138   2.069   2.483  0.2496  0.0702 -0.5695
   61MOL   C43946159   6.256   2.146   2.514 -0.5981 -0.8065 -0.7923
   61MOL   H44046160   6.239   2.417   2.997 -0.9441  0.1498 -0.4343
   61MOL   H44146161   6.277   2.300   2.870 -0.7454  1.0449  0.3281
   61MOL   H44246162   6.421   2.164   2.998  0.6163 -1.4606  2.2319
   61MOL   H44346163   6.277   2.185   3.102 -1.2645 -0.1308 -3.4475
   61MOL   H44446164   6.376   2.352   3.231  0.5947 -0.7531  0.9068
   61MOL   H44546165   6.551   2.217   3.342 -0.1285  0.4911  0.4872
   61MOL   H44646166   6.565   2.118   3.199  0.1761  1.9557 -2.2032
   61MOL   H44746167   6.619   2.315   3.059 -0.2308 -0.2955  0.9488
   61MOL   H44846168   6.614   2.439   3.190  0.9476 -3.2466  2.0269
   61MOL   H44946169   6.445   2.564   3.077  0.6287 -1.2209  1.5643
   61MOL   H45046170   6.591   2.547   2.987  0.2852 -0.4137 -0.6656
   61MOL   H45146171   6.504   2.357   2.859 -1.1770  0.4649 -3.3466
   61MOL   H45246172   6.495   2.560   2.739  1.4627 -1.5912  1.0937
   61MOL   H45346173   6.347   2.610   2.826  1.2023 -0.7131  1.8428
   61MOL   H45446174   6.097   2.431   2.617 -0.3365 -0.4088  0.0221
   61MOL   H45546175   5.904   2.303   2.556  0.8103  1.9187 -0.7615
   61MOL   H45646176   6.154   1.966   2.453 -0.7066 -0.1988 -0.1847
   61MOL   H45746177   6.353   2.105   2.493 -0.7247 -1.5907  0.1268
   61MOL   C45846178   5.845   1.433   2.355  0.8053 -0.6222 -0.3688
   61MOL   C45946179   5.785   1.581   2.345 -0.0706  0.2775 -0.4277
   61MOL   C46046180   5.869   1.686   2.416  0.0408 -0.4490  0.7179
   61MOL   C46146181   5.809   1.823   2.394  0.2986 -0.6560  0.6130
   61MOL   C46246182   5.892   1.637   2.565 -0.0894  0.1527  0.3771
   61MOL   C46346183   5.969   1.503   2.571 -0.0600  0.9524  0.4908
   61MOL   C46446184   5.882   1.396   2.501 -0.3166  0.0643  0.5503
   61MOL   C46546185   5.930   1.246   2.514 -0.8855 -0.5260 -0.0471
   61MOL   O46646186   5.826   1.157   2.475 -0.0928  0.5707 -0.6581
   61MOL   C46746187   5.761   1.083   2.575 -0.3570 -0.3937 -0.5563
   61MOL   O46846188   5.784   1.088   2.694  0.1885 -0.4097 -0.0244
   61MOL   C46946189   5.667   0.990   2.517  0.3854 -0.0346  0.1436
   61MOL   C47046190   5.642   0.990   2.375  0.1660 -0.3052  0.0327
   61MOL   C47146191   5.562   0.890   2.320 -0.0554  0.4911 -0.1404
   61MOL   C47246192   5.519   0.787   2.403  0.5199  0.7159 -0.1241
   61MOL   C47346193   5.454   0.669   2.340  0.2500 -0.1825  0.4639
   61MOL   O47446194   5.451   0.655   2.218  0.5130 -0.4109 -0.0252
   61MOL   O47546195   5.401   0.586   2.437  0.2441  0.5755 -0.2944
   61MOL   C47646196   5.533   0.794   2.544 -0.0337  0.0423 -0.4233
   61MOL   C47746197   5.607   0.894   2.601 -0.3191  0.2134  0.8006
   61MOL   H47846198   5.937   1.437   2.297  1.4664  2.4227  0.8205
   61MOL   H47946199   5.784   1.359   2.303 -1.7711 -0.8526  2.8476
   61MOL   H48046200   5.688   1.584   2.394  0.2724 -0.0226  0.2823
   61MOL   H48146201   5.764   1.599   2.239 -1.1661 -0.3255 -0.3155
   61MOL   H48246202   5.962   1.702   2.363 -1.7725  2.7098 -1.6697
   61MOL   H48346203   5.724   1.843   2.459  0.7225 -0.1340  1.0116
   61MOL   H48446204   5.779   1.846   2.292  0.2949 -0.0238  0.7582
   61MOL   H48546205   5.800   1.631   2.623  0.3890  1.1126  1.2619
   61MOL   H48646206   5.946   1.720   2.611 -0.7288 -0.1955  1.7720
   61MOL   H48746207   6.062   1.514   2.515 -1.6149  0.9298 -2.1335
   61MOL   H48846208   5.983   1.482   2.677 -1.4418  0.2117  0.5424
   61MOL   H48946209   5.789   1.385   2.556 -0.3499 -1.1000  0.2843
   61MOL   H49046210   5.967   1.232   2.615  2.0502  0.7093 -0.8946
   61MOL   H49146211   6.019   1.247   2.452 -0.7598 -0.4563  0.1342
   61MOL   H49246212   5.684   1.065   2.309 -2.4406  1.0160 -0.1827
   61MOL   H49346213   5.546   0.885   2.213 -0.7342 -1.0474  0.0215
   61MOL   H49446214   5.505   0.716   2.613  1.2504 -0.2176 -0.1810
   61MOL   H49546215   5.621   0.906   2.707 -0.9538  1.0115  0.8008
   61MOL   C49646216   5.613   0.235   2.572  0.5201 -0.5522  0.1228
   61MOL   C49746217   5.555   0.330   2.468  0.4407 -0.3488  0.4213
   61MOL   C49846218   5.405   0.357   2.493 -0.0777 -0.0351  0.3130
   61MOL   C49946219   5.344   0.459   2.398  0.4024  0.4427 -0.5137
   61MOL   C50046220   5.324   0.228   2.508 -0.7038  0.3622  0.7962
   61MOL   C50146221   5.378   0.154   2.628  0.2322  0.0524  0.8498
   61MOL   C50246222   5.522   0.117   2.600 -0.7544 -0.6081  0.1001
   61MOL   C50346223   5.589   0.039   2.711  0.3457 -0.7342 -0.1955
   61MOL   O50446224   5.568   0.116   2.826  0.1462  0.1893 -0.3886
   61MOL   C50546225   5.503   0.066   2.929  0.7070  0.4944  0.1998
   61MOL   O50646226   5.435   7.998   2.930  0.3181  0.6985 -0.1772
   61MOL   C50746227   5.517   0.156   3.049  0.6296 -0.1021  0.4519
   61MOL   C50846228   5.426   0.133   3.154  0.0856  0.1267 -0.4604
   61MOL   C50946229   5.436   0.215   3.272 -0.7989  0.5126 -0.4689
   61MOL   C51046230   5.536   0.309   3.285  0.4159 -0.5566  0.3731
   61MOL   C51146231   5.547   0.388   3.408 -0.0252 -0.2047 -0.1778
   61MOL   O51246232   5.508   0.352   3.515  0.2052  0.4871  0.0667
   61MOL   O51346233   5.626   0.502   3.388 -0.1551  0.2706 -0.8310
   61MOL   C51446234   5.616   0.339   3.178  0.1196 -0.6939 -0.6102
   61MOL   C51546235   5.606   0.266   3.056 -0.4034 -0.0651 -0.0008
   61MOL   H51646236   5.636   0.294   2.660  0.1104  1.7014 -1.2293
   61MOL   H51746237   5.711   0.201   2.537  2.0364  1.6261  2.1339
   61MOL   H51846238   5.571   0.302   2.364 -1.8204  1.2506 -0.3899
   61MOL   H51946239   5.596   0.430   2.482  0.0821 -0.1725  0.2071
   61MOL   H52046240   5.403   0.403   2.591  2.7583 -3.3343  2.0052
   61MOL   H52146241   5.236   0.459   2.413  0.0609 -0.8853 -2.7721
   61MOL   H52246242   5.355   0.429   2.294 -0.3692  0.1373 -0.5100
   61MOL   H52346243   5.332   0.171   2.416 -1.8025  1.1088  0.2188
   61MOL   H52446244   5.217   0.250   2.515 -1.0603 -1.0011 -0.0726
   61MOL   H52546245   5.365   0.213   2.719 -1.3160 -1.2013  1.4683
   61MOL   H52646246   5.328   0.058   2.644 -0.7046  0.3990  0.0479
   61MOL   H52746247   5.527   0.061   2.507  1.2777  0.0534 -0.2179
   61MOL   H52846248   5.696   0.024   2.700  0.2511 -0.5819 -1.4715
   61MOL   H52946249   5.543   7.973   2.718 -0.1517 -0.5375 -0.6890
   61MOL   H53046250   5.348   0.060   3.138  0.4182  0.0352 -1.6963
   61MOL   H53146251   5.374   0.189   3.357  0.5620 -0.5947  0.1990
   61MOL   H53246252   5.688   0.418   3.193 -0.2417 -0.4075 -0.3731
   61MOL   H53346253   5.667   0.293   2.971 -0.9657  2.0869  0.2577
   61MOL   C53446254   5.386   0.857   3.473  0.3524 -0.0229  0.3032
   61MOL   C53546255   5.448   0.716   3.478 -0.8602  0.2373 -0.3502
   61MOL   C53646256   5.598   0.715   3.502  0.0770  0.2324  0.4325
   61MOL   C53746257   5.666   0.573   3.505  0.4660  0.2764 -0.4145
   61MOL   C53846258   5.657   0.810   3.401  0.2220 -0.1650 -0.1235
   61MOL   C53946259   5.599   0.954   3.398 -0.3847  0.4048  0.3057
   61MOL   C54046260   5.445   0.956   3.377 -0.0513  0.3459 -0.1517
   61MOL   C54146261   5.379   1.097   3.387 -0.0403 -0.1641 -0.1503
   61MOL   O54246262   5.247   1.095   3.338 -0.5975 -0.4750  1.2903
   61MOL   C54346263   5.227   1.136   3.216 -0.3435 -0.2472 -0.3419
   61MOL   O54446264   5.322   1.172   3.135 -0.3356  0.3271  0.3624
   61MOL   C54546265   5.079   1.142   3.182  0.1304 -0.3621 -0.1016
   61MOL   C54646266   4.985   1.067   3.258 -1.0951  0.0603 -0.6054
   61MOL   C54746267   4.852   1.054   3.222 -0.7846 -0.2915 -0.7576
   61MOL   C54846268   4.804   1.127   3.112  0.3231 -0.1724 -0.6784
   61MOL   C54946269   4.659   1.129   3.078 -0.5004  0.3882  0.5160
   61MOL   O55046270   4.615   1.211   3.002  0.0646  0.4129  0.4506
   61MOL   O55146271   4.596   1.043   3.144  0.5711 -0.1555 -0.3299
   61MOL   C55246272   4.896   1.208   3.044 -0.0924 -0.6050 -0.8070
   61MOL   C55346273   5.030   1.218   3.074 -0.8678 -0.2934  0.2811
   61MOL   H55446274   5.392   0.902   3.572 -1.9369 -0.7221  0.7829
   61MOL   H55546275   5.279   0.842   3.461  0.0550  1.9154  0.3325
   61MOL   H55646276   5.435   0.661   3.385  1.4667  1.9057 -1.7055
   61MOL   H55746277   5.395   0.654   3.550 -2.5703  2.1100  0.0758
   61MOL   H55846278   5.619   0.752   3.602  1.7368 -0.5138  0.3625
   61MOL   H55946279   5.631   0.524   3.596  2.2458 -1.0334 -0.4186
   61MOL   H56046280   5.774   0.587   3.508  0.3717  0.9662 -0.1436
   61MOL   H56146281   5.658   0.780   3.296 -1.2917  1.8861 -0.7549
   61MOL   H56246282   5.756   0.831   3.440  0.9974 -0.6209 -1.7979
   61MOL   H56346283   5.627   1.014   3.485 -0.3468  1.4476 -0.4217
   61MOL   H56446284   5.648   1.021   3.327  0.4574  0.5180  0.9844
   61MOL   H56546285   5.435   0.920   3.275 -1.8346 -1.1662  0.5416
   61MOL   H56646286   5.445   1.174   3.346  0.7626 -0.8847 -0.2334
   61MOL   H56746287   5.375   1.126   3.492  0.6089 -0.0214 -0.1613
   61MOL   H56846288   5.017   1.002   3.339 -1.7880  0.3205 -0.1209
   61MOL   H56946289   4.791   0.998   3.291 -0.9148  0.6759 -0.0687
   61MOL   H57046290   4.858   1.259   2.957  0.4175  1.5353  0.1728
   61MOL   H57146291   5.095   1.284   3.018 -1.5044 -1.1688 -1.5229
   61MOL   C57246292   4.416   0.842   3.481 -0.0727  0.4674 -0.4697
   61MOL   C57346293   4.453   0.857   3.340 -0.2222  0.5743  0.1780
   61MOL   C57446294   4.408   0.993   3.281 -0.7274 -0.3599 -0.9227
   61MOL   C57546295   4.454   1.025   3.139  0.6566  0.5874  0.7242
   61MOL   C57646296   4.260   1.026   3.303  0.1435 -0.1777 -0.3516
   61MOL   C57746297   4.234   1.020   3.461 -0.0543  0.5067 -0.0534
   61MOL   C57846298   4.270   0.885   3.524 -0.0787  0.0495 -0.1772
   61MOL   C57946299   4.259   0.904   3.678  0.5460 -0.5728 -0.1428
   61MOL   O58046300   4.232   0.784   3.748  0.4086  0.1479 -0.2355
   61MOL   C58146301   4.139   0.779   3.846 -0.5370  0.0880  0.2943
   61MOL   O58246302   4.093   0.878   3.888 -0.4519 -0.5973 -0.5008
   61MOL   C58346303   4.118   0.641   3.895  0.6210 -0.3181  0.7371
   61MOL   C58446304   4.009   0.616   3.985 -0.2348 -0.1694 -0.0806
   61MOL   C58546305   3.984   0.485   4.035  0.0328 -0.3429 -0.9072
   61MOL   C58646306   4.067   0.379   3.995  0.0471 -0.0639 -0.1194
   61MOL   C58746307   4.053   0.240   4.050 -0.2122  0.3049 -0.0436
   61MOL   O58846308   4.074   0.132   3.990  0.3720  0.5672  0.1700
   61MOL   O58946309   3.981   0.254   4.171 -0.0481  0.5079 -0.0172
   61MOL   C59046310   4.181   0.407   3.917 -0.4717  0.0378 -0.0009
   61MOL   C59146311   4.206   0.532   3.866  0.2459 -0.4941 -0.6226
   61MOL   H59246312   4.489   0.905   3.533 -1.1577  2.5496 -1.3912
   61MOL   H59346313   4.430   0.737   3.504 -1.3680  0.9556  2.7736
   61MOL   H59446314   4.414   0.782   3.271  2.3769 -0.1961 -0.4933
   61MOL   H59546315   4.561   0.850   3.347 -0.1984  0.6859 -0.0664
   61MOL   H59646316   4.456   1.070   3.341 -1.2647 -0.9807  0.3315
   61MOL   H59746317   4.400   1.115   3.108 -0.4835 -0.9117 -1.8161
   61MOL   H59846318   4.420   0.948   3.070  0.3860  1.0439  0.3387
   61MOL   H59946319   4.201   0.953   3.248  1.6088 -2.2830  0.7591
   61MOL   H60046320   4.230   1.122   3.262  0.0214 -0.2772 -0.4972
   61MOL   H60146321   4.297   1.094   3.509 -0.1087 -0.6016  1.7414
   61MOL   H60246322   4.134   1.056   3.483 -0.7912  0.1876 -2.6481
   61MOL   H60346323   4.190   0.826   3.479 -1.1909  1.0084  0.5165
   61MOL   H60446324   4.174   0.971   3.690  1.4584  0.4352  0.8359
   61MOL   H60546325   4.339   0.963   3.723 -0.2552  1.2074 -1.0044
   61MOL   H60646326   3.952   0.700   4.021 -1.9871 -1.2847 -0.1685
   61MOL   H60746327   3.905   0.470   4.107  1.0356  1.2171  0.5345
   61MOL   H60846328   4.255   0.330   3.902 -0.8535 -0.3092 -0.0904
   61MOL   H60946329   4.297   0.562   3.817  0.2893 -0.7257 -0.6858
   61MOL   C61046330   4.230   0.069   4.482  0.2223  0.1661  0.4947
   61MOL   C61146331   4.156   0.081   4.352 -0.2345 -0.0622 -0.1590
   61MOL   C61246332   4.004   0.106   4.375 -0.4457 -0.3445  0.2442
   61MOL   C61346333   3.930   0.140   4.246  0.0425  0.9074  0.7276
   61MOL   C61446334   3.941   8.028   4.460 -0.0763 -0.6836 -0.2676
   61MOL   C61546335   4.013   8.015   4.598  0.1730  0.4103 -0.1862
   61MOL   C61646336   4.167   7.987   4.572  0.2288 -0.2953  0.2338
   61MOL   C61746337   4.245   7.966   4.693  0.1282 -0.1242 -0.7046
   61MOL   O61846338   4.265   0.040   4.780 -0.7468  0.0594 -0.0845
   61MOL   C61946339   4.360   0.016   4.873  0.1779  0.5484  0.6680
   61MOL   O62046340   4.413   7.940   4.884  0.3993 -0.1198 -0.0056
   61MOL   C62146341   4.399   0.134   4.959  0.0917  0.8802 -1.3021
   61MOL   C62246342   4.483   0.109   5.069  0.1570 -0.3380  0.0392
   61MOL   C62346343   4.534   0.213   5.147 -0.3086  0.1516 -0.2256
   61MOL   C62446344   4.489   0.348   5.115  0.2791  0.3076 -0.4942
   61MOL   C62546345   4.549   0.463   5.192  0.0602  0.1356  0.3243
   61MOL   O62646346   4.633   0.442   5.281  0.0787 -0.0349  0.3157
   61MOL   O62746347   4.504   0.591   5.169 -0.1068  0.0686 -0.2338
   61MOL   C62846348   4.392   0.365   5.015  0.2454 -0.1992 -0.2842
   61MOL   C62946349   4.358   0.262   4.926  0.6160  0.1118  0.1842
   61MOL   H63046350   4.237   0.165   4.532  1.0604  1.0350 -1.2456
   61MOL   H63146351   4.334   0.051   4.452 -0.0815 -0.2775 -0.2890
   61MOL   H63246352   4.162   8.024   4.291 -0.8651  0.1311 -0.5030
   61MOL   H63346353   4.195   0.160   4.287 -0.5627 -1.1691 -1.7263
   61MOL   H63446354   3.994   0.195   4.436  0.5718 -0.1342  0.1001
   61MOL   H63546355   3.827   0.162   4.272  0.0683  1.8907  0.0301
   61MOL   H63646356   3.922   0.056   4.177  0.3828 -0.3518  2.2088
   61MOL   H63746357   3.948   7.938   4.400  1.5515  0.5247 -1.9777
   61MOL   H63846358   3.835   0.013   4.476  0.1499  1.4192 -0.7848
   61MOL   H63946359   4.009   0.065   4.669 -6.6627  0.4150 -0.2059
   61MOL   H64046360   3.966   7.932   4.651  0.2493  0.4505 -0.0554
   61MOL   H64146361   4.165   7.894   4.515 -0.5091 -1.0225  1.4226
   61MOL   H64246362   4.342   7.935   4.656  1.1150  1.3937  0.5722
   61MOL   H64346363   4.222   7.876   4.750 -0.7270  0.8490  0.5291
   61MOL   H64446364   4.500   0.004   5.089 -0.1683 -0.3000  0.5341
   61MOL   H64546365   4.600   0.199   5.232  1.1276  0.3588 -1.2866
   61MOL   H64646366   4.348   0.463   5.008 -1.4122 -0.8460  0.7076
   61MOL   H64746367   4.278   0.280   4.855 -0.1885 -0.0056  1.0608
   61MOL   C64846368   4.908   0.778   5.066 -0.2512  0.3407  0.2025
   61MOL   C64946369   4.789   0.697   5.129  0.4281  0.7277 -0.3950
   61MOL   C65046370   4.672   0.782   5.165  0.0075 -0.2355 -0.7115
   61MOL   C65146371   4.557   0.707   5.239 -0.8126 -0.1517  0.2331
   61MOL   C65246372   4.719   0.907   5.245 -0.6034 -0.1241 -0.2830
   61MOL   C65346373   4.838   0.980   5.180 -0.2469 -0.0345 -0.6327
   61MOL   C65446374   4.957   0.898   5.146 -0.3377 -0.0494  0.0133
   61MOL   C65546375   5.062   0.980   5.074 -0.2601  0.6922 -0.6911
   61MOL   O65646376   5.001   1.042   4.964 -0.4408 -0.5283 -0.2865
   61MOL   C65746377   5.075   1.104   4.869 -0.7382  0.3915  0.4337
   61MOL   O65846378   5.201   1.102   4.864  0.5723  0.1275 -0.0177
   61MOL   C65946379   4.990   1.165   4.759  0.0156  0.2170 -0.3995
   61MOL   C66046380   4.859   1.112   4.745 -0.3185 -0.2787  0.5648
   61MOL   C66146381   4.778   1.162   4.637 -0.2570 -0.1348 -0.4596
   61MOL   C66246382   4.821   1.267   4.546 -0.7117 -0.4290  0.1729
   61MOL   C66346383   4.732   1.316   4.433 -0.0525 -0.1325 -0.4156
   61MOL   O66446384   4.763   1.414   4.364 -0.0310  0.1399  0.3071
   61MOL   O66546385   4.622   1.250   4.428 -0.3750  0.4808 -0.0442
   61MOL   C66646386   4.955   1.316   4.564  0.8955  0.3290 -0.3317
   61MOL   C66746387   5.041   1.268   4.671  0.3000  0.4032 -0.0362
   61MOL   H66846388   4.883   0.795   4.962 -0.4497  0.3513  0.2530
   61MOL   H66946389   4.983   0.699   5.055 -0.9688 -0.1138 -1.4947
   61MOL   H67046390   4.824   0.654   5.223 -0.0702  0.8665 -0.1402
   61MOL   H67146391   4.744   0.622   5.065  2.2907 -0.9570  0.2425
   61MOL   H67246392   4.631   0.829   5.076 -0.8108 -0.5688 -0.5126
   61MOL   H67346393   4.478   0.781   5.255 -0.3417  0.2680  0.6845
   61MOL   H67446394   4.587   0.686   5.342  0.2623 -0.0327 -0.0502
   61MOL   H67546395   4.760   0.870   5.338 -2.6799 -0.3731  0.5642
   61MOL   H67646396   4.634   0.969   5.275 -0.5110  0.4483 -1.1874
   61MOL   H67746397   4.788   1.016   5.090 -0.0851  2.5275  0.2580
   61MOL   H67846398   4.865   1.068   5.238 -3.1941  0.4247  0.1265
   61MOL   H67946399   4.987   0.859   5.244 -1.1322  1.0400  0.7012
   61MOL   H68046400   5.145   0.916   5.044 -0.7822 -0.8295  0.9590
   61MOL   H68146401   5.100   1.056   5.142 -0.5889 -1.2401  1.7328
   61MOL   H68246402   4.816   1.035   4.807  0.1616 -1.9130 -1.0805
   61MOL   H68346403   4.677   1.125   4.628  0.7518 -2.8262 -1.0664
   61MOL   H68446404   5.006   1.378   4.492 -0.6223 -0.1139 -1.8222
   61MOL   H68546405   5.132   1.324   4.687  0.3491 -0.3106  2.3039
   61MOL   C68646406   4.394   0.884   4.343 -0.8995  0.3092  0.3394
   61MOL   C68746407   4.494   1.002   4.341 -0.0068 -0.3794  0.4218
   61MOL   C68846408   4.420   1.136   4.334 -0.4476 -0.5471 -0.5347
   61MOL   C68946409   4.515   1.262   4.334 -0.0074 -0.0987  0.1581
   61MOL   C69046410   4.335   1.146   4.207 -0.0624  0.2620  0.3442
   61MOL   C69146411   4.238   1.026   4.203 -0.3550 -0.6473  0.1543
   61MOL   C69246412   4.315   0.890   4.210 -0.8990  0.1465 -0.2545
   61MOL   C69346413   4.215   0.767   4.211 -0.3275  1.0833  0.5273
   61MOL   O69446414   4.299   0.654   4.194 -0.3715 -0.0568 -0.4076
   61MOL   C69546415   4.281   0.535   4.254 -0.3657 -0.5079  0.9113
   61MOL   O69646416   4.182   0.512   4.323  0.1207  0.0460  0.6333
   61MOL   C69746417   4.388   0.439   4.242 -0.5152 -0.0541  0.1417
   61MOL   C69846418   4.476   0.443   4.129 -0.1353  0.2142 -0.7792
   61MOL   C69946419   4.585   0.348   4.120 -0.4018 -0.3017 -0.7339
   61MOL   C70046420   4.606   0.262   4.233 -0.5865  0.1530 -0.0911
   61MOL   C70146421   4.727   0.174   4.229 -0.1662  0.2865  0.7877
   61MOL   O70246422   4.771   0.111   4.326  0.4578 -0.2605  0.4140
   61MOL   O70346423   4.792   0.171   4.104 -0.2034 -0.2687  0.3929
   61MOL   C70446424   4.518   0.253   4.343  0.1514 -0.2707 -0.2277
   61MOL   C70546425   4.401   0.342   4.345 -0.0104 -0.3553 -0.3014
   61MOL   H70646426   4.325   0.892   4.426 -1.5817  1.5920 -0.3278
   61MOL   H70746427   4.439   0.787   4.364 -1.8122 -0.1209  0.3206
   61MOL   H70846428   4.577   0.995   4.272  1.6722  0.7060  2.2650
   61MOL   H70946429   4.550   1.008   4.435  0.4619  0.5744  0.0912
   61MOL   H71046430   4.364   1.137   4.428 -0.4367 -1.7428 -0.5021
   61MOL   H71146431   4.463   1.356   4.353  0.2123 -0.0479  0.5165
   61MOL   H71246432   4.563   1.270   4.236  2.3165 -2.8422  0.9959
   61MOL   H71346433   4.397   1.145   4.118  0.4934 -1.6579  0.7269
   61MOL   H71446434   4.261   1.226   4.199 -2.8786 -1.9688  2.7170
   61MOL   H71546435   4.162   1.032   4.281  0.1383  0.8202  0.5388
   61MOL   H71646436   4.183   1.050   4.112 -0.7777  0.2990  0.6515
   61MOL   H71746437   4.386   0.879   4.128 -2.4318 -1.2543 -1.4257
   61MOL   H71846438   4.140   0.763   4.132  1.3402 -0.2561 -1.0282
   61MOL   H71946439   4.159   0.759   4.304 -1.0962 -0.8236 -0.0649
   61MOL   H72046440   4.455   0.520   4.057 -3.6863 -0.3480 -0.3933
   61MOL   H72146441   4.644   0.332   4.032  0.7281 -2.5720  0.4083
   61MOL   H72246442   4.547   0.178   4.416  1.9972  0.8463  0.2149
   61MOL   H72346443   4.335   0.339   4.431  0.2239 -1.2479 -0.1478
   61MOL   C72446444   4.983   0.202   3.706  0.3053  0.6625 -0.4686
   61MOL   C72546445   4.957   0.228   3.857 -0.3571  0.0991 -0.7848
   61MOL   C72646446   4.964   0.099   3.944  0.5499 -0.2199  1.0361
   61MOL   C72746447   4.926   0.128   4.096 -0.4849  0.3522  0.2550
   61MOL   C72846448   4.877   8.019   3.877  0.2812 -0.1250 -0.4707
   61MOL   C72946449   4.910   7.998   3.733 -0.3438  0.5082  0.9202
   61MOL   C73046450   4.890   0.096   3.645  0.0459  0.1534  0.2159
   61MOL   C73146451   4.920   0.070   3.497  0.7831  0.1973 -0.1921
   61MOL   O73246452   5.041   8.023   3.480  0.4855  0.1250  0.0414
   61MOL   C73346453   5.098   8.009   3.356 -0.6263  0.7755 -0.1728
   61MOL   O73446454   5.038   0.020   3.253 -0.3476  0.2049  0.1736
   61MOL   C73546455   5.216   7.926   3.359 -0.2509  0.1433 -0.2993
   61MOL   C73646456   5.264   7.868   3.236  0.7149 -0.2352 -0.3042
   61MOL   C73746457   5.374   7.789   3.237 -1.1250  0.4977  0.0608
   61MOL   C73846458   5.442   7.756   3.357 -0.0071  1.3238 -0.6214
   61MOL   C73946459   5.572   7.682   3.350  0.4516 -0.5150 -0.1498
   61MOL   O74046460   5.680   7.705   3.414  0.0664  0.3678 -0.0987
   61MOL   O74146461   5.565   7.583   3.260 -0.2821 -0.0825  0.8072
   61MOL   C74246462   5.396   7.809   3.473  0.0508 -0.4122 -0.3764
   61MOL   C74346463   5.281   7.892   3.482  0.5624  0.3496 -0.1145
   61MOL   H74446464   5.084   0.165   3.687  0.7104  2.4716 -2.1199
   61MOL   H74546465   4.982   0.292   3.644  1.2119  0.0831 -1.3550
   61MOL   H74646466   4.858   0.272   3.865 -0.4130 -0.2013  0.2153
   61MOL   H74746467   5.030   0.299   3.895 -1.8750  0.0732  2.2975
   61MOL   H74846468   5.069   0.070   3.942  1.5161  2.8862  3.3879
   61MOL   H74946469   4.998   0.205   4.127 -1.5974  1.5541 -0.0857
   61MOL   H75046470   4.953   0.039   4.152  1.6852  0.8149 -0.0142
   61MOL   H75146471   4.774   0.014   3.896 -0.3584 -0.4165 -3.3322
   61MOL   H75246472   4.895   7.930   3.937 -1.4715 -0.3402 -0.2428
   61MOL   H75346473   5.013   7.961   3.737  0.3665  2.4292  0.9712
   61MOL   H75446474   4.847   7.924   3.684 -1.2923  2.2632 -0.5694
   61MOL   H75546475   4.784   0.117   3.655 -0.4605 -1.7733 -1.0266
   61MOL   H75646476   4.920   0.156   3.429  0.1421  1.3717  1.2689
   61MOL   H75746477   4.855   8.031   3.446  0.1817 -0.0574  0.9193
   61MOL   H75846478   5.218   7.889   3.140  3.2033  4.6100 -0.6167
   61MOL   H75946479   5.412   7.761   3.140 -0.7299  2.4806 -0.3787
   61MOL   H76046480   5.448   7.780   3.563  0.2384  0.0842 -0.3221
   61MOL   H76146481   5.241   7.929   3.576  0.7143  0.4711 -0.0971
   61MOL   H76246482   5.650   7.542   3.252 -0.2031  0.3440 -0.8031
   62MOL     C146483   2.143   0.129   3.595  0.6138  0.5092  0.7232
   62MOL     C246484   2.042   0.048   3.679 -0.3163  0.8233  0.6630
   62MOL     C346485   1.905   0.104   3.670  0.1905 -0.5634 -0.6432
   62MOL     C446486   1.799   0.037   3.763 -0.3171  0.7082 -0.9466
   62MOL     C546487   1.918   0.252   3.710 -0.3888 -0.2559 -0.1950
   62MOL     C646488   2.010   0.343   3.621 -0.0160 -0.3514  0.6282
   62MOL     C746489   2.151   0.283   3.633  0.2556  0.2413 -0.6529
   62MOL     C846490   2.261   0.359   3.551 -0.1787  0.0994  0.1549
   62MOL     O946491   2.252   0.339   3.415  0.7439  0.1146 -0.0233
   62MOL    C1046492   2.323   0.419   3.328 -0.0937  0.0984  0.2313
   62MOL    O1146493   2.401   0.508   3.359  0.5746  0.8528  0.0806
   62MOL    C1246494   2.295   0.383   3.181 -0.1454  0.3786  0.1094
   62MOL    C1346495   2.177   0.325   3.142 -0.3378  0.0983  0.7251
   62MOL    C1446496   2.151   0.300   3.002  0.5659  0.6600  0.3559
   62MOL    C1546497   2.248   0.332   2.904 -0.3987  0.0563  0.4242
   62MOL    C1646498   2.224   0.295   2.762 -0.2392 -0.6431 -0.1315
   62MOL    O1746499   2.135   0.216   2.737 -0.1498  0.2371  0.0379
   62MOL    O1846500   2.310   0.357   2.676 -0.5210  0.3246  0.4472
   62MOL    C1946501   2.374   0.374   2.950 -0.1613 -0.0669 -0.4215
   62MOL    C2046502   2.401   0.404   3.085  0.6970  0.6920  0.4650
   62MOL    H2146503   2.110   0.119   3.491 -1.1875  1.6607  1.1633
   62MOL    H2246504   2.240   0.080   3.600  0.2389 -0.4957 -1.1516
   62MOL    H2346505   2.061   0.043   3.786  0.5315 -0.6445  0.4560
   62MOL    H2446506   2.030   7.974   3.659  0.1095  0.2917  3.1596
   62MOL    H2546507   1.883   0.101   3.563 -1.6230  0.0782 -0.2978
   62MOL    H2646508   1.800   7.963   3.735  0.5293  0.1912  0.9204
   62MOL    H2746509   1.697   0.072   3.749 -0.5280  0.2615 -0.5541
   62MOL    H2846510   1.959   0.247   3.811 -1.5774 -1.9963  0.2357
   62MOL    H2946511   1.823   0.306   3.706  0.9560  2.1391 -0.3721
   62MOL    H3046512   1.975   0.344   3.518 -0.7663 -0.3926  0.8733
   62MOL    H3146513   2.001   0.446   3.657 -1.6535  0.0243 -0.7590
   62MOL    H3246514   2.176   0.288   3.739  2.1010  0.2886 -1.0791
   62MOL    H3346515   2.357   0.327   3.590 -0.3404  1.2985  1.5840
   62MOL    H3446516   2.228   0.462   3.571 -0.4913 -0.1005  0.6895
   62MOL    H3546517   2.096   0.302   3.210 -0.0390 -1.4399  0.5772
   62MOL    H3646518   2.052   0.270   2.972  1.1697 -0.6881 -0.3141
   62MOL    H3746519   2.449   0.394   2.875  2.2689 -0.0560  1.9431
   62MOL    H3846520   2.495   0.449   3.116  1.4048 -0.5202  0.1082
   62MOL    H3946521   1.821   0.031   3.870  0.8173 -1.5300 -1.2674
   62MOL    C4046522   2.067   0.601   2.399 -0.5289  0.2285  0.3767
   62MOL    C4146523   2.118   0.483   2.482 -0.2409  0.2264  0.1079
   62MOL    C4246524   2.269   0.457   2.467 -0.0600  0.9313 -0.1429
   62MOL    C4346525   2.304   0.326   2.540  0.0577 -0.2289  0.1465
   62MOL    C4446526   2.306   0.437   2.317  0.3581  0.0239 -0.2257
   62MOL    C4546527   2.246   0.541   2.223  0.5520 -0.0699  0.2644
   62MOL    C4646528   2.095   0.575   2.250  0.1226  0.1465 -0.5379
   62MOL    C4746529   2.043   0.682   2.157  0.3907  0.2162 -0.0840
   62MOL    O4846530   2.102   0.804   2.191 -0.0176 -0.7158  0.3922
   62MOL    C4946531   2.193   0.861   2.113 -0.6529 -0.0707  0.5662
   62MOL    O5046532   2.224   0.825   1.996  0.1306 -0.1535  0.3048
   62MOL    C5146533   2.243   0.990   2.180  0.4481 -0.6343  0.2590
   62MOL    C5246534   2.286   1.097   2.102  0.1549  0.0004  0.2298
   62MOL    C5346535   2.306   1.223   2.158 -0.6697 -0.5390  0.6218
   62MOL    C5446536   2.303   1.235   2.299 -0.3016 -0.6315 -0.2261
   62MOL    C5546537   2.326   1.368   2.369  0.2792 -0.2676 -0.0321
   62MOL    O5646538   2.330   1.381   2.490  0.1433  0.2867  0.2346
   62MOL    O5746539   2.325   1.479   2.281  0.0101 -0.6040 -0.3777
   62MOL    C5846540   2.279   1.119   2.378 -1.0191  0.0086  0.3117
   62MOL    C5946541   2.246   0.997   2.317 -0.1517 -0.0305 -0.6856
   62MOL    H6046542   2.118   0.688   2.440  2.7096 -1.5749  0.3641
   62MOL    H6146543   1.958   0.606   2.402 -0.5046  2.1245 -1.0058
   62MOL    H6246544   2.066   0.390   2.458 -1.0040  0.2403  1.6467
   62MOL    H6346545   2.090   0.501   2.586 -0.0307  1.2079 -0.0003
   62MOL    H6446546   2.318   0.535   2.525  0.0428 -0.2889  1.4894
   62MOL    H6546547   2.398   0.284   2.505  0.6083  0.6450  0.5822
   62MOL    H6646548   2.234   0.247   2.513  0.8220 -0.3896 -1.4081
   62MOL    H6746549   2.269   0.341   2.281  0.5755 -1.3598  3.0221
   62MOL    H6846550   2.414   0.447   2.304  0.3574  2.9584  1.5597
   62MOL    H6946551   2.293   0.640   2.218  0.9470 -0.3149 -1.0570
   62MOL    H7046552   2.248   0.510   2.119 -0.6539  2.5913 -0.6089
   62MOL    H7146553   2.033   0.487   2.234 -0.6242  0.8139 -1.3187
   62MOL    H7246554   1.937   0.706   2.172  0.3936  1.5600 -2.0589
   62MOL    H7346555   2.060   0.646   2.056 -0.2049 -1.2135  0.3193
   62MOL    H7446556   2.305   1.072   1.998  1.0342  1.3392  0.0487
   62MOL    H7546557   2.328   1.308   2.096  1.9156 -2.7867 -1.6689
   62MOL    H7646558   2.279   1.135   2.484 -1.3415  2.0699  0.0226
   62MOL    H7746559   2.226   0.909   2.377  1.4791  1.2305  1.7917
   62MOL    C7846560   2.463   1.734   1.986 -0.4552 -0.1430 -0.2662
   62MOL    C7946561   2.461   1.652   2.110  0.2702 -0.3453 -0.5253
   62MOL    C8046562   2.349   1.697   2.204 -0.1359  0.2986  0.3066
   62MOL    C8146563   2.339   1.609   2.327  0.1576 -0.2291 -0.2073
   62MOL    C8246564   2.355   1.845   2.238 -0.2677 -0.1624  0.5532
   62MOL    C8346565   2.366   1.935   2.109 -0.3489  0.6955 -0.3617
   62MOL    C8446566   2.474   1.876   2.016 -0.3555 -0.5676 -0.4824
   62MOL    C8546567   2.494   1.951   1.880  0.8748 -0.3927 -0.9316
   62MOL    O8646568   2.380   2.023   1.842  0.6626 -0.2745  0.7769
   62MOL    C8746569   2.367   2.155   1.848  0.1404  0.3897 -0.1003
   62MOL    O8846570   2.456   2.232   1.892 -0.1010 -0.7075 -0.1519
   62MOL    C8946571   2.227   2.199   1.814 -0.6631  0.2677 -0.5114
   62MOL    C9046572   2.128   2.111   1.754 -0.1770  0.0443 -0.2478
   62MOL    C9146573   2.001   2.157   1.714  1.2613 -0.1337  0.8168
   62MOL    C9246574   1.971   2.291   1.734 -0.1194  0.0599 -0.1059
   62MOL    C9346575   1.835   2.342   1.697  0.6453  0.0767  0.2137
   62MOL    O9446576   1.802   2.456   1.711  0.3258 -0.0361 -0.0352
   62MOL    O9546577   1.748   2.246   1.657  0.2288  0.5331  0.1451
   62MOL    C9646578   2.063   2.381   1.797  0.0468  0.1319  0.2202
   62MOL    C9746579   2.191   2.333   1.831  0.0384 -0.3249  0.1787
   62MOL    H9846580   2.385   1.712   1.913  0.6308 -1.3376 -1.1084
   62MOL    H9946581   2.551   1.693   1.935 -0.9413 -1.0655 -0.3699
   62MOL   H10046582   2.561   1.672   2.150 -0.7315  0.5054  1.6287
   62MOL   H10146583   2.467   1.546   2.088  0.0654 -0.6275  0.7530
   62MOL   H10246584   2.266   1.687   2.134  0.6025  0.6935 -0.6263
   62MOL   H10346585   2.243   1.632   2.373  0.8958 -1.1376  1.8663
   62MOL   H10446586   2.423   1.623   2.394  0.9973 -1.0475 -1.0768
   62MOL   H10546587   2.440   1.859   2.306  1.0096  1.9284 -1.4155
   62MOL   H10646588   2.265   1.867   2.295 -1.0692 -2.1147  0.0940
   62MOL   H10746589   2.266   1.943   2.066 -1.7659  2.2346  3.0115
   62MOL   H10846590   2.393   2.035   2.142 -1.4066  0.4868  1.1717
   62MOL   H10946591   2.565   1.886   2.076 -1.7133  1.2440  1.3675
   62MOL   H11046592   2.530   1.887   1.800 -2.9470 -1.2303 -2.1247
   62MOL   H11146593   2.580   2.016   1.895  1.1564 -0.2807 -2.9092
   62MOL   H11246594   2.147   2.005   1.742  2.0323  0.5540 -1.5061
   62MOL   H11346595   1.927   2.093   1.670  0.9996 -0.2587  1.4422
   62MOL   H11446596   2.036   2.485   1.814 -2.3337 -0.5887  1.1233
   62MOL   H11546597   2.248   2.411   1.881  0.0640  0.4492 -1.0267
   62MOL   C11646598   1.693   2.360   1.229 -0.5817 -0.8409  0.6321
   62MOL   C11746599   1.709   2.358   1.381 -0.0683 -0.8613 -0.1872
   62MOL   C11846600   1.610   2.256   1.453 -0.3743 -0.3401 -0.4830
   62MOL   C11946601   1.618   2.287   1.605 -0.4658 -0.0555  0.2049
   62MOL   C12046602   1.465   2.268   1.398 -0.4244  0.4896  0.3162
   62MOL   C12146603   1.470   2.261   1.242 -0.6060 -0.4030  0.0048
   62MOL   C12246604   1.552   2.373   1.185 -0.1374 -0.2760  0.0080
   62MOL   C12346605   1.543   2.395   1.033  0.6485 -0.1213  0.1263
   62MOL   O12446606   1.404   2.403   1.009 -0.2348 -0.3368 -0.0601
   62MOL   C12546607   1.349   2.502   0.938  0.5072  0.1380  0.1055
   62MOL   O12646608   1.417   2.591   0.890 -0.3263  0.1138  0.2970
   62MOL   C12746609   1.197   2.508   0.934  0.0575 -0.5193  0.5958
   62MOL   C12846610   1.121   2.425   1.020  0.1916 -0.0483  0.0603
   62MOL   C12946611   0.977   2.420   1.015 -0.4893 -0.0651 -0.2352
   62MOL   C13046612   0.911   2.493   0.917 -0.2240 -0.0777 -0.0156
   62MOL   C13146613   0.760   2.472   0.901  0.3415 -0.1888 -0.4017
   62MOL   O13246614   0.692   2.395   0.968 -0.5423 -0.1347 -0.2244
   62MOL   O13346615   0.709   2.538   0.794  0.2098  0.0119 -0.0136
   62MOL   C13446616   0.986   2.578   0.832  0.3752 -0.7123 -0.3738
   62MOL   C13546617   1.126   2.591   0.843  0.3513  0.5287 -0.2292
   62MOL   H13646618   1.736   2.268   1.190 -0.0191  0.8319 -2.8609
   62MOL   H13746619   1.765   2.437   1.201 -0.9041 -1.0343 -0.7453
   62MOL   H13846620   1.700   2.457   1.425 -0.9602 -0.4154 -1.3594
   62MOL   H13946621   1.812   2.326   1.401  0.3762  0.1696 -0.7965
   62MOL   H14046622   1.635   2.151   1.436  2.2679  0.3120 -0.6938
   62MOL   H14146623   1.536   2.237   1.656 -2.7165  0.6623 -2.6388
   62MOL   H14246624   1.598   2.393   1.620  0.5583 -0.0036  1.3850
   62MOL   H14346625   1.423   2.365   1.424  1.9543  1.6546 -0.0265
   62MOL   H14446626   1.400   2.187   1.430 -0.6075 -0.3390 -2.0534
   62MOL   H14546627   1.520   2.173   1.201 -3.8504 -1.9789 -0.7231
   62MOL   H14646628   1.368   2.251   1.205 -0.4205 -3.2273  0.0973
   62MOL   H14746629   1.515   2.466   1.230  2.6540  0.9715 -0.1526
   62MOL   H14846630   1.584   2.314   0.973 -0.0410  1.8136 -3.0941
   62MOL   H14946631   1.593   2.487   1.001  0.3598 -0.2834 -0.7994
   62MOL   H15046632   1.178   2.351   1.073  0.9364 -0.4700 -1.2942
   62MOL   H15146633   0.929   2.356   1.087 -1.5274  2.2205  1.1638
   62MOL   H15246634   0.934   2.641   0.761  1.4509  0.4509 -0.1532
   62MOL   H15346635   1.183   2.658   0.781  2.4109 -1.5435 -0.6212
   62MOL   C15446636   0.653   2.255   0.453  0.1476  0.1211  0.6067
   62MOL   C15546637   0.642   2.392   0.514 -0.1576 -0.9150  0.0693
   62MOL   C15646638   0.596   2.373   0.659 -0.3095  0.3118 -0.4875
   62MOL   C15746639   0.580   2.498   0.748 -0.1731 -0.2477  0.1879
   62MOL   C15846640   0.470   2.286   0.661  0.0651  0.6382  0.2551
   62MOL   C15946641   0.481   2.149   0.599 -0.2313  0.3517 -0.5158
   62MOL   C16046642   0.527   2.164   0.455 -0.3018  0.3121 -0.1037
   62MOL   C16146643   0.551   2.025   0.378  0.2345  0.2967 -0.4563
   62MOL   O16246644   0.657   1.953   0.443 -0.0777  0.1748 -0.0058
   62MOL   C16346645   0.762   1.901   0.371  0.3781 -0.1890  0.0299
   62MOL   O16446646   0.772   1.921   0.248  0.0365 -0.2956  0.6582
   62MOL   C16546647   0.869   1.837   0.450  0.6072  0.0101  0.6060
   62MOL   C16646648   0.978   1.779   0.380 -0.6303  0.1462  0.4313
   62MOL   C16746649   1.093   1.734   0.453  0.1301 -0.3841  0.2541
   62MOL   C16846650   1.096   1.734   0.594  0.2808  0.3960 -0.7314
   62MOL   C16946651   1.215   1.686   0.653  0.1645 -0.1653  0.1119
   62MOL   O17046652   1.278   1.589   0.603  0.3561 -0.8841  0.3050
   62MOL   O17146653   1.249   1.734   0.773  0.0594  0.5347  0.4839
   62MOL   C17246654   0.983   1.785   0.663 -0.1522 -0.5722 -0.4234
   62MOL   C17346655   0.873   1.837   0.590 -0.3137  0.1490 -0.3369
   62MOL   H17446656   0.741   2.212   0.501  2.3401  4.8591  1.1142
   62MOL   H17546657   0.691   2.277   0.353 -0.4657  0.4875  0.4497
   62MOL   H17646658   0.590   2.472   0.462 -0.6938 -0.9431  0.5581
   62MOL   H17746659   0.747   2.424   0.515  0.5857 -3.1998 -1.9383
   62MOL   H17846660   0.673   2.311   0.706 -0.5690  1.3018  1.2963
   62MOL   H17946661   0.522   2.469   0.836  1.2778 -0.7027  1.0101
   62MOL   H18046662   0.545   2.595   0.713 -1.1717  0.1924  2.2948
   62MOL   H18146663   0.393   2.345   0.612  1.1678  2.2516  0.4180
   62MOL   H18246664   0.439   2.284   0.766 -2.9986 -0.2140 -0.6063
   62MOL   H18346665   0.556   2.096   0.657 -2.1760 -2.3165 -0.3439
   62MOL   H18446666   0.380   2.108   0.598 -0.5172  1.0229  0.7837
   62MOL   H18546667   0.452   2.218   0.398 -0.9479 -1.3496 -0.8692
   62MOL   H18646668   0.562   2.049   0.272 -2.8663  2.7038 -0.3156
   62MOL   H18746669   0.459   1.966   0.374  0.3593  0.1929 -3.3650
   62MOL   H18846670   0.988   1.782   0.273  1.0002  1.7976  0.6120
   62MOL   H18946671   1.182   1.718   0.394 -0.3553 -2.2252 -0.0099
   62MOL   H19046672   0.972   1.772   0.769 -0.4960 -0.2446 -0.4167
   62MOL   H19146673   0.791   1.866   0.654 -1.0471  0.7447 -1.5148
   62MOL   C19246674   1.561   2.025   0.874 -0.7755  0.0533 -0.0341
   62MOL   C19346675   1.451   1.924   0.893 -0.1582 -0.1733 -0.6255
   62MOL   C19446676   1.480   1.780   0.850  0.9095 -0.4144 -0.6584
   62MOL   C19546677   1.357   1.690   0.849 -0.0558 -0.2063  0.1645
   62MOL   C19646678   1.543   1.783   0.708 -0.2960  0.0029 -0.1227
   62MOL   C19746679   1.677   1.867   0.716  0.7751 -0.1167  0.0096
   62MOL   C19846680   1.654   2.011   0.743  0.5704  0.5465 -0.1341
   62MOL   C19946681   1.788   2.077   0.754 -0.4873  0.3481  0.1226
   62MOL   O20046682   1.780   2.215   0.772 -0.0636  0.5470 -0.0295
   62MOL   C20146683   1.841   2.284   0.875  0.4941  0.1740  0.2143
   62MOL   O20246684   1.906   2.230   0.966  0.5742 -0.0378 -0.5697
   62MOL   C20346685   1.833   2.430   0.855  0.4453  0.1583 -0.4850
   62MOL   C20446686   1.769   2.489   0.744 -0.2263  0.3843 -0.3418
   62MOL   C20546687   1.765   2.627   0.723  0.0239  0.0702  0.0079
   62MOL   C20646688   1.822   2.721   0.811 -0.1244  0.2968  0.1233
   62MOL   C20746689   1.808   2.865   0.782  0.4706 -0.0603 -0.9595
   62MOL   O20846690   1.870   2.948   0.848 -0.4466  0.4196  1.0153
   62MOL   O20946691   1.716   2.892   0.683 -0.0565 -0.0985  0.3798
   62MOL   C21046692   1.876   2.665   0.930 -1.2790  0.1690 -0.8171
   62MOL   C21146693   1.887   2.525   0.948 -0.2507  0.2803  0.7504
   62MOL   H21246694   1.629   1.992   0.953  1.8085  0.7681 -1.8726
   62MOL   H21346695   1.534   2.125   0.907 -2.5927  0.1586 -1.7660
   62MOL   H21446696   1.373   1.967   0.830 -2.7422 -0.7862  2.0100
   62MOL   H21546697   1.416   1.922   0.996 -0.1431 -0.0369 -0.6169
   62MOL   H21646698   1.548   1.738   0.924 -0.4587  0.7215  1.2735
   62MOL   H21746699   1.311   1.676   0.947  0.2897  0.1239  0.3778
   62MOL   H21846700   1.373   1.588   0.815 -0.5611  0.4214 -2.0114
   62MOL   H21946701   1.466   1.817   0.639 -2.3558 -1.4984  1.3354
   62MOL   H22046702   1.558   1.679   0.678  0.3049  0.1959 -0.4871
   62MOL   H22146703   1.736   1.816   0.792 -0.3268  0.7127  1.4457
   62MOL   H22246704   1.739   1.848   0.628  0.2766 -1.7685 -0.0128
   62MOL   H22346705   1.604   2.062   0.661 -3.8015  1.5394  2.9696
   62MOL   H22446706   1.845   2.050   0.665 -0.3715  1.5023 -0.1670
   62MOL   H22546707   1.844   2.027   0.833 -0.4119  1.2740  0.6747
   62MOL   H22646708   1.717   2.429   0.671  0.4999 -1.4240  0.5970
   62MOL   H22746709   1.714   2.665   0.635 -0.0685  0.3857  0.1982
   62MOL   H22846710   1.922   2.730   1.003  0.3139 -1.9290  0.1031
   62MOL   H22946711   1.942   2.487   1.033  0.7560 -0.4748 -0.2217
   62MOL   C23046712   1.485   3.223   0.380  0.7393  0.2439 -0.5473
   62MOL   C23146713   1.603   3.190   0.466  0.3665 -0.6553  0.2901
   62MOL   C23246714   1.590   3.056   0.546  0.5042  0.2865 -0.7755
   62MOL   C23346715   1.708   3.033   0.641 -0.1335  0.1117  0.2089
   62MOL   C23446716   1.457   3.052   0.626 -0.3231  0.2229 -0.2838
   62MOL   C23546717   1.343   3.078   0.523 -0.2235  0.0503 -0.6515
   62MOL   C23646718   1.353   3.223   0.465  0.4071  0.0038 -0.5121
   62MOL   C23746719   1.227   3.272   0.377 -0.5830  0.3176 -0.1326
   62MOL   O23846720   1.220   3.175   0.266  0.4836  0.3852 -0.4945
   62MOL   C23946721   1.110   3.096   0.251  0.4056 -0.2344  0.1948
   62MOL   O24046722   1.004   3.100   0.316  0.0041  0.5737 -0.5607
   62MOL   C24146723   1.131   2.997   0.149  0.7816 -0.4973 -0.4728
   62MOL   C24246724   1.252   2.977   0.080 -0.6898 -0.1744  0.3493
   62MOL   C24346725   1.274   2.870   8.026 -0.2919 -0.4559  0.4523
   62MOL   C24446726   1.174   2.775   8.012  0.4316  0.3349  0.2839
   62MOL   C24546727   1.191   2.652   7.917 -0.2919 -0.5773 -0.2954
   62MOL   O24646728   1.284   2.633   7.845 -0.2799  0.2581 -0.0638
   62MOL   O24746729   1.085   2.570   7.932 -0.2274 -0.2749  0.1523
   62MOL   C24846730   1.055   2.789   0.054  0.0165  0.6424  0.3601
   62MOL   C24946731   1.029   2.898   0.134  0.2734  0.5266 -0.7648
   62MOL   H25046732   1.476   3.153   0.298 -2.7558  0.8994 -0.7930
   62MOL   H25146733   1.509   3.319   0.334 -0.4677  0.4225 -0.8079
   62MOL   H25246734   1.626   3.276   0.529  0.6841 -0.5146 -0.0197
   62MOL   H25346735   1.694   3.186   0.406  0.2411 -0.0132  0.0604
   62MOL   H25446736   1.598   2.977   0.472 -3.5608 -0.9999  0.0229
   62MOL   H25546737   1.704   3.100   0.727  0.8174  0.3137  0.0977
   62MOL   H25646738   1.805   3.052   0.596 -0.0563 -0.4164  0.1426
   62MOL   H25746739   1.447   3.124   0.707 -0.3819 -0.3001  0.1772
   62MOL   H25846740   1.445   2.952   0.668  1.5482 -1.0666 -2.6999
   62MOL   H25946741   1.335   2.999   0.449  0.0513  0.7437 -1.4327
   62MOL   H26046742   1.247   3.058   0.571 -0.9030  1.7957 -1.2447
   62MOL   H26146743   1.361   3.304   0.537 -1.7115  1.1829 -1.5361
   62MOL   H26246744   1.258   3.371   0.343 -1.2034  0.0567 -1.4842
   62MOL   H26346745   1.133   3.283   0.431 -0.2857  2.3262  0.0265
   62MOL   H26446746   1.329   3.052   0.090 -0.6590 -0.0579 -0.6736
   62MOL   H26546747   1.366   2.860   7.971  0.1295 -0.6018  1.1800
   62MOL   H26646748   0.967   2.726   0.051 -1.1745  2.3030 -0.8138
   62MOL   H26746749   0.951   2.899   0.209 -0.2566  0.4040 -1.3074
   62MOL   C26846750   1.214   2.086   7.950 -0.0919 -0.5525 -0.1801
   62MOL   C26946751   1.136   2.188   7.873 -0.0323 -0.3830 -0.3239
   62MOL   C27046752   1.141   2.332   7.936  0.2288  0.4470  0.1415
   62MOL   C27146753   1.073   2.443   7.865  0.2145 -0.5992 -0.2860
   62MOL   C27246754   1.098   2.336   0.057  0.2545 -0.1002 -0.4714
   62MOL   C27346755   1.151   2.209   0.140 -1.1899 -0.1606  0.4907
   62MOL   C27446756   1.164   2.071   0.069  0.4422 -0.3872  0.6523
   62MOL   C27546757   1.244   1.963   0.150  0.0555 -0.3907  0.3033
   62MOL   O27646758   1.367   2.016   0.188  0.4962  0.2724 -0.1169
   62MOL   C27746759   1.442   1.958   0.278 -0.3433  0.5410 -0.2955
   62MOL   O27846760   1.419   1.847   0.327 -0.6317 -0.3705  0.5710
   62MOL   C27946761   1.553   2.045   0.322  0.1433  0.3854  0.4112
   62MOL   C28046762   1.672   1.986   0.371  0.4152  1.1818 -0.8246
   62MOL   C28146763   1.778   2.069   0.401  0.2175  0.3114 -0.7125
   62MOL   C28246764   1.771   2.209   0.400  0.3055 -0.6316  0.4915
   62MOL   C28346765   1.877   2.296   0.455 -0.1988  0.2750  0.7477
   62MOL   O28446766   1.869   2.420   0.456  0.0597 -0.2957 -0.5148
   62MOL   O28546767   1.986   2.218   0.487  0.4704 -0.4415  0.4476
   62MOL   C28646768   1.651   2.271   0.345 -0.6511 -0.0923 -0.5840
   62MOL   C28746769   1.547   2.184   0.307 -0.4965 -0.4145  0.0337
   62MOL   H28846770   1.319   2.112   7.942 -0.1262  0.2539  1.8021
   62MOL   H28946771   1.199   1.989   7.901  0.1045 -0.3751 -0.5922
   62MOL   H29046772   1.032   2.155   7.872 -0.5257  1.1465 -0.7949
   62MOL   H29146773   1.176   2.197   7.772 -0.5562 -0.7657 -0.5651
   62MOL   H29246774   1.246   2.359   7.930  0.1521  1.1327  1.5295
   62MOL   H29346775   0.968   2.419   7.853  0.6421 -2.1860 -0.9465
   62MOL   H29446776   1.113   2.459   7.765  0.9380  0.3193  0.1419
   62MOL   H29546777   0.990   2.341   0.058  0.1798 -1.3914 -1.1061
   62MOL   H29646778   1.133   2.423   0.112  3.1492 -1.7663  0.4635
   62MOL   H29746779   1.242   2.246   0.187  0.2728 -2.0996 -0.7358
   62MOL   H29846780   1.092   2.188   0.229 -2.5503  0.7214 -0.1807
   62MOL   H29946781   1.064   2.030   0.060  0.2104  0.8133 -2.6715
   62MOL   H30046782   1.267   1.871   0.097  1.7833  0.0129  0.3219
   62MOL   H30146783   1.191   1.948   0.244 -0.3632 -0.5302  0.0435
   62MOL   H30246784   1.685   1.879   0.381 -0.2641  1.0548 -1.3114
   62MOL   H30346785   1.868   2.017   0.432  0.8308  1.4043 -0.6443
   62MOL   H30446786   1.654   2.379   0.342  2.7200 -0.1072 -0.1892
   62MOL   H30546787   1.461   2.234   0.265 -0.6906 -0.1575  0.7385
   62MOL   C30646788   2.299   2.375   0.827 -0.1447 -1.1381  0.4658
   62MOL   C30746789   2.269   2.365   0.678  0.3221  0.1790  0.0758
   62MOL   C30846790   2.152   2.263   0.650 -0.5370 -0.6652 -0.0662
   62MOL   C30946791   2.106   2.277   0.500  0.2265 -0.1300 -0.2110
   62MOL   C31046792   2.209   2.121   0.689 -0.1815  0.7925 -0.2478
   62MOL   C31146793   2.234   2.121   0.843  0.1834 -0.4492 -0.2951
   62MOL   C31246794   2.326   2.236   0.889 -0.2451 -0.2774  0.3867
   62MOL   C31346795   2.340   2.244   1.038 -0.6261 -0.7817  0.0481
   62MOL   O31446796   2.456   2.319   1.079  0.1785 -0.3387  0.2213
   62MOL   C31546797   2.549   2.256   1.148  0.7769  0.8504  0.1577
   62MOL   O31646798   2.541   2.137   1.185  0.0679  0.0372  0.6196
   62MOL   C31746799   2.661   2.350   1.185 -0.5709 -0.3900 -0.4669
   62MOL   C31846800   2.793   2.311   1.193  0.0860  0.1960 -0.2156
   62MOL   C31946801   2.896   2.396   1.211  0.7135  0.1392 -0.3269
   62MOL   C32046802   2.872   2.530   1.246 -0.2893 -0.1348 -0.1177
   62MOL   C32146803   2.984   2.624   1.273 -0.6105 -0.0064  0.2852
   62MOL   O32246804   3.104   2.591   1.265 -0.3857  0.0390  0.0151
   62MOL   O32346805   2.946   2.742   1.310  0.3097  0.2460  0.0247
   62MOL   C32446806   2.733   2.571   1.254  0.1676 -0.3007  0.2916
   62MOL   C32546807   2.627   2.485   1.221 -0.4981  0.7372  0.7574
   62MOL   H32646808   2.213   2.425   0.873 -0.3393 -0.0701 -1.0437
   62MOL   H32746809   2.386   2.438   0.845 -1.1854 -0.0961  1.9980
   62MOL   H32846810   2.367   2.341   0.635  0.7767  1.9434  0.1020
   62MOL   H32946811   2.251   2.466   0.641 -0.1246 -0.0246 -0.2591
   62MOL   H33046812   2.070   2.302   0.710 -0.0077  0.2688  0.0519
   62MOL   H33146813   2.184   2.245   0.430  0.7145 -0.8527  0.6488
   62MOL   H33246814   2.095   2.383   0.478 -2.8320 -0.0488  1.5017
   62MOL   H33346815   2.299   2.091   0.635 -0.9656 -3.6611  0.6915
   62MOL   H33446816   2.131   2.048   0.665  0.1013  0.3065  0.3145
   62MOL   H33546817   2.135   2.120   0.890  0.2746 -0.8089 -0.1070
   62MOL   H33646818   2.291   2.030   0.864  0.5714 -0.4599 -1.3499
   62MOL   H33746819   2.427   2.213   0.854  0.2378  1.2587  0.7553
   62MOL   H33846820   2.343   2.142   1.078 -2.4093 -0.1775  1.8000
   62MOL   H33946821   2.252   2.284   1.088 -0.9114 -1.4495  0.0931
   62MOL   H34046822   2.822   2.209   1.174  0.4227  0.3587 -0.5882
   62MOL   H34146823   2.999   2.360   1.208  0.6423  0.0315 -1.7693
   62MOL   H34246824   2.700   2.674   1.266  0.9727 -0.0357  0.2335
   62MOL   H34346825   2.530   2.531   1.220  0.1265  2.1316  1.8093
   62MOL   C34446826   2.937   2.991   1.684  0.3747  0.0571 -0.0409
   62MOL   C34546827   3.000   2.898   1.583  0.4297  0.3642 -0.2342
   62MOL   C34646828   3.000   2.954   1.442 -0.0304  0.4871 -0.8458
   62MOL   C34746829   3.033   2.844   1.334 -0.4557  0.1587 -0.2742
   62MOL   C34846830   2.870   3.036   1.412 -0.4269  0.8781 -0.7480
   62MOL   C34946831   2.833   3.138   1.521 -0.0121  0.5731  0.1033
   62MOL   C35046832   2.802   3.063   1.650  0.3410 -0.6499  0.4542
   62MOL   C35146833   2.760   3.170   1.754 -0.5817 -0.6188  0.8375
   62MOL   O35246834   2.864   3.264   1.766 -0.5680  0.1504 -0.9703
   62MOL   C35346835   2.836   3.378   1.830  0.0286 -0.0909  0.9726
   62MOL   O35446836   2.722   3.409   1.877  0.1222  0.0399 -0.0473
   62MOL   C35546837   2.956   3.472   1.830  0.4236 -0.2185 -0.4182
   62MOL   C35646838   2.937   3.593   1.907 -0.3608  0.7045  0.0024
   62MOL   C35746839   3.034   3.690   1.904 -0.8097 -0.6242 -0.3990
   62MOL   C35846840   3.161   3.660   1.835  0.3963  0.5031 -0.4826
   62MOL   C35946841   3.269   3.763   1.823  0.1914  0.2884 -0.3147
   62MOL   O36046842   3.245   3.882   1.825 -0.7583 -0.1302  0.4643
   62MOL   O36146843   3.386   3.716   1.785 -0.1827  0.9273 -0.3967
   62MOL   C36246844   3.179   3.534   1.777 -0.1307 -0.0249 -0.1520
   62MOL   C36346845   3.072   3.442   1.759 -0.1591  0.0679  0.2382
   62MOL   H36446846   3.009   3.060   1.728 -0.5594  0.7711  0.3748
   62MOL   H36546847   2.895   2.938   1.770  0.5365  2.0002  1.2691
   62MOL   H36646848   2.947   2.803   1.585  0.9463  0.0627 -0.5069
   62MOL   H36746849   3.102   2.871   1.610  0.9951  0.0579 -2.5224
   62MOL   H36846850   3.083   3.025   1.438  0.8646 -0.4479  0.5897
   62MOL   H36946851   3.129   2.805   1.369 -0.0523  0.5208 -0.9548
   62MOL   H37046852   3.036   2.896   1.238  0.0376  0.0889 -0.2984
   62MOL   H37146853   2.787   2.966   1.398  0.1438  0.2661 -1.0811
   62MOL   H37246854   2.887   3.084   1.316 -0.6312 -0.3951 -1.4328
   62MOL   H37346855   2.919   3.206   1.528  2.5234 -2.6713  1.7460
   62MOL   H37446856   2.742   3.187   1.487 -0.8938  0.4844  2.2949
   62MOL   H37546857   2.726   2.985   1.641 -2.2020  1.8083 -0.0261
   62MOL   H37646858   2.744   3.116   1.846 -0.6263 -2.2938 -0.1395
   62MOL   H37746859   2.670   3.222   1.721  0.4986  0.9362  0.2612
   62MOL   H37846860   2.843   3.614   1.957 -0.4575 -0.5481  0.3666
   62MOL   H37946861   3.031   3.788   1.950  0.9918 -0.6441 -0.1775
   62MOL   H38046862   3.272   3.512   1.727 -0.9949 -1.0218 -1.3476
   62MOL   H38146863   3.075   3.354   1.697  2.0700 -0.0532  0.4494
   62MOL   C38246864   3.741   4.052   1.906  0.2254 -0.1071 -0.7962
   62MOL   C38346865   3.640   3.985   1.805  0.1896  1.0199  0.0966
   62MOL   C38446866   3.578   3.853   1.854 -0.0078 -0.0327 -0.2185
   62MOL   C38546867   3.494   3.798   1.739  0.5450  0.3441  0.2157
   62MOL   C38646868   3.689   3.759   1.891  0.0912 -0.3849  0.3845
   62MOL   C38746869   3.773   3.824   2.000 -0.4883 -0.3454  0.0050
   62MOL   C38846870   3.841   3.960   1.965  0.1285  0.7014  0.2234
   62MOL   C38946871   3.901   4.021   2.094  0.4785  0.1607 -0.5989
   62MOL   O39046872   3.935   4.154   2.076 -0.1190  0.1084 -0.0671
   62MOL   C39146873   3.883   4.248   2.160 -0.1644  0.3434  0.0788
   62MOL   O39246874   3.793   4.240   2.242  0.1893  0.2846 -0.3222
   62MOL   C39346875   3.947   4.377   2.128  0.3752 -0.2767 -0.3898
   62MOL   C39446876   4.023   4.404   2.009  0.9178 -0.3592 -0.1994
   62MOL   C39546877   4.082   4.532   1.991 -0.2395 -0.5391 -0.4676
   62MOL   C39646878   4.079   4.636   2.088 -0.5728  0.3263  0.1003
   62MOL   C39746879   4.152   4.761   2.067 -0.3336 -0.0525 -0.1884
   62MOL   O39846880   4.211   4.786   1.962  0.2308 -0.2199  0.6000
   62MOL   O39946881   4.136   4.852   2.166  0.0344 -0.4200 -0.6798
   62MOL   C40046882   4.001   4.610   2.205 -0.0919  0.4574  0.2234
   62MOL   C40146883   3.935   4.485   2.219 -0.3320  0.7665  0.1101
   62MOL   H40246884   3.679   4.088   1.989  1.6888 -0.4965  0.4843
   62MOL   H40346885   3.790   4.140   1.864  2.1225 -1.2337 -0.9819
   62MOL   H40446886   3.702   3.962   1.719 -1.4322 -0.2468 -0.7601
   62MOL   H40546887   3.569   4.060   1.770  0.0556  1.1946  0.7358
   62MOL   H40646888   3.521   3.881   1.942  1.9916  1.8099  0.5317
   62MOL   H40746889   3.564   3.758   1.665  0.0969  0.4320 -0.2592
   62MOL   H40846890   3.448   3.881   1.686  3.3541  2.3896  0.8444
   62MOL   H40946891   3.762   3.744   1.811  0.7084  0.5242  0.7667
   62MOL   H41046892   3.659   3.659   1.922  0.2722 -0.7553 -0.6148
   62MOL   H41146893   3.700   3.829   2.080 -1.9060 -0.7271 -1.2441
   62MOL   H41246894   3.858   3.769   2.042  1.6546  1.4297 -1.8622
   62MOL   H41346895   3.924   3.954   1.894 -0.3959 -3.0304 -0.2140
   62MOL   H41446896   3.990   3.973   2.136  1.6743  0.8393 -2.2690
   62MOL   H41546897   3.823   4.019   2.170  0.0017  0.7293 -1.0750
   62MOL   H41646898   4.049   4.332   1.932  2.0689  1.0599 -1.1614
   62MOL   H41746899   4.145   4.553   1.906  0.0030  1.5618  0.1937
   62MOL   H41846900   4.023   4.677   2.287 -2.2538  0.1154  1.1321
   62MOL   H41946901   3.893   4.458   2.315  1.5035  1.6017  1.1585
   62MOL   C42046902   4.236   5.242   2.459 -0.3232  0.0442  0.1820
   62MOL   C42146903   4.219   5.187   2.311  0.5846  0.5241  0.3158
   62MOL   C42246904   4.193   5.036   2.313 -0.2843  0.1986 -0.2655
   62MOL   C42346905   4.184   4.984   2.168 -0.2694 -0.2255 -0.1031
   62MOL   C42446906   4.311   4.975   2.390 -0.1555  0.4422 -0.5929
   62MOL   C42546907   4.348   5.017   2.539  0.0033 -0.5181  0.2291
   62MOL   C42646908   4.353   5.180   2.542 -0.5982  0.0071 -0.4645
   62MOL   C42746909   4.366   5.223   2.696 -0.2969 -1.0187 -0.5485
   62MOL   O42846910   4.470   5.158   2.754 -0.2630  0.0907  0.5465
   62MOL   C42946911   4.474   5.152   2.892 -0.3291 -0.1432  0.2894
   62MOL   O43046912   4.405   5.227   2.960  0.8762  0.1793 -0.1237
   62MOL   C43146913   4.574   5.058   2.948  0.3573 -0.8091 -0.5774
   62MOL   C43246914   4.612   5.060   3.086 -0.4452  0.6935  0.5775
   62MOL   C43346915   4.720   4.983   3.133  0.2242 -0.6673 -0.2193
   62MOL   C43446916   4.779   4.882   3.046 -0.9699 -0.0544 -0.0117
   62MOL   C43546917   4.872   4.776   3.098  0.4316  0.3752  1.2023
   62MOL   O43646918   4.929   4.692   3.028 -0.4341 -0.7169 -0.3799
   62MOL   O43746919   4.881   4.778   3.231  0.0909  0.2769  0.0952
   62MOL   C43846920   4.730   4.870   2.915  0.6633  0.4913  0.9329
   62MOL   C43946921   4.635   4.958   2.864 -0.0554  0.6636  0.0709
   62MOL   H44046922   4.144   5.218   2.511 -0.5469 -0.4357 -0.4249
   62MOL   H44146923   4.242   5.350   2.455 -1.8542  0.1716  0.9206
   62MOL   H44246924   4.312   5.216   2.262  1.2869  0.6447  1.7175
   62MOL   H44346925   4.142   5.243   2.259 -1.3150 -0.2421  2.2489
   62MOL   H44446926   4.104   5.004   2.368 -1.3557  1.5651 -1.1583
   62MOL   H44546927   4.285   4.990   2.127 -0.3144 -0.7785 -0.2958
   62MOL   H44646928   4.117   5.052   2.115  1.2622  2.9078  1.8962
   62MOL   H44746929   4.403   4.982   2.332  0.2513  2.8886  0.2717
   62MOL   H44846930   4.296   4.867   2.387 -1.0847  0.5106  0.9017
   62MOL   H44946931   4.269   4.977   2.602 -0.7281  1.6888  0.7617
   62MOL   H45046932   4.437   4.965   2.575 -0.0200  0.3377  1.5698
   62MOL   H45146933   4.445   5.205   2.489 -0.4969 -1.3083 -0.9433
   62MOL   H45246934   4.275   5.189   2.747  0.3139 -0.8299  0.6767
   62MOL   H45346935   4.370   5.331   2.709 -0.7451 -1.1611  0.9598
   62MOL   H45446936   4.567   5.128   3.158 -1.1345 -0.0627  0.8779
   62MOL   H45546937   4.739   4.990   3.239 -3.0557  0.4923  0.3704
   62MOL   H45646938   4.765   4.789   2.852 -2.5677  1.7369 -2.6668
   62MOL   H45746939   4.602   4.948   2.762 -0.4572  1.3397  0.1363
   62MOL   C45846940   4.752   4.694   3.639 -0.0408  0.4884 -0.3627
   62MOL   C45946941   4.774   4.673   3.486  0.2616 -0.4142 -0.3022
   62MOL   C46046942   4.922   4.697   3.448  0.2057  0.5150  0.6429
   62MOL   C46146943   4.958   4.677   3.297  0.0566  1.5371 -0.0804
   62MOL   C46246944   4.961   4.841   3.508 -0.1525 -0.6205  0.2812
   62MOL   C46346945   4.941   4.846   3.656 -0.2316  0.0158  0.3856
   62MOL   C46446946   4.794   4.831   3.683 -0.1608  0.1216 -0.2260
   62MOL   C46546947   4.766   4.863   3.832  0.4443  0.0427 -0.6402
   62MOL   O46646948   4.836   4.768   3.910 -0.3328  0.3201 -0.4023
   62MOL   C46746949   4.920   4.809   4.002 -0.0106 -0.2935 -0.1881
   62MOL   O46846950   4.918   4.921   4.054  0.1304 -0.4923  0.1943
   62MOL   C46946951   4.986   4.682   4.050 -0.4603  0.3992  0.1280
   62MOL   C47046952   5.051   4.683   4.175 -0.9181 -0.2167 -0.1440
   62MOL   C47146953   5.103   4.569   4.240 -0.1665  0.1774 -0.4823
   62MOL   C47246954   5.104   4.444   4.166  0.2622 -0.1676  0.4074
   62MOL   C47346955   5.165   4.313   4.211  0.3620 -0.6127  0.4203
   62MOL   O47446956   5.232   4.294   4.310 -0.6544  0.1863 -0.8640
   62MOL   O47546957   5.127   4.211   4.129 -0.1966  0.0252 -0.3221
   62MOL   C47646958   5.049   4.446   4.037  0.7922  0.4370  0.3728
   62MOL   C47746959   4.992   4.559   3.977 -0.0801  0.2111  0.4903
   62MOL   H47846960   4.808   4.615   3.687 -0.9456 -0.8882 -1.5291
   62MOL   H47946961   4.652   4.667   3.672  0.4979  0.5565  1.3551
   62MOL   H48046962   4.710   4.741   3.429 -0.6936 -0.8094  0.2811
   62MOL   H48146963   4.744   4.571   3.459 -2.0077 -0.0434  0.6721
   62MOL   H48246964   4.972   4.621   3.508 -1.2894  0.8985  2.3869
   62MOL   H48346965   4.907   4.591   3.253 -0.0484  2.5928 -2.0665
   62MOL   H48446966   5.063   4.683   3.268  0.2223 -2.6885 -0.7038
   62MOL   H48546967   4.887   4.912   3.470  0.0276 -1.6365 -2.0425
   62MOL   H48646968   5.061   4.876   3.483  0.0632 -1.0158  0.5766
   62MOL   H48746969   4.992   4.762   3.703  0.6603  1.3053  1.7633
   62MOL   H48846970   4.983   4.937   3.699 -0.5937  0.3846 -0.0452
   62MOL   H48946971   4.740   4.903   3.622 -0.0479  1.3587  1.1187
   62MOL   H49046972   4.660   4.854   3.858  0.7903  0.3898  0.9268
   62MOL   H49146973   4.782   4.968   3.858 -0.4434 -0.4973  2.2685
   62MOL   H49246974   5.059   4.781   4.221  1.4903 -1.3739  2.1150
   62MOL   H49346975   5.142   4.575   4.341 -0.1440  0.5203 -0.5103
   62MOL   H49446976   5.043   4.350   3.989 -1.7365  0.3616  0.7297
   62MOL   H49546977   4.942   4.550   3.882 -1.9746 -1.1620  1.5920
   62MOL   C49646978   5.159   3.925   3.799 -0.5360 -0.2012 -0.1867
   62MOL   C49746979   5.207   4.013   3.912 -0.2171  0.3416  0.3217
   62MOL   C49846980   5.113   4.000   4.031  0.0750 -0.3824  0.3350
   62MOL   C49946981   5.168   4.080   4.148  0.7560 -0.2409  0.8383
   62MOL   C50046982   4.962   4.036   3.996  0.1439 -0.6638  1.1090
   62MOL   C50146983   4.913   3.947   3.880 -0.4758 -0.2277  0.4666
   62MOL   C50246984   5.009   3.966   3.768  0.0378 -0.1347  0.6505
   62MOL   C50346985   4.960   3.900   3.638 -0.1564  0.0507  1.1126
   62MOL   O50446986   5.037   3.948   3.530 -0.1328 -0.6321  0.1697
   62MOL   C50546987   5.014   3.907   3.406 -0.0120  0.4188  0.5704
   62MOL   O50646988   4.911   3.845   3.372  0.1034  0.0204 -0.2677
   62MOL   C50746989   5.123   3.929   3.306 -0.0439  0.3568  0.0788
   62MOL   C50846990   5.237   3.996   3.348 -0.1150 -0.1305  0.1153
   62MOL   C50946991   5.344   4.011   3.260  0.5030  0.0543 -0.0250
   62MOL   C51046992   5.328   3.976   3.123  0.0443  0.5431 -0.2399
   62MOL   C51146993   5.437   3.990   3.024 -0.8602  0.1442  0.9141
   62MOL   O51246994   5.425   3.987   2.903  0.5245  0.6500  0.3176
   62MOL   O51346995   5.557   4.004   3.081  0.7017  0.3733 -0.0516
   62MOL   C51446996   5.214   3.913   3.075 -0.8688 -0.6496 -0.2458
   62MOL   C51546997   5.110   3.879   3.168 -0.2024 -0.0736  0.4889
   62MOL   H51646998   5.159   3.817   3.810  0.3490 -0.1412  0.3940
   62MOL   H51746999   5.214   3.946   3.707 -0.3364  0.0796 -0.0032
   62MOL   H51847000   5.214   4.115   3.875 -0.1655 -0.4287 -1.9278
   62MOL   H51947001   5.309   3.990   3.940 -0.3301 -1.2073 -0.4727
   62MOL   H52047002   5.113   3.896   4.066 -3.1489  0.3184  2.6186
   62MOL   H52147003   5.276   4.072   4.157  0.9922  0.5453 -1.0386
   62MOL   H52247004   5.115   4.031   4.230 -1.6353  0.1699 -0.4213
   62MOL   H52347005   4.952   4.143   3.979 -0.6379 -0.7379  1.1100
   62MOL   H52447006   4.895   4.019   4.080 -0.0587  1.4511  1.3920
   62MOL   H52547007   4.917   3.841   3.903 -1.6432 -0.3972 -0.0540
   62MOL   H52647008   4.808   3.962   3.856 -0.7934 -2.6279  0.2654
   62MOL   H52747009   5.008   4.073   3.751  3.4439 -0.1878 -0.4118
   62MOL   H52847010   4.857   3.929   3.621  0.1697 -0.6729 -2.4757
   62MOL   H52947011   4.969   3.792   3.638  1.1128  0.1224 -0.8625
   62MOL   H53047012   5.250   4.029   3.450 -1.9568 -1.3543  0.7574
   62MOL   H53147013   5.433   4.057   3.301  1.2330 -0.0388 -1.4915
   62MOL   H53247014   5.202   3.896   2.969 -0.9068  0.1011 -0.3619
   62MOL   H53347015   5.012   3.847   3.136 -1.1638  2.7546  0.4661
   62MOL   C53447016   6.028   4.054   3.152 -0.1400 -0.4125  0.1228
   62MOL   C53547017   5.917   4.067   3.047 -0.2310 -0.1629 -0.8812
   62MOL   C53647018   5.790   3.993   3.096  0.2498  0.3120  0.1179
   62MOL   C53747019   5.674   4.016   2.997  0.2777  0.4893  0.4978
   62MOL   C53847020   5.822   3.843   3.102  0.0403  0.1257  0.0444
   62MOL   C53947021   5.947   3.820   3.197  0.0282  0.2425  0.0498
   62MOL   C54047022   6.070   3.910   3.167 -0.4010 -0.0218  0.5412
   62MOL   C54147023   6.170   3.896   3.284 -0.7250 -0.0288 -0.3453
   62MOL   O54247024   6.296   3.958   3.266 -0.3450 -0.2063  0.5026
   62MOL   C54347025   6.324   4.075   3.324  1.0355 -0.1533  0.1210
   62MOL   O54447026   6.257   4.121   3.417  0.3889 -0.4166 -0.0120
   62MOL   C54547027   6.423   4.151   3.243 -0.1101  0.3843 -0.1330
   62MOL   C54647028   6.466   4.101   3.117 -0.1162 -0.3390  0.3362
   62MOL   C54747029   6.571   4.174   3.052 -0.4875  0.6253 -0.5647
   62MOL   C54847030   6.619   4.297   3.106  0.4514 -0.1340  0.5558
   62MOL   C54947031   6.734   4.372   3.040 -0.8115 -0.5573  0.4253
   62MOL   O55047032   6.816   4.318   2.968  0.2461 -0.2784  0.8907
   62MOL   O55147033   6.744   4.499   3.072  0.5012  0.0986  0.0829
   62MOL   C55247034   6.562   4.351   3.225  0.2442  0.0629  0.7752
   62MOL   C55347035   6.464   4.276   3.292 -0.2331 -0.4634 -1.2028
   62MOL   H55447036   5.991   4.105   3.241 -2.1643 -1.8773  0.1614
   62MOL   H55547037   6.122   4.096   3.115  0.3479 -1.7890 -0.2370
   62MOL   H55647038   5.952   4.039   2.948 -2.1493  1.2902 -1.9952
   62MOL   H55747039   5.877   4.167   3.028  0.3312 -0.1208 -1.8772
   62MOL   H55847040   5.757   4.033   3.192  0.4949  1.1526 -0.1389
   62MOL   H55947041   5.682   3.946   2.914 -1.6690  1.0209 -0.1640
   62MOL   H56047042   5.667   4.111   2.944 -0.2687  0.8621  1.2284
   62MOL   H56147043   5.842   3.802   3.003  1.1991  1.8321 -0.4322
   62MOL   H56247044   5.729   3.794   3.134  1.1910 -1.0972  1.6153
   62MOL   H56347045   5.924   3.836   3.303  0.1377  2.0992 -0.1892
   62MOL   H56447046   5.974   3.715   3.189 -1.5559 -0.2921  1.4247
   62MOL   H56547047   6.106   3.865   3.075 -1.9791  1.6445 -0.9431
   62MOL   H56647048   6.186   3.790   3.303  1.8821  0.8242  2.4969
   62MOL   H56747049   6.116   3.941   3.367  1.3799  0.1106  0.9735
   62MOL   H56847050   6.435   4.006   3.076 -2.7318  1.1417 -1.2211
   62MOL   H56947051   6.626   4.132   2.969  0.0969  0.4724 -0.1126
   62MOL   H57047052   6.594   4.441   3.274  1.6024 -0.2929  0.5618
   62MOL   H57147053   6.416   4.306   3.385  0.9998 -1.1608 -0.3331
   62MOL   C57247054   6.918   4.954   3.126 -0.1421 -0.8345 -0.5096
   62MOL   C57347055   6.957   4.805   3.098  0.2520 -0.6515 -0.8392
   62MOL   C57447056   6.833   4.716   3.104 -0.8579 -0.3679 -0.9301
   62MOL   C57547057   6.863   4.579   3.063 -0.0492  0.2302 -0.0354
   62MOL   C57647058   6.769   4.735   3.245 -0.8886  0.2085  0.1741
   62MOL   C57747059   6.739   4.881   3.271  0.3173 -0.5500 -0.0949
   62MOL   C57847060   6.849   4.976   3.261  0.2203 -0.3371  0.3307
   62MOL   C57947061   6.800   5.122   3.268  0.4870 -0.2056  0.1224
   62MOL   O58047062   6.899   5.208   3.321  0.1163 -0.0887 -0.2961
   62MOL   C58147063   6.904   5.206   3.463 -0.4596  0.2811  0.5081
   62MOL   O58247064   6.842   5.134   3.539 -0.0580  0.2406 -0.5087
   62MOL   C58347065   6.998   5.324   3.508 -0.5216 -1.4083 -0.6321
   62MOL   C58447066   7.036   5.336   3.645 -0.5025  0.7371  0.0983
   62MOL   C58547067   7.094   5.450   3.700  0.1834 -0.2551  0.5492
   62MOL   C58647068   7.139   5.549   3.613 -0.2413  0.1797 -0.3692
   62MOL   C58747069   7.201   5.674   3.667 -0.6103 -0.0855 -0.6527
   62MOL   O58847070   7.248   5.680   3.783 -0.1567 -0.3430  0.5673
   62MOL   O58947071   7.208   5.782   3.577 -0.2331  0.0220  0.4764
   62MOL   C59047072   7.109   5.543   3.468 -0.6467  0.1043 -0.0238
   62MOL   C59147073   7.043   5.429   3.418 -0.0301 -0.1022 -1.2065
   62MOL   H59247074   6.845   4.986   3.051  1.0340  1.8676 -0.5330
   62MOL   H59347075   7.006   5.017   3.127 -1.8184  1.6005  1.6842
   62MOL   H59447076   7.033   4.774   3.170  0.8824 -0.1809 -1.2942
   62MOL   H59547077   7.000   4.807   2.998  0.9292  0.3648 -0.5462
   62MOL   H59647078   6.755   4.740   3.032 -0.5585 -1.0597 -1.5016
   62MOL   H59747079   6.946   4.535   3.118  0.8771 -0.4582 -1.9565
   62MOL   H59847080   6.889   4.581   2.958 -0.7607  1.1443 -0.2015
   62MOL   H59947081   6.856   4.697   3.299  1.1095  2.7587 -1.1426
   62MOL   H60047082   6.689   4.662   3.254  1.3852 -2.4482 -0.2343
   62MOL   H60147083   6.644   4.914   3.229  0.6561 -0.7620 -1.0277
   62MOL   H60247084   6.716   4.894   3.377  0.6374 -2.4647  0.2289
   62MOL   H60347085   6.918   4.950   3.341 -1.2242 -0.2685  1.6001
   62MOL   H60447086   6.710   5.127   3.329  2.0283 -0.6740  2.5218
   62MOL   H60547087   6.769   5.164   3.172 -1.4391 -0.1275  0.7676
   62MOL   H60647088   6.998   5.260   3.712 -3.0603  1.2251 -0.7263
   62MOL   H60747089   7.103   5.456   3.808  2.3773 -0.9421  0.4283
   62MOL   H60847090   7.156   5.613   3.400  2.2167 -2.8766 -1.2607
   62MOL   H60947091   7.014   5.426   3.314 -0.8789 -0.9956 -0.9440
   62MOL   C61047092   7.174   6.100   3.264 -0.5445  0.5518 -0.5410
   62MOL   C61147093   7.153   6.000   3.382  0.1063  0.1624 -0.0426
   62MOL   C61247094   7.276   6.000   3.481 -0.3885 -0.0853  0.4596
   62MOL   C61347095   7.260   5.912   3.609 -0.1513  0.3239  0.4314
   62MOL   C61447096   7.409   5.974   3.411  0.7990  0.1052 -0.1869
   62MOL   C61547097   7.431   6.070   3.286 -0.4051 -0.5280 -0.2007
   62MOL   C61647098   7.313   6.070   3.187 -0.2565 -0.3768  0.8940
   62MOL   C61747099   7.334   6.177   3.081  0.2109  0.6760 -0.4278
   62MOL   O61847100   7.263   6.116   2.971  0.5647  0.1913  0.3614
   62MOL   C61947101   7.217   6.183   2.869 -0.3817  0.8799 -0.0162
   62MOL   O62047102   7.239   6.298   2.855  0.2748  0.1748 -0.2634
   62MOL   C62147103   7.158   6.094   2.768 -0.3347  0.3141 -0.3488
   62MOL   C62247104   7.154   5.955   2.786  0.1749  0.4071 -0.1757
   62MOL   C62347105   7.092   5.873   2.688  0.2243  0.2178 -0.4128
   62MOL   C62447106   7.041   5.933   2.566  0.1886  0.3389 -0.0917
   62MOL   C62547107   6.984   5.844   2.456  0.3128 -0.6855 -0.0145
   62MOL   O62647108   6.945   5.893   2.345  0.4256 -0.1773  0.1224
   62MOL   O62747109   6.967   5.718   2.484 -0.5240 -0.2587 -0.0730
   62MOL   C62847110   7.058   6.071   2.547 -0.4833  0.5053 -0.3559
   62MOL   C62947111   7.113   6.151   2.650  0.2039  0.4958  0.7140
   62MOL   H63047112   7.173   6.201   3.305 -0.4589  0.4186 -0.2125
   62MOL   H63147113   7.104   6.092   3.181 -1.5990  0.2368  0.3756
   62MOL   H63247114   7.154   5.895   3.351 -1.1946  0.5586 -1.4653
   62MOL   H63347115   7.070   6.037   3.443 -0.6191 -3.0128  1.0058
   62MOL   H63447116   7.278   6.103   3.517 -1.1234 -0.5130  1.7521
   62MOL   H63547117   7.191   5.966   3.674  0.8439 -0.6937  2.3540
   62MOL   H63647118   7.358   5.899   3.654  0.3206  0.1301 -0.6236
   62MOL   H63747119   7.410   5.874   3.369 -3.4927 -0.6678  1.3421
   62MOL   H63847120   7.493   5.981   3.481  0.0801  0.3300  0.6569
   62MOL   H63947121   7.459   6.172   3.313  2.7471 -1.3899 -0.0112
   62MOL   H64047122   7.517   6.029   3.232  0.8693  2.0873 -0.2434
   62MOL   H64147123   7.316   5.973   3.138 -2.9496 -0.1568  0.2277
   62MOL   H64247124   7.440   6.191   3.061  1.4305 -0.3379  4.5137
   62MOL   H64347125   7.300   6.276   3.110  1.4994  1.2511 -0.8812
   62MOL   H64447126   7.178   5.898   2.875  0.3090 -1.3798 -1.3282
   62MOL   H64547127   7.084   5.767   2.709  0.0543  0.4731  0.8342
   62MOL   H64647128   7.029   6.119   2.455  1.1181  0.9568 -0.6399
   62MOL   H64747129   7.122   6.254   2.620  1.9523 -0.2731 -1.5969
   62MOL   C64847130   7.132   5.308   2.320 -0.0124  0.1562 -0.0697
   62MOL   C64947131   7.050   5.410   2.396 -0.3108  0.0463  0.0715
   62MOL   C65047132   7.019   5.533   2.320  0.8247 -0.9065 -1.0547
   62MOL   C65147133   6.916   5.623   2.392  0.6714 -0.1330 -0.1915
   62MOL   C65247134   7.152   5.599   2.284  0.0507 -0.2982 -0.1711
   62MOL   C65347135   7.244   5.501   2.203  0.4539 -0.1363  0.8417
   62MOL   C65447136   7.264   5.368   2.278 -0.1232 -0.3193  0.7564
   62MOL   C65547137   7.362   5.272   2.205 -0.1521  0.5564 -0.4288
   62MOL   O65647138   7.419   5.189   2.303 -0.4767  0.1908  0.3123
   62MOL   C65747139   7.543   5.157   2.311 -0.4307 -0.5468  0.2802
   62MOL   O65847140   7.632   5.196   2.234  0.1405  0.4415  0.1398
   62MOL   C65947141   7.574   5.071   2.423 -0.4110  0.4603 -0.0252
   62MOL   C66047142   7.523   5.098   2.553 -0.3278  0.1376 -0.7020
   62MOL   C66147143   7.555   5.019   2.665 -0.1102 -0.4162 -0.2185
   62MOL   C66247144   7.630   4.901   2.644  0.4727  0.2674  0.2581
   62MOL   C66347145   7.673   4.822   2.763  0.6925  0.5437 -0.8049
   62MOL   O66447146   7.635   4.852   2.886  0.3876 -0.2086 -0.2178
   62MOL   O66547147   7.727   4.706   2.718 -0.0275 -0.1439 -0.4284
   62MOL   C66647148   7.673   4.865   2.514  0.3987 -0.3472 -0.1449
   62MOL   C66747149   7.653   4.952   2.408  0.9684 -0.3882  0.4522
   62MOL   H66847150   7.069   5.267   2.241 -1.4687 -0.4878  1.3866
   62MOL   H66947151   7.137   5.216   2.378  2.0810  1.3854  1.7650
   62MOL   H67047152   7.102   5.436   2.489 -1.4558  1.0400  0.4434
   62MOL   H67147153   6.960   5.363   2.437  0.0132 -0.0878  0.6381
   62MOL   H67247154   6.960   5.496   2.236 -0.9291  1.4248 -0.9054
   62MOL   H67347155   6.840   5.561   2.439  1.0099 -1.9252 -1.9617
   62MOL   H67447156   6.850   5.678   2.325 -1.0577 -0.0138  1.5586
   62MOL   H67547157   7.206   5.618   2.377 -2.7779  1.2670  1.1875
   62MOL   H67647158   7.147   5.689   2.223 -2.7965  0.3108  0.8917
   62MOL   H67747159   7.199   5.485   2.104  0.5110 -0.2130  0.8284
   62MOL   H67847160   7.339   5.550   2.185 -1.0306  1.7669 -2.2885
   62MOL   H67947161   7.310   5.405   2.369 -0.7360  0.0584  0.9161
   62MOL   H68047162   7.438   5.327   2.149 -1.6470  3.0258 -0.1501
   62MOL   H68147163   7.306   5.211   2.135 -1.3095 -0.9622  1.7383
   62MOL   H68247164   7.458   5.183   2.565  1.4322  1.1727  2.0135
   62MOL   H68347165   7.524   5.051   2.764 -0.8719  1.6998 -1.1210
   62MOL   H68447166   7.734   4.779   2.492 -0.3202 -0.3598 -2.1950
   62MOL   H68547167   7.693   4.938   2.309 -0.0536  0.7670 -0.1444
   62MOL   C68647168   7.799   4.276   2.631  0.0114 -0.4873 -0.6659
   62MOL   C68747169   7.741   4.407   2.692 -0.1940 -0.9149 -0.3686
   62MOL   C68847170   7.850   4.501   2.741 -0.6147 -0.0370  0.2497
   62MOL   C68947171   7.796   4.627   2.812  0.1455 -0.1879 -0.5930
   62MOL   C69047172   7.956   4.432   2.821 -0.8063 -0.2115 -0.0038
   62MOL   C69147173   8.015   4.309   2.750 -0.3600  0.3496 -0.2200
   62MOL   C69247174   7.904   4.211   2.723  0.3051 -0.4724 -0.0576
   62MOL   C69347175   7.942   4.071   2.671  0.0404 -0.2695 -0.2086
   62MOL   O69447176   7.825   3.997   2.635  0.4221  0.0955  0.7903
   62MOL   C69547177   7.823   3.907   2.531 -0.2221 -0.2970 -0.2352
   62MOL   O69647178   7.923   3.880   2.461 -0.2358 -0.0839  0.1893
   62MOL   C69747179   7.685   3.853   2.503  0.9155 -0.2678 -0.3025
   62MOL   C69847180   7.568   3.905   2.562 -0.0954 -0.2802  0.7091
   62MOL   C69947181   7.443   3.852   2.530 -0.0487 -0.6878  0.5832
   62MOL   C70047182   7.430   3.748   2.439  0.3408 -0.3885 -0.7191
   62MOL   C70147183   7.299   3.701   2.389  0.0556  0.5823  0.2170
   62MOL   O70247184   7.291   3.618   2.302 -0.2254 -0.3315  0.2996
   62MOL   O70347185   7.190   3.733   2.467  0.2612 -0.3079  0.2738
   62MOL   C70447186   7.546   3.703   2.377  0.0084 -0.2605  0.2169
   62MOL   C70547187   7.675   3.747   2.411 -1.1693 -0.2052 -0.2876
   62MOL   H70647188   7.850   4.273   2.534 -1.8656 -2.3538 -1.6337
   62MOL   H70747189   7.715   4.209   2.612 -0.3950 -0.3296  0.5618
   62MOL   H70847190   7.668   4.387   2.771  0.7572 -1.4641  0.3822
   62MOL   H70947191   7.677   4.461   2.622 -2.1962 -0.8138  1.4496
   62MOL   H71047192   7.897   4.528   2.647  1.1514  0.4806  1.2555
   62MOL   H71147193   7.885   4.678   2.850 -1.8488  1.3979  2.0795
   62MOL   H71247194   7.725   4.610   2.892  1.5004  1.3054  0.9697
   62MOL   H71347195   7.910   4.399   2.914  1.0939  0.0786  1.0786
   62MOL   H71447196   8.030   4.509   2.843 -0.4738 -0.6987  0.6106
   62MOL   H71547197   0.040   4.329   2.659  1.5727 -2.1680  0.3856
   62MOL   H71647198   0.059   4.266   2.816 -0.9435  2.1060  1.6432
   62MOL   H71747199   7.853   4.194   2.818 -0.0923  1.2836  0.0741
   62MOL   H71847200   7.996   4.015   2.747 -1.6649 -0.2508  1.0539
   62MOL   H71947201   8.005   4.075   2.583  1.0161 -2.5963  0.3516
   62MOL   H72047202   7.576   3.980   2.640 -1.1144  1.3934 -0.7472
   62MOL   H72147203   7.360   3.901   2.578  0.2123  0.8692 -0.5259
   62MOL   H72247204   7.541   3.627   2.301  0.2035 -0.1795  0.1231
   62MOL   H72347205   7.761   3.703   2.363 -1.4418 -1.3397  0.2358
   62MOL   C72447206   6.701   3.761   2.523 -0.4083  0.5224 -0.5171
   62MOL   C72547207   6.817   3.682   2.464 -0.4655 -0.0229 -0.5174
   62MOL   C72647208   6.948   3.752   2.494 -1.2098 -0.3089  0.2928
   62MOL   C72747209   7.064   3.681   2.423 -0.9490  0.0166  0.3747
   62MOL   C72847210   6.937   3.903   2.441  0.1691  0.2120 -0.4619
   62MOL   C72947211   6.821   3.981   2.515  0.5826 -1.1405  0.4251
   62MOL   C73047212   6.690   3.909   2.488  0.5402  0.0764 -0.0423
   62MOL   C73147213   6.578   3.982   2.570  0.8511  0.0927  0.2960
   62MOL   O73247214   6.526   4.082   2.486  0.6190  0.0939  0.2163
   62MOL   C73347215   6.386   4.111   2.496 -0.2691  0.5344 -0.0572
   62MOL   O73447216   6.314   4.075   2.590  0.3709 -0.3129  0.5908
   62MOL   C73547217   6.337   4.179   2.380  0.2596 -0.4127  0.1166
   62MOL   C73647218   6.414   4.179   2.257  0.0363 -0.0382 -1.0671
   62MOL   C73747219   6.364   4.238   2.140  0.1606  0.6055 -0.5424
   62MOL   C73847220   6.240   4.303   2.143 -0.6170 -0.3522 -0.6997
   62MOL   C73947221   6.197   4.378   2.019 -0.4668 -0.2600  0.2297
   62MOL   O74047222   6.258   4.364   1.915  0.5830 -0.2247  0.2789
   62MOL   O74147223   6.091   4.456   2.038 -0.1751  0.1039  0.1640
   62MOL   C74247224   6.168   4.312   2.260 -0.2513 -0.2973 -0.4334
   62MOL   C74347225   6.212   4.249   2.382 -0.5276 -0.8339  0.6097
   62MOL   H74447226   6.704   3.766   2.632  1.4633 -1.5958 -0.4489
   62MOL   H74547227   6.611   3.702   2.501 -0.3381 -0.0640  0.7641
   62MOL   H74647228   6.813   3.666   2.357 -0.1339  1.4374 -0.7546
   62MOL   H74747229   6.806   3.587   2.517 -1.1946  0.7286  0.7107
   62MOL   H74847230   6.975   3.752   2.600 -0.6080 -0.3736  0.1386
   62MOL   H74947231   7.050   3.704   2.318 -0.8168  2.5083  0.8727
   62MOL   H75047232   7.066   3.572   2.424  0.0684  0.0314 -0.1874
   62MOL   H75147233   6.922   3.906   2.333  1.2822 -0.6015 -0.6485
   62MOL   H75247234   7.031   3.953   2.468 -0.7976  2.2763 -0.7735
   62MOL   H75347235   6.841   3.986   2.622 -0.9085  0.0388  0.6610
   62MOL   H75447236   6.815   4.083   2.478 -0.5423 -1.1193  0.6493
   62MOL   H75547237   6.657   3.909   2.384 -0.5115 -0.3751  0.2817
   62MOL   H75647238   6.603   4.022   2.668 -0.0329 -2.7651  1.7623
   62MOL   H75747239   6.496   3.914   2.594  1.1488 -0.9726 -1.5988
   62MOL   H75847240   6.511   4.132   2.254  0.6614  1.0306  1.2136
   62MOL   H75947241   6.426   4.249   2.052  1.7211 -0.6714  0.3835
   62MOL   H76047242   6.070   4.357   2.264 -0.4912 -0.9030  0.7265
   62MOL   H76147243   6.155   4.255   2.473 -0.4775 -0.5242  0.6213
   62MOL   H76247244   6.072   4.507   1.961 -0.9072 -0.4633 -0.0245
   63MOL     C147245   0.754   6.936   2.885 -0.4777 -0.5671  0.8784
   63MOL     C247246   0.806   7.016   3.005 -0.8546  0.0597 -0.3072
   63MOL     C347247   0.961   7.038   2.999  0.1267 -0.0217  0.2368
   63MOL     C447248   1.016   7.134   3.107  0.4792  0.3564  0.3679
   63MOL     C547249   1.032   6.902   2.990  0.0779  0.2479  0.1850
   63MOL     C647250   0.981   6.817   2.877 -0.4282 -0.0692 -0.0578
   63MOL     C747251   0.830   6.806   2.865  0.5834 -0.2592  0.1936
   63MOL     C847252   0.795   6.742   2.731  0.2294 -0.6886 -0.1358
   63MOL     O947253   0.680   6.668   2.740  0.2721  0.4774 -0.2743
   63MOL    C1047254   0.640   6.604   2.628  0.4931 -0.1638  0.4858
   63MOL    O1147255   0.707   6.609   2.524 -0.0817 -0.2942  0.5054
   63MOL    C1247256   0.519   6.523   2.650 -0.0064 -0.0422 -0.1378
   63MOL    C1347257   0.465   6.449   2.544 -0.3096  1.2125 -0.1639
   63MOL    C1447258   0.361   6.360   2.573  0.6993  0.2630 -0.4645
   63MOL    C1547259   0.282   6.373   2.693 -0.2812  0.3502  0.4970
   63MOL    C1647260   0.162   6.290   2.723 -0.0360 -0.2898 -0.4630
   63MOL    O1747261   0.125   6.257   2.836  0.6076 -0.2514  0.3929
   63MOL    O1847262   0.106   6.238   2.613 -0.4019  0.0953  0.3468
   63MOL    C1947263   0.328   6.461   2.793  0.1542 -0.0455  0.1452
   63MOL    C2047264   0.452   6.527   2.773  0.7398  0.8047 -0.0971
   63MOL    H2147265   0.749   6.992   2.792  1.5520 -0.2038  0.9608
   63MOL    H2247266   0.649   6.909   2.895 -0.2992 -1.9218 -0.7448
   63MOL    H2347267   0.785   6.966   3.099 -1.5472  1.3479  0.2309
   63MOL    H2447268   0.756   7.113   3.010  0.8387  0.8382  1.8707
   63MOL    H2547269   0.981   7.078   2.900  1.3887  1.5014  1.0869
   63MOL    H2647270   1.122   7.146   3.083  0.5494 -1.6092 -0.4336
   63MOL    H2747271   1.008   7.096   3.209 -0.5619  1.2942  0.6414
   63MOL    H2847272   1.020   6.845   3.082 -0.7545 -3.6334 -2.1988
   63MOL    H2947273   1.139   6.904   2.971 -0.3899  0.6064 -2.6119
   63MOL    H3047274   1.014   6.877   2.792  1.7703  1.4989  1.8545
   63MOL    H3147275   1.029   6.720   2.863  0.1870 -0.1018  2.0423
   63MOL    H3247276   0.797   6.736   2.942 -2.7848 -1.1692 -1.9823
   63MOL    H3347277   0.874   6.683   2.686  0.6337  1.2868 -2.1401
   63MOL    H3447278   0.780   6.831   2.670 -0.9832  0.5590  1.9034
   63MOL    H3547279   0.520   6.447   2.450  0.7034  2.6144  0.3738
   63MOL    H3647280   0.335   6.280   2.504 -0.3953  1.1025 -1.0553
   63MOL    H3747281   0.280   6.463   2.890 -2.1841 -1.5074 -0.9261
   63MOL    H3847282   0.483   6.575   2.864 -0.4705 -0.9838  1.2980
   63MOL    H3947283   0.982   7.237   3.103 -2.6840 -0.6645 -0.6738
   63MOL    C4047284   7.912   6.119   2.235  0.2106  0.2864  0.1281
   63MOL    C4147285   8.005   6.121   2.361 -0.7280  0.5586  0.3594
   63MOL    C4247286   7.934   6.166   2.492 -0.2778  0.6578 -0.3265
   63MOL    C4347287   8.019   6.156   2.625  0.3540  0.4362  0.1697
   63MOL    C4447288   7.885   6.313   2.461 -0.5254  0.7707  0.4939
   63MOL    C4547289   7.801   6.313   2.332 -0.4809 -0.2498  0.0302
   63MOL    C4647290   7.868   6.262   2.204  0.4867 -0.3084 -0.0618
   63MOL    C4747291   7.777   6.271   2.083  0.6817  0.4970  0.3802
   63MOL    O4847292   7.815   6.391   2.013  0.1210  0.2151 -0.0184
   63MOL    C4947293   7.909   6.382   1.918 -0.1638  0.1335 -0.2930
   63MOL    O5047294   7.953   6.272   1.878  0.0706 -0.5262  0.1625
   63MOL    C5147295   7.951   6.514   1.851  0.5850 -0.0521 -0.6598
   63MOL    C5247296   0.010   6.504   1.745  0.0330 -0.7413  0.1868
   63MOL    C5347297   0.070   6.617   1.685  0.4771  0.2836 -0.2058
   63MOL    C5447298   0.036   6.743   1.742 -0.0628 -0.3437 -0.3515
   63MOL    C5547299   0.110   6.861   1.689  0.0676  0.3051 -0.4771
   63MOL    O5647300   0.225   6.854   1.652  0.0003  0.0019  0.1182
   63MOL    O5747301   0.035   6.968   1.689 -0.5171 -0.1761 -0.0087
   63MOL    C5847302   7.962   6.757   1.833 -0.2281 -0.0312  0.4383
   63MOL    C5947303   7.903   6.640   1.892  0.0947  0.3922  0.1769
   63MOL    H6047304   7.832   6.046   2.252 -0.4205  1.2711  1.4880
   63MOL    H6147305   7.964   6.067   2.155  0.5206  2.4388 -1.0989
   63MOL    H6247306   0.065   6.176   2.340 -0.7817  0.7743  0.6677
   63MOL    H6347307   0.000   6.018   2.383  2.4004  1.1266 -0.5630
   63MOL    H6447308   7.844   6.107   2.512 -0.8488  1.2299 -1.1875
   63MOL    H6547309   0.012   6.052   2.645  0.6917 -0.3658 -3.8446
   63MOL    H6647310   7.954   6.184   2.707 -0.4046 -2.6407  0.6835
   63MOL    H6747311   7.962   6.391   2.463  0.1618  0.1400 -0.7791
   63MOL    H6847312   7.818   6.349   2.539 -2.6237 -0.7297 -0.5817
   63MOL    H6947313   7.710   6.256   2.348  0.8703 -2.4876 -0.1056
   63MOL    H7047314   7.771   6.411   2.294 -0.2494  0.2209  1.0258
   63MOL    H7147315   7.955   6.327   2.190  1.7287 -1.9094  0.1180
   63MOL    H7247316   7.675   6.282   2.118  0.7488  1.1905  0.3659
   63MOL    H7347317   7.789   6.186   2.015 -1.1203  0.7902 -0.3476
   63MOL    H7447318   0.039   6.403   1.722 -1.2170 -0.6632 -1.8285
   63MOL    H7547319   0.147   6.623   1.609  1.7195  0.0975  0.9973
   63MOL    H7647320   7.937   6.857   1.867  2.4114  0.4067  1.2050
   63MOL    H7747321   7.828   6.639   1.971 -1.1262 -0.7898 -0.9653
   63MOL    C7847322   7.955   7.441   1.737  0.4632 -0.0317  0.7110
   63MOL    C7947323   8.019   7.328   1.655 -0.2885  0.6940 -0.4493
   63MOL    C8047324   0.011   7.200   1.740 -0.4719  0.3204 -0.6444
   63MOL    C8147325   0.092   7.099   1.659  0.0190  0.0779  0.5269
   63MOL    C8247326   0.085   7.238   1.870  0.6344 -0.1499  0.4500
   63MOL    C8347327   0.020   7.348   1.954  0.0061  0.1878 -0.8096
   63MOL    C8447328   8.025   7.474   1.872  0.4510  0.3111  0.3131
   63MOL    C8547329   7.949   7.564   1.967 -0.0002 -0.2388  0.5324
   63MOL    O8647330   8.026   7.591   2.089 -0.0410  0.1911  0.2909
   63MOL    C8747331   0.100   7.672   2.087  0.0210  0.3190 -0.1037
   63MOL    O8847332   0.116   7.755   1.996 -0.3588  0.3541 -0.1867
   63MOL    C8947333   0.194   7.660   2.206  0.0206  0.4848 -0.2918
   63MOL    C9047334   0.315   7.731   2.217 -0.3145  0.5437 -0.6058
   63MOL    C9147335   0.395   7.708   2.328 -0.9717  0.5831  0.5725
   63MOL    C9247336   0.371   7.619   2.431 -0.2695  0.1474  0.5977
   63MOL    C9347337   0.462   7.599   2.550 -0.6281 -1.0966 -0.4354
   63MOL    O9447338   0.571   7.660   2.569 -0.1853  0.2007  0.1433
   63MOL    O9547339   0.418   7.495   2.623 -0.6722  0.2820  0.4320
   63MOL    C9647340   0.241   7.553   2.422 -0.0564  0.4837  0.0110
   63MOL    C9747341   0.149   7.578   2.314  0.2360 -0.2044  0.1073
   63MOL    H9847342   7.851   7.411   1.750  0.9935 -3.0649 -1.4383
   63MOL    H9947343   7.944   7.533   1.679 -1.0715 -0.2431  0.6332
   63MOL   H10047344   0.083   7.362   1.615  0.1712 -1.2110 -1.0018
   63MOL   H10147345   7.952   7.297   1.574  1.6605 -3.0328 -0.7607
   63MOL   H10247346   7.943   7.166   1.766 -0.9161  1.4550 -0.8167
   63MOL   H10347347   0.199   7.099   1.678  0.1791  1.7294 -0.2940
   63MOL   H10447348   0.079   7.119   1.552 -0.2999  0.6020  0.6595
   63MOL   H10547349   0.186   7.267   1.840 -0.0527 -0.2331 -2.0997
   63MOL   H10647350   0.101   7.152   1.935  0.6153  0.1377  0.8371
   63MOL   H10747351   7.966   7.301   2.003  0.9987 -0.0713  0.6976
   63MOL   H10847352   0.089   7.367   2.036 -1.8361  1.2791  0.5246
   63MOL   H10947353   0.089   7.520   1.851  0.9771 -1.3273 -0.9764
   63MOL   H11047354   7.855   7.511   1.983  0.3708 -0.3283  2.5554
   63MOL   H11147355   7.928   7.654   1.909  1.5702  0.6129  1.2881
   63MOL   H11247356   0.335   7.810   2.147 -2.7784  4.1447  2.5762
   63MOL   H11347357   0.488   7.763   2.327  0.6769 -2.1253 -0.2679
   63MOL   H11447358   0.206   7.483   2.496 -3.0998  2.5472  0.6407
   63MOL   H11547359   0.060   7.519   2.300 -0.7937  1.1918  0.7234
   63MOL   C11647360   0.214   7.232   2.905  1.0807  0.8844 -0.3155
   63MOL   C11747361   0.278   7.360   2.856 -0.2646  0.3886 -0.2204
   63MOL   C11847362   0.417   7.334   2.793  0.4107 -0.1343 -0.2173
   63MOL   C11947363   0.494   7.451   2.734 -0.3369  0.1464 -0.1349
   63MOL   C12047364   0.501   7.282   2.907 -0.4333  0.1947  0.2086
   63MOL   C12147365   0.441   7.155   2.978 -0.5327 -0.0171  1.0083
   63MOL   C12247366   0.297   7.174   3.026  0.2489 -0.0883  0.8824
   63MOL   C12347367   0.230   7.043   3.071 -0.0747 -0.1845 -0.4598
   63MOL   O12447368   0.314   6.987   3.169  0.8129  0.1549 -0.0666
   63MOL   C12547369   0.279   6.995   3.303  0.4268  0.6491 -0.2180
   63MOL   O12647370   0.170   7.030   3.345  0.1273 -0.3500 -0.0484
   63MOL   C12747371   0.390   6.959   3.393  0.1662  0.1804 -0.0738
   63MOL   C12847372   0.375   6.993   3.529 -0.0773 -0.4167  0.2389
   63MOL   C12947373   0.479   6.981   3.619 -0.2236 -0.0500  0.6003
   63MOL   C13047374   0.604   6.920   3.573 -0.2874  0.1102  0.0027
   63MOL   C13147375   0.720   6.906   3.669  1.0034  0.7706 -0.1159
   63MOL   O13247376   0.709   6.917   3.789  0.2739 -0.5717 -0.1712
   63MOL   O13347377   0.837   6.871   3.609 -0.2097 -0.6214 -0.5925
   63MOL   C13447378   0.617   6.880   3.436 -0.4728 -0.2505  0.0815
   63MOL   C13547379   0.511   6.900   3.344  1.0981 -0.2403  0.1209
   63MOL   H13647380   0.208   7.151   2.832  0.6408 -0.8850  1.6116
   63MOL   H13747381   0.111   7.251   2.936 -0.0732 -2.6033 -1.7097
   63MOL   H13847382   0.279   7.432   2.938 -0.5412 -0.3532  0.4400
   63MOL   H13947383   0.218   7.398   2.774  0.7875 -2.4088 -2.3496
   63MOL   H14047384   0.408   7.257   2.716 -1.3689 -0.9658  0.7798
   63MOL   H14147385   0.592   7.426   2.694  0.7045 -1.0245  3.0121
   63MOL   H14247386   0.491   7.531   2.808  0.0489 -0.0643  0.1044
   63MOL   H14347387   0.525   7.356   2.983  1.7242  0.8500 -1.0553
   63MOL   H14447388   0.603   7.255   2.878  0.4136  1.2994  2.0631
   63MOL   H14547389   0.446   7.066   2.916 -0.0092 -1.1381  2.6090
   63MOL   H14647390   0.513   7.127   3.055 -2.0994 -2.6890  1.5843
   63MOL   H14747391   0.294   7.246   3.108  0.3468 -1.3378  2.0023
   63MOL   H14847392   0.217   6.979   2.984  2.0180  0.1376 -1.0294
   63MOL   H14947393   0.130   7.061   3.110 -0.8164 -0.5185 -2.1383
   63MOL   H15047394   0.284   7.030   3.574 -1.1947 -2.4128 -0.3383
   63MOL   H15147395   0.470   7.002   3.724 -0.7320 -0.8777  0.7230
   63MOL   H15247396   0.694   6.815   3.397 -1.4088  0.3413 -2.8527
   63MOL   H15347397   0.525   6.875   3.239  1.4810  1.1616 -0.1704
   63MOL   C15447398   1.331   6.858   3.547  0.5621 -0.1613 -0.2067
   63MOL   C15547399   1.209   6.897   3.641  0.3883  0.1462 -0.3880
   63MOL   C15647400   1.073   6.864   3.584 -0.6353  0.0524 -0.6832
   63MOL   C15747401   0.958   6.899   3.673  1.4230  1.0725 -0.9448
   63MOL   C15847402   1.068   6.934   3.439 -0.6255 -0.2008  0.1492
   63MOL   C15947403   1.186   6.902   3.349 -0.3429  0.0286  0.0267
   63MOL   C16047404   1.323   6.925   3.409 -0.2538  0.0336 -0.4254
   63MOL   C16147405   1.432   6.889   3.319  0.2987 -0.4768 -0.5213
   63MOL   O16247406   1.559   6.938   3.362  0.3412 -0.0003  0.3251
   63MOL   C16347407   1.666   6.891   3.298  0.0153 -0.4851 -0.5218
   63MOL   O16447408   1.671   6.802   3.215  0.0269 -0.7165  0.5502
   63MOL   C16547409   1.783   6.966   3.348  1.0055  0.4993  0.1526
   63MOL   C16647410   1.909   6.936   3.306 -0.7337  0.9335  0.9135
   63MOL   C16747411   2.022   6.995   3.367 -0.4940  0.0167  0.4342
   63MOL   C16847412   2.008   7.081   3.478 -0.3467 -0.3717  0.3194
   63MOL   C16947413   2.130   7.141   3.543  0.6063  0.4870 -0.1943
   63MOL   O17047414   2.120   7.194   3.650 -0.0924  0.2211  0.0745
   63MOL   O17147415   2.234   7.136   3.462  0.0203  0.3971  0.2995
   63MOL   C17247416   1.875   7.116   3.529  0.1010 -0.5500  0.4833
   63MOL   C17347417   1.770   7.058   3.458  0.2023  0.6533 -0.0330
   63MOL   H17447418   1.343   6.751   3.529 -0.6997 -0.4727  0.7275
   63MOL   H17547419   1.427   6.881   3.592  0.9953 -1.6588 -0.3578
   63MOL   H17647420   1.206   7.006   3.643 -1.8682  0.1002  0.2325
   63MOL   H17747421   1.231   6.859   3.741  1.2604 -0.1323 -0.6738
   63MOL   H17847422   1.073   6.756   3.569 -0.7582  0.2008 -1.7891
   63MOL   H17947423   0.955   7.007   3.683  0.0786  0.9985 -0.4828
   63MOL   H18047424   0.953   6.857   3.773 -3.4489  0.6631 -1.2206
   63MOL   H18147425   1.059   7.042   3.451 -1.8898 -0.2602 -0.2059
   63MOL   H18247426   0.980   6.908   3.380 -1.9358  0.6520  1.6739
   63MOL   H18347427   1.171   6.796   3.326  1.4472  0.0806 -1.4749
   63MOL   H18447428   1.176   6.956   3.255  0.5151  0.5940  0.2527
   63MOL   H18547429   1.337   7.033   3.418 -0.1145 -0.0141 -0.0919
   63MOL   H18647430   1.414   6.914   3.215 -2.5595 -2.1528 -0.4849
   63MOL   H18747431   1.440   6.780   3.323  0.1192 -0.4478  1.2492
   63MOL   H18847432   1.918   6.873   3.219  0.1027  3.4129 -0.8865
   63MOL   H18947433   2.119   6.975   3.323 -0.0599  1.7271  0.5916
   63MOL   H19047434   1.862   7.178   3.617  1.3859  0.8354 -0.2767
   63MOL   H19147435   1.677   7.081   3.509 -0.4946 -3.2033  0.5992
   63MOL   C19247436   2.604   6.904   3.478 -0.8725 -0.6529 -0.9045
   63MOL   C19347437   2.478   6.986   3.526  0.9040 -0.7967 -0.7552
   63MOL   C19447438   2.467   7.119   3.451  0.4955 -0.5780  0.6434
   63MOL   C19547439   2.352   7.201   3.494  0.0551 -0.4773  0.4170
   63MOL   C19647440   2.592   7.199   3.478 -0.5391  0.1538 -0.4305
   63MOL   C19747441   2.724   7.123   3.452 -0.3774 -0.3505  0.3176
   63MOL   C19847442   2.730   6.985   3.520 -0.5937 -0.7306 -0.9214
   63MOL   C19947443   2.856   6.909   3.499 -0.5629 -0.5179  0.3363
   63MOL   O20047444   2.858   6.844   3.374  0.0603 -0.1148  0.1617
   63MOL   C20147445   2.962   6.779   3.335  0.6082  0.7237  0.1716
   63MOL   O20247446   3.075   6.788   3.383 -0.0463  0.5836 -0.0522
   63MOL   C20347447   2.933   6.691   3.213  0.4051  0.7215 -0.7648
   63MOL   C20447448   2.806   6.644   3.163  0.3113  0.2893 -0.0097
   63MOL   C20547449   2.790   6.578   3.047 -0.6992 -0.5958  0.4292
   63MOL   C20647450   2.900   6.527   2.976  0.0067 -0.3118 -0.2434
   63MOL   C20747451   2.874   6.436   2.858 -0.9396  0.4944  0.2957
   63MOL   O20847452   2.767   6.374   2.844 -0.5846 -0.6510 -0.3697
   63MOL   O20947453   2.973   6.441   2.765 -0.3203  0.6973 -0.0709
   63MOL   C21047454   3.031   6.561   3.019 -0.2673 -0.3361 -0.0315
   63MOL   C21147455   3.044   6.638   3.142 -0.0065  0.1711  0.5017
   63MOL   H21247456   2.592   6.898   3.370 -2.6861  1.6839 -0.8756
   63MOL   H21347457   2.605   6.808   3.530  0.1820 -0.6192 -0.8426
   63MOL   H21447458   2.473   7.004   3.633 -1.3179  0.4143 -1.0469
   63MOL   H21547459   2.392   6.923   3.505 -0.7975  0.8843  0.9616
   63MOL   H21647460   2.460   7.093   3.346 -2.3431 -0.2810  0.6981
   63MOL   H21747461   2.349   7.288   3.429 -1.3244 -0.1551  0.8956
   63MOL   H21847462   2.351   7.235   3.598 -3.9419 -1.0900  0.6400
   63MOL   H21947463   2.587   7.228   3.583 -0.8173 -1.6435  0.0723
   63MOL   H22047464   2.587   7.298   3.432  0.2148  0.9950  1.2548
   63MOL   H22147465   2.724   7.115   3.344  0.4404  2.8574  0.0091
   63MOL   H22247466   2.819   7.173   3.472  1.8753 -4.5827  0.7406
   63MOL   H22347467   2.722   7.008   3.626  0.4141 -1.5263 -0.6624
   63MOL   H22447468   2.862   6.830   3.573 -1.3107 -2.9576 -2.1061
   63MOL   H22547469   2.941   6.976   3.501 -1.7224  1.0451 -1.1546
   63MOL   H22647470   2.720   6.650   3.228 -0.4858 -2.0939 -0.8049
   63MOL   H22747471   2.693   6.547   3.013 -0.5679  1.5417 -2.0057
   63MOL   H22847472   3.122   6.523   2.975  0.3750 -1.5661  2.2566
   63MOL   H22947473   3.147   6.646   3.173 -0.1365 -1.5757  1.4194
   63MOL   C23047474   3.182   6.053   2.690  0.6793 -0.3884 -0.0358
   63MOL   C23147475   3.061   6.152   2.695  0.4267 -0.0360  0.1890
   63MOL   C23247476   3.076   6.281   2.618 -0.5342 -0.6253  0.2562
   63MOL   C23347477   2.964   6.379   2.634  0.1606 -0.4440  0.6161
   63MOL   C23447478   3.209   6.344   2.647  0.1719 -0.3445  0.2153
   63MOL   C23547479   3.334   6.252   2.644 -0.1480 -0.2758 -0.6840
   63MOL   C23647480   3.311   6.129   2.735  0.3333 -0.0981  0.4032
   63MOL   C23747481   3.440   6.043   2.736 -0.2033  0.2687 -0.3312
   63MOL   O23847482   3.471   6.007   2.871  0.3534 -0.4969 -0.3882
   63MOL   C23947483   3.587   6.020   2.914 -0.1930  0.1646  0.8674
   63MOL   O24047484   3.686   6.039   2.844  0.3141  0.1409  0.4385
   63MOL   C24147485   3.594   5.984   3.057  0.1096 -1.2528  0.3749
   63MOL   C24247486   3.717   5.953   3.119 -0.3521  0.4998 -0.7184
   63MOL   C24347487   3.727   5.921   3.256 -1.4821  1.2833  0.5653
   63MOL   C24447488   3.614   5.920   3.340  0.0928  0.5994 -0.4679
   63MOL   C24547489   3.615   5.882   3.484  0.0023  0.2889 -0.1593
   63MOL   O24647490   3.517   5.893   3.562  0.2080  0.0708 -0.4712
   63MOL   O24747491   3.735   5.828   3.512 -0.1043  0.5543 -0.4273
   63MOL   C24847492   3.489   5.945   3.276  0.7878  0.0857  0.2937
   63MOL   C24947493   3.484   5.985   3.143  0.0814 -0.2751 -0.2547
   63MOL   H25047494   3.203   6.017   2.589  2.1905 -0.2148  0.2104
   63MOL   H25147495   3.162   5.962   2.747 -1.4811 -1.6785 -2.7105
   63MOL   H25247496   3.051   6.188   2.797  0.7570 -0.6640  0.4454
   63MOL   H25347497   2.972   6.099   2.661  0.0809  1.5111 -1.4022
   63MOL   H25447498   3.076   6.253   2.512 -1.1189  1.2690 -0.2561
   63MOL   H25547499   2.869   6.328   2.623  0.7687 -1.5176  0.3274
   63MOL   H25647500   2.966   6.457   2.557 -2.2438  0.1082  1.0821
   63MOL   H25747501   3.203   6.405   2.737  2.2930 -0.6540  0.6021
   63MOL   H25847502   3.231   6.420   2.573 -1.0983 -1.0525 -0.9062
   63MOL   H25947503   3.353   6.221   2.541 -0.4127 -1.8732 -0.2632
   63MOL   H26047504   3.420   6.301   2.690 -0.4567 -0.3381 -0.0308
   63MOL   H26147505   3.285   6.168   2.833 -2.0249  0.3034 -0.3477
   63MOL   H26247506   3.523   6.084   2.677  0.4311  1.7178  1.5174
   63MOL   H26347507   3.413   5.954   2.679  1.2532 -0.2110 -0.3008
   63MOL   H26447508   3.812   5.954   3.067  1.1441 -2.5188  1.7996
   63MOL   H26547509   3.825   5.892   3.289 -1.4333  1.3165  0.4489
   63MOL   H26647510   3.403   5.946   3.340 -0.0808 -0.6133 -0.8373
   63MOL   H26747511   3.390   6.021   3.104 -0.9369 -0.5524  1.8682
   63MOL   C26847512   4.032   5.561   3.811  0.4533 -0.2844  0.3539
   63MOL   C26947513   3.930   5.674   3.785 -0.5042 -0.4267  0.3647
   63MOL   C27047514   3.868   5.679   3.643  0.8004  0.9083 -0.2668
   63MOL   C27147515   3.771   5.798   3.645  0.1986 -0.1477 -0.7593
   63MOL   C27247516   3.974   5.682   3.526 -0.1453  0.0675 -0.0679
   63MOL   C27347517   4.055   5.560   3.552  0.1689  0.0651  0.3746
   63MOL   C27447518   4.127   5.555   3.689 -0.0681 -0.0203  0.1910
   63MOL   C27547519   4.218   5.429   3.693 -0.0439  0.1372  0.6387
   63MOL   O27647520   4.313   5.419   3.594 -0.0916  0.1793 -0.0571
   63MOL   C27747521   4.424   5.490   3.599  0.7617 -0.0847  0.1778
   63MOL   O27847522   4.460   5.555   3.697  0.2645 -0.8727 -0.0280
   63MOL   C27947523   4.502   5.470   3.475  0.1450 -0.6623  0.8484
   63MOL   C28047524   4.639   5.521   3.462 -0.5390  0.4008 -0.0934
   63MOL   C28147525   4.713   5.505   3.347 -0.2465  0.1009 -0.2193
   63MOL   C28247526   4.647   5.457   3.233  0.7274  0.6105  0.6212
   63MOL   C28347527   4.722   5.469   3.109 -0.0850  0.0186  0.1619
   63MOL   O28447528   4.833   5.511   3.100 -0.0718 -0.0461  0.4285
   63MOL   O28547529   4.638   5.425   3.002 -0.0027  0.6841 -1.0489
   63MOL   C28647530   4.521   5.391   3.247 -0.6021 -0.2659  0.6887
   63MOL   C28747531   4.445   5.398   3.366 -0.1337  0.4869  0.5047
   63MOL   H28847532   3.970   5.471   3.815  1.5337 -1.0798 -0.5241
   63MOL   H28947533   4.083   5.569   3.906 -0.9298  1.4192  0.9783
   63MOL   H29047534   3.989   5.765   3.795 -0.5804 -0.3604  0.2086
   63MOL   H29147535   3.854   5.686   3.861 -1.1535  1.2153 -0.5190
   63MOL   H29247536   3.801   5.594   3.629 -0.3348  1.7954 -0.2855
   63MOL   H29347537   3.814   5.885   3.694  1.2090 -0.9508 -0.2138
   63MOL   H29447538   3.686   5.784   3.713  1.6580 -2.6136  0.6377
   63MOL   H29547539   4.037   5.770   3.536  1.9811 -1.1492 -2.1162
   63MOL   H29647540   3.931   5.686   3.426  1.6551 -1.2891 -0.9316
   63MOL   H29747541   3.986   5.476   3.541  0.1023  0.1854 -0.1213
   63MOL   H29847542   4.130   5.553   3.474  0.8379 -0.0554  1.0175
   63MOL   H29947543   4.185   5.647   3.692 -1.8470  1.1272  0.9145
   63MOL   H30047544   4.161   5.342   3.663 -1.1872  2.1365 -3.3531
   63MOL   H30147545   4.271   5.418   3.787  2.8257  2.3561 -0.6176
   63MOL   H30247546   4.690   5.573   3.542 -1.2985  0.2084  0.5283
   63MOL   H30347547   4.813   5.545   3.337 -0.0632 -0.7962 -2.2076
   63MOL   H30447548   4.479   5.342   3.160 -0.9242  0.1697  0.5974
   63MOL   H30547549   4.347   5.353   3.369  0.5028 -1.0135 -0.2680
   63MOL   C30647550   4.462   5.725   2.723 -0.2136 -0.2695 -0.4920
   63MOL   C30747551   4.494   5.582   2.766 -0.0319 -0.8901 -0.5606
   63MOL   C30847552   4.641   5.570   2.803 -0.3946 -1.0743  0.6081
   63MOL   C30947553   4.683   5.441   2.870  0.1838  0.3342  0.0902
   63MOL   C31047554   4.717   5.595   2.677  0.2543  0.2651 -0.2707
   63MOL   C31147555   4.699   5.737   2.621 -0.2223 -0.8402  0.0960
   63MOL   C31247556   4.546   5.768   2.602  0.5225 -0.0247 -0.3633
   63MOL   C31347557   4.534   5.912   2.566  0.5483 -0.1529 -0.4960
   63MOL   O31447558   4.578   5.986   2.671 -0.4398  0.0792 -0.0778
   63MOL   C31547559   4.502   6.087   2.723  0.0974  0.2421 -0.2707
   63MOL   O31647560   4.402   6.137   2.668 -0.5973 -0.0858 -0.4335
   63MOL   C31747561   4.549   6.117   2.862 -0.1012 -0.6523  1.1108
   63MOL   C31847562   4.462   6.186   2.946  0.4467  0.5012  0.2304
   63MOL   C31947563   4.505   6.227   3.079 -0.0964 -0.0170  1.0856
   63MOL   C32047564   4.645   6.213   3.103 -0.2010 -0.4257 -1.4570
   63MOL   C32147565   4.699   6.278   3.223  0.4038  0.3478 -0.4832
   63MOL   O32247566   4.815   6.315   3.234 -0.5063  0.3170 -0.0819
   63MOL   O32347567   4.609   6.279   3.322  0.5134  0.0098  0.4442
   63MOL   C32447568   4.727   6.132   3.024 -0.7815  0.0896 -0.1464
   63MOL   C32547569   4.682   6.096   2.897 -0.9757 -0.1075 -0.0347
   63MOL   H32647570   4.484   5.802   2.798  0.5175 -1.5332  0.6103
   63MOL   H32747571   4.358   5.733   2.693  0.2442  1.5821 -1.6650
   63MOL   H32847572   4.474   5.519   2.680  3.4207  0.0099 -2.1336
   63MOL   H32947573   4.429   5.551   2.848 -1.6088  1.7237 -0.7286
   63MOL   H33047574   4.669   5.650   2.871 -2.9298  1.4786 -1.1934
   63MOL   H33147575   4.789   5.417   2.866  0.3883  1.2307 -0.0273
   63MOL   H33247576   4.651   5.355   2.811 -2.3420  0.9559  0.5087
   63MOL   H33347577   4.678   5.525   2.603  1.6766 -1.0708  0.2142
   63MOL   H33447578   4.822   5.566   2.680  0.0493 -0.4227  0.4152
   63MOL   H33547579   4.742   5.807   2.692 -1.0840  0.3462 -0.5331
   63MOL   H33647580   4.751   5.742   2.525  0.2108  2.4657  0.4592
   63MOL   H33747581   4.515   5.706   2.518  2.3103 -2.3924  0.6584
   63MOL   H33847582   4.429   5.936   2.546  0.5841  0.7725  0.3637
   63MOL   H33947583   4.581   5.942   2.472 -0.8946 -0.4258 -1.3379
   63MOL   H34047584   4.359   6.201   2.917  0.9601  1.5811 -1.1284
   63MOL   H34147585   4.443   6.276   3.153 -2.6962 -0.0120 -1.0434
   63MOL   H34247586   4.828   6.107   3.054 -1.1931 -0.8254  0.5017
   63MOL   H34347587   4.750   6.034   2.840 -0.5005  0.9455 -0.6351
   63MOL   C34447588   4.598   6.097   3.737 -0.3036 -0.8333 -0.1319
   63MOL   C34547589   4.657   6.161   3.610  0.1325  0.5384 -0.4712
   63MOL   C34647590   4.581   6.290   3.572 -1.2696  0.6195  0.3550
   63MOL   C34747591   4.634   6.355   3.442 -0.0082  0.0784 -0.1217
   63MOL   C34847592   4.423   6.267   3.577  0.0479  0.8483  0.0780
   63MOL   C34947593   4.370   6.215   3.702 -0.1646  0.1956  0.0598
   63MOL   C35047594   4.443   6.087   3.739  0.5749 -0.3481 -0.1257
   63MOL   C35147595   4.391   6.031   3.868  0.0130 -0.4679  0.0324
   63MOL   O35247596   4.456   5.911   3.902  0.6782 -0.1640  0.1247
   63MOL   C35347597   4.383   5.801   3.940  0.3779 -0.5639  0.3918
   63MOL   O35447598   4.263   5.784   3.921  0.3013 -0.1006 -0.1858
   63MOL   C35547599   4.469   5.708   4.013  0.3726  0.3552  0.2865
   63MOL   C35647600   4.603   5.688   3.978 -0.1173 -0.3759 -0.5698
   63MOL   C35747601   4.684   5.592   4.045  0.9204  0.3447  0.7571
   63MOL   C35847602   4.634   5.521   4.165 -0.4407  0.0655  0.9921
   63MOL   C35947603   4.713   5.428   4.239  0.5973 -0.2075 -0.1897
   63MOL   O36047604   4.683   5.379   4.348  0.4908 -0.3605 -0.6325
   63MOL   O36147605   4.828   5.409   4.185  0.3808 -0.1213 -0.9241
   63MOL   C36247606   4.496   5.540   4.199  0.8564  0.4816  0.4444
   63MOL   C36347607   4.414   5.627   4.119 -0.5318 -0.4696  0.0038
   63MOL   H36447608   4.633   6.159   3.819 -0.1877  1.3943 -1.8099
   63MOL   H36547609   4.639   5.999   3.761 -1.6069 -0.3381  4.6640
   63MOL   H36647610   4.653   6.095   3.523  0.5912  1.8499 -1.5119
   63MOL   H36747611   4.756   6.196   3.639 -0.0661  2.4449 -2.0146
   63MOL   H36847612   4.599   6.367   3.646  0.0485  0.6457  0.0192
   63MOL   H36947613   4.737   6.372   3.474 -0.2493  0.4173  0.4945
   63MOL   H37047614   4.587   6.452   3.427  2.9020  1.3621 -1.1766
   63MOL   H37147615   4.400   6.198   3.496 -1.6502  2.8238 -1.1837
   63MOL   H37247616   4.377   6.363   3.552 -1.8713 -0.0508  0.1503
   63MOL   H37347617   4.386   6.278   3.790 -1.6326  0.9644 -0.2171
   63MOL   H37447618   4.262   6.211   3.705 -0.1198 -0.2771  2.4047
   63MOL   H37547619   4.415   6.016   3.661  1.8543 -0.7260 -0.2543
   63MOL   H37647620   4.284   6.022   3.849 -0.7253 -2.6415  4.6961
   63MOL   H37747621   4.384   6.108   3.944  0.9674  0.2796 -0.6237
   63MOL   H37847622   4.651   5.746   3.900 -0.8981  1.8264  0.5224
   63MOL   H37947623   4.786   5.583   4.011  0.0945  2.0107 -2.4342
   63MOL   H38047624   4.453   5.489   4.285 -0.7298 -0.3011 -0.7932
   63MOL   H38147625   4.308   5.644   4.132 -0.7564 -0.7692 -1.3831
   63MOL   C38247626   5.187   5.308   3.947  0.4472 -0.4445 -0.2887
   63MOL   C38347627   5.055   5.301   4.017 -0.0476 -0.0349  0.2928
   63MOL   C38447628   5.061   5.343   4.170 -0.1887 -0.9442 -0.2935
   63MOL   C38547629   4.929   5.327   4.245  0.2133 -0.0463 -0.5260
   63MOL   C38647630   5.173   5.263   4.240  0.0155  0.2166 -0.7202
   63MOL   C38747631   5.308   5.265   4.170  0.3944  0.0687  0.1630
   63MOL   C38847632   5.298   5.226   4.025 -0.1307 -0.1920  0.1930
   63MOL   C38947633   5.434   5.226   3.952 -0.6021 -0.1599  0.2619
   63MOL   O39047634   5.481   5.358   3.965  0.3926  0.4572  0.1831
   63MOL   C39147635   5.549   5.412   3.868 -0.0523  0.0540 -0.4322
   63MOL   O39247636   5.615   5.346   3.789 -0.0947  0.0244 -0.2868
   63MOL   C39347637   5.563   5.564   3.879 -0.0606 -0.2532 -0.6480
   63MOL   C39447638   5.481   5.646   3.958  0.0491 -0.0304  0.3500
   63MOL   C39547639   5.508   5.784   3.961 -0.0134 -0.6845  0.3575
   63MOL   C39647640   5.614   5.848   3.893  0.8534  0.1987 -0.0036
   63MOL   C39747641   5.633   6.002   3.890 -0.2685 -0.3136 -0.5675
   63MOL   O39847642   5.598   6.073   3.980  0.7790 -0.1306 -0.5194
   63MOL   O39947643   5.678   6.041   3.776  0.1465 -0.6933  0.7072
   63MOL   C40047644   5.697   5.763   3.818 -0.0691 -0.2426  0.6394
   63MOL   C40147645   5.666   5.625   3.806 -0.4497  0.7266 -0.0018
   63MOL   H40247646   5.206   5.415   3.958  1.4504 -0.5986 -0.4156
   63MOL   H40347647   5.195   5.285   3.840 -1.3191 -0.5597 -0.4114
   63MOL   H40447648   5.027   5.197   4.000 -2.2851  0.6534 -0.3204
   63MOL   H40547649   4.977   5.364   3.976 -1.3683 -2.2627 -0.6976
   63MOL   H40647650   5.086   5.449   4.169  0.1489 -1.0147  0.5219
   63MOL   H40747651   4.944   5.349   4.351  1.2211  0.5478 -0.7902
   63MOL   H40847652   4.882   5.229   4.238  1.4878 -0.6450 -0.7328
   63MOL   H40947653   5.132   5.164   4.263  0.7038 -0.6500 -3.0991
   63MOL   H41047654   5.189   5.311   4.337 -0.3108 -1.0708 -0.0190
   63MOL   H41147655   5.362   5.359   4.186  0.5120  0.1328 -0.5783
   63MOL   H41247656   5.371   5.200   4.230 -1.2345  0.0706  1.9269
   63MOL   H41347657   5.274   5.120   4.029 -0.8080 -0.0348  0.3387
   63MOL   H41447658   5.422   5.194   3.848  2.1692 -2.1506  0.4912
   63MOL   H41547659   5.507   5.156   3.994  1.8016  2.5584  0.7505
   63MOL   H41647660   5.399   5.609   4.017 -0.6834  0.4631 -0.3614
   63MOL   H41747661   5.454   5.857   4.020 -3.2985 -0.5915 -2.5593
   63MOL   H41847662   5.776   5.807   3.759  0.7405 -4.2562 -1.4907
   63MOL   H41947663   5.727   5.564   3.741 -1.5288 -2.3333  1.7424
   63MOL   C42047664   5.988   6.036   3.505 -0.2373 -0.3765  0.0770
   63MOL   C42147665   5.864   6.058   3.582 -0.1539 -0.2378 -0.2746
   63MOL   C42247666   5.883   6.134   3.714 -0.1377 -0.0257 -1.0281
   63MOL   C42347667   5.746   6.166   3.774 -0.5846 -0.4273 -0.1038
   63MOL   C42447668   5.986   6.064   3.807 -0.9630 -0.7009  0.4570
   63MOL   C42547669   6.109   6.019   3.730  0.5731  0.6352 -0.6507
   63MOL   C42647670   6.081   5.948   3.593 -0.6237 -0.2216 -0.0392
   63MOL   C42747671   6.218   5.934   3.531 -0.3509 -0.1621  0.4865
   63MOL   O42847672   6.195   5.867   3.407 -0.3817 -0.0460  0.0260
   63MOL   C42947673   6.307   5.814   3.343  0.3185 -0.9812 -0.1332
   63MOL   O43047674   6.421   5.846   3.379 -0.1374 -0.0215 -0.0147
   63MOL   C43147675   6.273   5.707   3.247  0.2960 -0.6524  0.2644
   63MOL   C43247676   6.150   5.711   3.175  0.3122 -0.6713 -0.5469
   63MOL   C43347677   6.128   5.624   3.065  0.7514  0.0860 -0.1670
   63MOL   C43447678   6.222   5.526   3.021  0.1818 -0.2932 -0.2926
   63MOL   C43547679   6.187   5.431   2.906  0.7480 -0.4627 -0.0963
   63MOL   O43647680   6.266   5.353   2.865  0.0649 -0.3044  0.2905
   63MOL   O43747681   6.061   5.444   2.861  0.3152 -0.2632  0.0452
   63MOL   C43847682   6.349   5.522   3.093  0.0336 -0.3929 -0.5203
   63MOL   C43947683   6.363   5.615   3.200 -0.2596 -0.1016 -0.5807
   63MOL   H44047684   6.036   6.130   3.479 -0.6435  0.1759  1.3095
   63MOL   H44147685   5.969   5.992   3.406  2.1473 -0.9369 -0.1668
   63MOL   H44247686   5.824   5.959   3.605 -0.0565 -0.1255  0.3664
   63MOL   H44347687   5.789   6.108   3.520 -0.9710  1.5022  2.0880
   63MOL   H44447688   5.928   6.232   3.696  0.5457 -0.1560 -0.0435
   63MOL   H44547689   5.693   6.234   3.707  3.1036 -0.5658 -3.3836
   63MOL   H44647690   5.778   6.208   3.869  1.0186 -2.4859  0.3045
   63MOL   H44747691   5.937   5.976   3.849  0.1386 -1.3770  0.3390
   63MOL   H44847692   6.003   6.130   3.893 -2.3640 -1.1423  1.0805
   63MOL   H44947693   6.168   6.109   3.715 -0.0626  1.1368 -0.1600
   63MOL   H45047694   6.167   5.965   3.806 -2.7729 -0.1528  1.4301
   63MOL   H45147695   6.036   5.852   3.617  1.6949 -1.4418 -0.4792
   63MOL   H45247696   6.277   5.873   3.600  0.4530  0.6138  0.4910
   63MOL   H45347697   6.265   6.029   3.505 -0.8904  0.0864  0.4268
   63MOL   H45447698   6.089   5.800   3.182  0.9368 -0.3619  1.2095
   63MOL   H45547699   6.031   5.641   3.021  1.3534  1.4120 -0.9987
   63MOL   H45647700   6.430   5.452   3.086 -0.4089 -1.0728  0.9235
   63MOL   H45747701   6.464   5.625   3.235 -0.1632 -2.0283 -0.2969
   63MOL   C45847702   5.626   5.431   2.736 -0.0948 -1.0017  0.3035
   63MOL   C45947703   5.777   5.457   2.723 -0.2283 -0.3457  0.0242
   63MOL   C46047704   5.862   5.341   2.778  1.0004 -0.4736 -0.3613
   63MOL   C46147705   6.015   5.369   2.753  0.2373  0.2293 -0.1049
   63MOL   C46247706   5.821   5.302   2.919 -0.1275  0.3046 -0.2103
   63MOL   C46347707   5.671   5.271   2.923  0.1197 -0.5960  0.1139
   63MOL   C46447708   5.584   5.391   2.879 -0.7758 -0.5617 -0.5205
   63MOL   C46547709   5.438   5.363   2.898  0.8573 -0.1934 -0.4731
   63MOL   O46647710   5.406   5.413   3.025  0.3886  0.9888  0.1567
   63MOL   C46747711   5.291   5.479   3.049  0.4373  0.1434  0.5199
   63MOL   O46847712   5.211   5.499   2.959  0.0673  0.2738 -0.2623
   63MOL   C46947713   5.268   5.510   3.190 -0.4024 -0.5538 -0.8273
   63MOL   C47047714   5.164   5.595   3.220  0.4886 -0.4706  0.5639
   63MOL   C47147715   5.124   5.615   3.355  0.9987  0.0537 -0.0341
   63MOL   C47247716   5.192   5.548   3.458 -0.2509 -0.3647 -0.7314
   63MOL   C47347717   5.150   5.567   3.599  0.0009 -0.2141 -0.6262
   63MOL   O47447718   5.221   5.535   3.696  0.2673  0.2046  0.5026
   63MOL   O47547719   5.026   5.628   3.613 -0.5236 -0.5535  0.0196
   63MOL   C47647720   5.304   5.468   3.428 -0.0820 -0.1275  0.0278
   63MOL   C47747721   5.339   5.448   3.292 -0.6460 -0.6686  0.0117
   63MOL   H47847722   5.587   5.356   2.667  0.3029 -2.2114  1.3720
   63MOL   H47947723   5.570   5.519   2.705  0.9883 -1.1819 -2.3001
   63MOL   H48047724   5.813   5.549   2.769  0.7223 -1.1694  0.9562
   63MOL   H48147725   5.806   5.465   2.618  0.6653 -3.0520  0.0144
   63MOL   H48247726   5.837   5.254   2.717  1.2631 -0.8107  0.0155
   63MOL   H48347727   6.027   5.420   2.657  0.7714  1.1227  0.4243
   63MOL   H48447728   6.068   5.274   2.743 -3.3828 -2.0305  1.4306
   63MOL   H48547729   5.850   5.384   2.985 -0.6629 -0.6160  1.1964
   63MOL   H48647730   5.885   5.218   2.945  0.9729  1.4914  0.9798
   63MOL   H48747731   5.654   5.183   2.862 -0.5129  0.0858 -0.6999
   63MOL   H48847732   5.646   5.242   3.026  2.4874 -3.9335 -0.1607
   63MOL   H48947733   5.620   5.471   2.943 -0.4933 -1.2616  0.2074
   63MOL   H49047734   5.422   5.255   2.896  1.8993 -0.5063  3.8811
   63MOL   H49147735   5.394   5.424   2.819 -0.3368 -2.2113 -1.4015
   63MOL   H49247736   5.120   5.644   3.135 -0.6102 -2.2487  0.1052
   63MOL   H49347737   5.032   5.671   3.364 -0.2367 -1.2531 -3.5295
   63MOL   H49447738   5.360   5.424   3.510  1.8362  1.9702 -0.1125
   63MOL   H49547739   5.419   5.381   3.264 -0.7247 -0.6418 -0.2763
   63MOL   C49647740   5.075   5.902   4.014  0.2041 -0.0520 -0.3694
   63MOL   C49747741   5.019   5.777   3.950  0.1421  0.2079 -0.0380
   63MOL   C49847742   5.044   5.779   3.801  0.1234  0.2973  0.1311
   63MOL   C49947743   4.977   5.657   3.741  0.0176  0.2971  0.1658
   63MOL   C50047744   4.997   5.908   3.735 -0.5732  0.0693 -0.3141
   63MOL   C50147745   5.049   6.036   3.798  0.0309  0.3197  0.1744
   63MOL   C50247746   5.027   6.029   3.949 -0.2706  0.2331  0.1770
   63MOL   C50347747   5.083   6.151   4.026  0.0988 -0.2245  0.6981
   63MOL   O50447748   5.014   6.260   3.969  0.3104 -0.4388  0.0392
   63MOL   C50547749   5.033   6.382   4.020  0.0303 -0.0721  0.1839
   63MOL   O50647750   5.114   6.404   4.109 -0.1741  0.2900  0.2077
   63MOL   C50747751   4.947   6.496   3.965 -0.3486  0.9411 -0.4339
   63MOL   C50847752   4.856   6.463   3.859 -0.4803 -1.0627 -0.3992
   63MOL   C50947753   4.780   6.564   3.798  0.1315  0.3421  0.1458
   63MOL   C51047754   4.793   6.695   3.843  0.1659 -0.8457 -0.1161
   63MOL   C51147755   4.709   6.803   3.790 -0.0595  0.2619 -0.0594
   63MOL   O51247756   4.716   6.922   3.832  0.0447  0.3788 -0.0085
   63MOL   O51347757   4.627   6.767   3.686 -0.1337  0.4665 -0.3976
   63MOL   C51447758   4.882   6.726   3.947  0.2345 -0.4845 -0.0301
   63MOL   C51547759   4.956   6.627   4.010 -0.1907 -0.2784 -0.1889
   63MOL   H51647760   5.184   5.905   4.010  0.2269 -0.1553  0.1060
   63MOL   H51747761   5.045   5.898   4.119  0.3065  0.2789 -0.3244
   63MOL   H51847762   4.914   5.773   3.980  0.5377 -1.2298  1.2415
   63MOL   H51947763   5.064   5.688   3.993  0.2509 -0.3954 -1.3792
   63MOL   H52047764   5.152   5.786   3.784  0.3628 -1.6446  0.7249
   63MOL   H52147765   4.873   5.680   3.719 -0.1883  0.1702  0.9969
   63MOL   H52247766   4.981   5.570   3.806 -0.7747 -1.0078 -1.5208
   63MOL   H52347767   4.891   5.917   3.760 -0.0463  0.9915  1.7059
   63MOL   H52447768   5.029   5.908   3.631  1.0109 -0.2260  0.1655
   63MOL   H52547769   5.153   6.049   3.768 -0.5109 -1.9984 -3.0164
   63MOL   H52647770   5.004   6.126   3.756 -0.7810 -1.1100 -2.0830
   63MOL   H52747771   4.922   6.026   3.978  0.0441 -2.1152  1.1907
   63MOL   H52847772   5.188   6.166   3.998  0.6896 -1.0171  2.4154
   63MOL   H52947773   5.067   6.135   4.133  0.1888 -1.8078  0.4896
   63MOL   H53047774   4.850   6.363   3.818 -1.8049 -0.4852 -1.6268
   63MOL   H53147775   4.708   6.543   3.720 -0.9570  2.5154  0.5409
   63MOL   H53247776   4.886   6.826   3.989 -0.9130 -0.6820  0.5566
   63MOL   H53347777   5.021   6.644   4.095 -1.0908  1.1496  0.2211
   63MOL   C53447778   4.329   6.906   3.313  0.2636 -0.3189 -0.2249
   63MOL   C53547779   4.379   6.941   3.455  0.1483  0.0902 -0.1718
   63MOL   C53647780   4.471   6.824   3.495 -0.2978  0.1045 -0.5674
   63MOL   C53747781   4.526   6.862   3.636 -0.3346 -0.5035  0.0929
   63MOL   C53847782   4.411   6.683   3.484 -0.4994 -0.0447 -0.4278
   63MOL   C53947783   4.382   6.656   3.339 -0.1752  0.0482  0.1798
   63MOL   C54047784   4.273   6.762   3.290  0.5197  0.1266 -0.4008
   63MOL   C54147785   4.237   6.742   3.138 -0.3424 -0.2584 -0.0598
   63MOL   O54247786   4.200   6.607   3.105 -0.5079  0.5485  0.6816
   63MOL   C54347787   4.156   6.576   2.988 -0.5015  0.5493 -0.1796
   63MOL   O54447788   4.134   6.653   2.894  0.0374 -0.1573  0.2834
   63MOL   C54547789   4.128   6.426   2.984 -0.0599  0.8044  0.4946
   63MOL   C54647790   4.153   6.340   3.095  0.3497 -0.1706  0.2219
   63MOL   C54747791   4.127   6.202   3.086  0.6420  0.3118 -0.0602
   63MOL   C54847792   4.083   6.140   2.971 -0.5276  0.1715  0.1125
   63MOL   C54947793   4.064   5.994   2.955 -0.0847  0.2483  0.2093
   63MOL   O55047794   4.067   5.941   2.838  0.5340 -0.0346  0.1692
   63MOL   O55147795   4.066   5.920   3.073  0.5538  1.2864  0.3401
   63MOL   C55247796   4.070   6.225   2.853 -0.0086 -0.6712 -0.2981
   63MOL   C55347797   4.085   6.366   2.856  0.2790  0.3878 -0.2998
   63MOL   H55447798   4.416   6.923   3.249  1.3274 -2.7425  0.4971
   63MOL   H55547799   4.255   6.985   3.300 -0.9305 -1.6397 -1.5650
   63MOL   H55647800   4.292   6.940   3.520  0.0475 -2.6669 -0.2646
   63MOL   H55747801   4.423   7.040   3.454  0.4442 -0.0356  0.4446
   63MOL   H55847802   4.560   6.819   3.432 -0.9085 -0.1337 -1.4155
   63MOL   H55947803   4.444   6.860   3.708  0.4852  0.4688  1.0741
   63MOL   H56047804   4.570   6.962   3.636  2.6878 -1.7482 -1.9916
   63MOL   H56147805   4.320   6.678   3.545 -0.3395 -1.8492 -0.2944
   63MOL   H56247806   4.479   6.611   3.529  0.0005 -0.6050 -2.0685
   63MOL   H56347807   4.473   6.676   3.283  0.8491 -2.6542  0.7795
   63MOL   H56447808   4.344   6.558   3.308 -1.1026  0.6607 -0.6616
   63MOL   H56547809   4.179   6.756   3.344  0.3053  1.0395 -0.6699
   63MOL   H56647810   4.325   6.759   3.076 -0.2096 -0.9833 -0.0702
   63MOL   H56747811   4.157   6.810   3.109  0.3630  0.7149  0.2637
   63MOL   H56847812   4.180   6.382   3.191 -0.3737  1.2298 -0.1613
   63MOL   H56947813   4.147   6.142   3.173 -0.3569  2.8848  2.0174
   63MOL   H57047814   4.048   6.172   2.762 -0.3630 -0.3019 -0.4254
   63MOL   H57147815   4.078   6.423   2.764  0.7308 -1.0871 -1.2607
   63MOL   C57247816   4.369   5.784   3.337 -0.1007  0.4465  0.4453
   63MOL   C57347817   4.230   5.800   3.279 -0.4525  0.5057  1.0651
   63MOL   C57447818   4.208   5.742   3.134 -0.2121  0.1741  0.4395
   63MOL   C57547819   4.072   5.777   3.069  0.0360 -0.4115 -0.3797
   63MOL   C57647820   4.324   5.779   3.040 -0.2751  0.1955 -0.0948
   63MOL   C57747821   4.467   5.774   3.104  0.6170  0.3024  0.0301
   63MOL   C57847822   4.472   5.845   3.241  0.2058 -0.6797  0.1890
   63MOL   C57947823   4.613   5.841   3.298 -0.1908  0.4142  0.1573
   63MOL   O58047824   4.711   5.863   3.199  0.5823  0.2292  0.0143
   63MOL   C58147825   4.841   5.875   3.249 -0.1304 -0.8080 -0.1096
   63MOL   O58247826   4.870   5.904   3.366  0.2558 -0.0199  0.6663
   63MOL   C58347827   4.946   5.865   3.144  0.0683 -0.1105 -0.2208
   63MOL   C58447828   4.917   5.791   3.031  0.5328 -0.4602  0.2686
   63MOL   C58547829   5.019   5.775   2.937  0.4789  0.3202  0.2738
   63MOL   C58647830   5.146   5.832   2.953  0.3373  0.0689  0.1894
   63MOL   C58747831   5.257   5.814   2.858  0.1090  0.2858  0.0888
   63MOL   O58847832   5.365   5.866   2.875 -0.4911 -0.3128 -0.5277
   63MOL   O58947833   5.218   5.732   2.750 -0.2885 -0.1812  0.8747
   63MOL   C59047834   5.175   5.923   3.060 -0.7835 -0.5617  0.0273
   63MOL   C59147835   5.072   5.936   3.158  0.1443  0.2864 -0.3689
   63MOL   H59247836   4.382   5.678   3.355 -0.2200  0.1939 -0.9513
   63MOL   H59347837   4.370   5.829   3.436 -0.6146  0.2514  0.5390
   63MOL   H59447838   4.210   5.907   3.283  3.7542  1.4609 -0.6091
   63MOL   H59547839   4.154   5.753   3.340 -0.4023 -0.3393  0.4837
   63MOL   H59647840   4.223   5.634   3.134  1.2740  0.3652  0.1167
   63MOL   H59747841   3.991   5.748   3.136 -2.2942  1.9788 -2.0662
   63MOL   H59847842   4.061   5.736   2.969  0.3881  1.8481 -1.3768
   63MOL   H59947843   4.315   5.880   2.999 -3.0207  0.0939  0.1316
   63MOL   H60047844   4.318   5.711   2.954  1.8319  3.1148 -2.6732
   63MOL   H60147845   4.509   5.674   3.109  2.2919  0.9381 -0.6287
   63MOL   H60247846   4.534   5.831   3.038 -1.2193 -1.0496 -3.0949
   63MOL   H60347847   4.436   5.948   3.236 -0.4616 -0.9016  0.3600
   63MOL   H60447848   4.626   5.747   3.351  2.3801 -0.5865 -2.1312
   63MOL   H60547849   4.616   5.931   3.361  0.9516  0.3846  0.1481
   63MOL   H60647850   4.816   5.759   3.012  1.0326 -1.6585 -0.4252
   63MOL   H60747851   4.995   5.716   2.849  0.8127  1.4207 -0.5671
   63MOL   H60847852   5.258   5.990   3.048  0.1391 -1.5411  0.8461
   63MOL   H60947853   5.092   6.001   3.241 -1.0047 -0.0647  0.1912
   63MOL   C61047854   5.031   5.835   2.380  0.7255  0.1698 -0.7731
   63MOL   C61147855   5.085   5.750   2.496  1.0344  0.6046  0.1773
   63MOL   C61247856   5.239   5.770   2.505  0.8382  0.7015 -0.1504
   63MOL   C61347857   5.300   5.708   2.633  1.1725 -0.0324  0.7029
   63MOL   C61447858   5.297   5.721   2.382  0.9633 -0.3523  0.0025
   63MOL   C61547859   5.246   5.797   2.258 -0.0905  0.0305  0.3964
   63MOL   C61647860   5.096   5.796   2.245 -0.3151  0.4948  0.6886
   63MOL   C61747861   5.039   5.878   2.128 -0.4637 -0.0149  0.1431
   63MOL   O61847862   4.905   5.833   2.107  0.0893 -0.5244  0.2788
   63MOL   C61947863   4.794   5.895   2.155  0.1753 -0.1004  0.0199
   63MOL   O62047864   4.809   6.000   2.215  0.2604  0.0149  0.0466
   63MOL   C62147865   4.665   5.845   2.098 -0.0529  0.8035 -0.9132
   63MOL   C62247866   4.549   5.919   2.120 -0.5771  0.0437 -0.7070
   63MOL   C62347867   4.427   5.889   2.055 -1.3743 -0.5924 -0.0725
   63MOL   C62447868   4.420   5.777   1.975  0.2854 -0.2910 -0.1266
   63MOL   C62547869   4.293   5.755   1.910  0.2751 -0.1765  0.0998
   63MOL   O62647870   4.276   5.655   1.834  0.2842  0.3226 -0.3170
   63MOL   O62747871   4.205   5.853   1.914  0.7290 -0.3797  0.3423
   63MOL   C62847872   4.537   5.703   1.948 -0.7203  0.0990 -0.5932
   63MOL   C62947873   4.656   5.731   2.017 -0.0970 -0.0079  0.2097
   63MOL   H63047874   5.053   5.940   2.401  0.7007  0.0811 -0.2864
   63MOL   H63147875   4.924   5.819   2.373  0.4878  1.7735 -0.8240
   63MOL   H63247876   5.057   5.645   2.490  0.5220  0.6973  0.7540
   63MOL   H63347877   5.030   5.792   2.581  0.3844  0.8221 -0.3402
   63MOL   H63447878   5.253   5.877   2.516  1.8029  0.5107  0.4651
   63MOL   H63547879   5.400   5.741   2.661  1.2196 -0.1188  0.6362
   63MOL   H63647880   5.315   5.602   2.613  0.4800 -0.0533  0.2597
   63MOL   H63747881   5.261   5.618   2.381 -1.9207  0.6158 -0.3436
   63MOL   H63847882   5.406   5.725   2.381  0.9327  0.6051  0.4631
   63MOL   H63947883   5.279   5.900   2.263 -0.6210  0.1421  1.8942
   63MOL   H64047884   5.300   5.749   2.177 -0.7058 -0.3359  0.1983
   63MOL   H64147885   5.072   5.692   2.226  1.0494  0.1412  0.9032
   63MOL   H64247886   5.089   5.864   2.032  1.6405  1.6836  0.9621
   63MOL   H64347887   5.046   5.983   2.156  0.3376 -0.6051  2.2306
   63MOL   H64447888   4.567   6.009   2.178  1.1851 -1.8713  1.8161
   63MOL   H64547889   4.341   5.949   2.079 -0.2530  0.2132  2.0632
   63MOL   H64647890   4.537   5.612   1.889  1.8284 -0.7511  0.6221
   63MOL   H64747891   4.732   5.656   2.002  0.1214  0.8010 -3.1361
   63MOL   C64847892   4.003   6.122   1.541  0.1241  1.2472  0.2444
   63MOL   C64947893   3.977   6.019   1.651 -0.0426 -0.3839 -0.0667
   63MOL   C65047894   4.117   5.967   1.709 -0.2326 -0.3792 -0.6759
   63MOL   C65147895   4.089   5.866   1.828  0.3713 -0.4961 -0.5252
   63MOL   C65247896   4.188   5.901   1.587  0.1764  0.1759 -0.2186
   63MOL   C65347897   4.220   5.998   1.467  0.6410 -0.2962 -0.5628
   63MOL   C65447898   4.098   6.081   1.427 -0.5693  0.4129  0.2410
   63MOL   C65547899   4.137   6.199   1.335  0.2972 -0.2518 -0.3991
   63MOL   O65647900   4.218   6.289   1.416 -0.0034  0.0817  0.1208
   63MOL   C65747901   4.318   6.360   1.351 -0.1130 -0.1962  0.2600
   63MOL   O65847902   4.336   6.350   1.233  0.4239  0.3857  0.2505
   63MOL   C65947903   4.402   6.438   1.439 -0.4559 -0.3923 -0.4223
   63MOL   C66047904   4.362   6.450   1.580 -0.5988  0.8858 -0.1961
   63MOL   C66147905   4.449   6.512   1.668 -0.0379  0.2498  0.2411
   63MOL   C66247906   4.570   6.569   1.631  0.6711  0.1641  0.6323
   63MOL   C66347907   4.646   6.658   1.727 -0.2581  0.2044  0.5003
   63MOL   O66447908   4.651   6.629   1.844  0.1113  0.6843  0.5671
   63MOL   O66547909   4.731   6.753   1.674  0.0634 -0.0484 -0.0560
   63MOL   C66647910   4.606   6.560   1.493 -0.0478 -0.2198  0.6310
   63MOL   C66747911   4.522   6.494   1.401 -0.3067 -0.2449  0.3256
   63MOL   H66847912   4.041   6.213   1.586  1.3543  0.7525  0.2285
   63MOL   H66947913   3.902   6.148   1.508 -0.3646 -1.0692 -0.1986
   63MOL   H67047914   3.915   5.944   1.603 -0.9001  0.8030 -0.8427
   63MOL   H67147915   3.917   6.069   1.727  0.2458  0.1825 -0.2086
   63MOL   H67247916   4.186   6.044   1.742 -1.4204 -0.3207  1.8386
   63MOL   H67347917   4.057   5.766   1.800  1.4565 -1.0683  0.2083
   63MOL   H67447918   4.017   5.918   1.891  0.7839 -0.4102 -0.1188
   63MOL   H67547919   4.125   5.819   1.554 -0.4800  0.2096  0.9439
   63MOL   H67647920   4.290   5.872   1.613 -0.1068  0.9885  1.8799
   63MOL   H67747921   4.288   6.062   1.523  0.9032  0.7471 -2.0283
   63MOL   H67847922   4.259   5.940   1.383 -0.9818 -1.9974 -0.1687
   63MOL   H67947923   4.043   6.012   1.362  0.9737 -2.4315  1.8562
   63MOL   H68047924   4.046   6.241   1.293 -0.9037 -0.2194  2.1487
   63MOL   H68147925   4.185   6.163   1.244  0.2759  2.4888 -1.5228
   63MOL   H68247926   4.267   6.410   1.614 -1.6440  1.8586 -1.8717
   63MOL   H68347927   4.410   6.525   1.768  0.1380 -0.3887  0.3949
   63MOL   H68447928   4.700   6.601   1.459  0.3720 -0.6829  1.2221
   63MOL   H68547929   4.551   6.476   1.298 -0.5224  4.7288 -0.7656
   63MOL   C68647930   4.447   7.088   1.742  0.0096  0.8190 -0.0189
   63MOL   C68747931   4.535   6.966   1.769 -0.2805  0.4660  0.2383
   63MOL   C68847932   4.689   6.992   1.718 -0.3552 -0.0052  0.4545
   63MOL   C68947933   4.770   6.859   1.760  0.0881 -0.1971 -0.2312
   63MOL   C69047934   4.679   7.017   1.566  0.0835 -0.5712  0.2743
   63MOL   C69147935   4.598   7.144   1.543 -0.5060 -0.2362 -0.1824
   63MOL   C69247936   4.454   7.138   1.594  1.4807 -0.0095  0.2596
   63MOL   C69347937   4.380   7.267   1.576  0.4789  0.1120  0.2921
   63MOL   O69447938   4.239   7.269   1.586  0.4558  0.4480  0.3291
   63MOL   C69547939   4.152   7.234   1.482 -0.3635 -0.1023  0.4143
   63MOL   O69647940   4.200   7.178   1.384 -0.8016  0.3260 -0.7490
   63MOL   C69747941   4.009   7.250   1.506 -0.7982 -0.7384 -0.0315
   63MOL   C69847942   3.914   7.209   1.413  0.0159  0.2782 -0.2049
   63MOL   C69947943   3.776   7.235   1.433  0.8670 -0.4606 -0.1257
   63MOL   C70047944   3.730   7.290   1.559 -0.3840  0.1045  0.1251
   63MOL   C70147945   3.584   7.313   1.572  0.4966 -0.1202 -0.1789
   63MOL   O70247946   3.505   7.332   1.479 -0.1505  0.3404 -0.5318
   63MOL   O70347947   3.555   7.322   1.701 -0.0241  0.5638  0.4710
   63MOL   C70447948   3.825   7.313   1.660  0.0400 -0.4413  0.4656
   63MOL   C70547949   3.962   7.297   1.632  0.4896 -0.4822  0.0467
   63MOL   H70647950   4.472   7.166   1.814  1.2628 -1.6691  2.3401
   63MOL   H70747951   4.346   7.059   1.772  0.3843  1.2412  1.6652
   63MOL   H70847952   4.490   6.883   1.714 -0.4222  1.1457 -0.6754
   63MOL   H70947953   4.533   6.944   1.876  3.0067  0.4688  0.3534
   63MOL   H71047954   4.736   7.079   1.765  1.7099 -0.6044 -0.4496
   63MOL   H71147955   4.762   6.827   1.864 -1.5554  0.9209  0.0116
   63MOL   H71247956   4.875   6.880   1.743 -0.1105  1.6409  0.6824
   63MOL   H71347957   4.628   6.934   1.518  1.0620 -0.2689 -1.3441
   63MOL   H71447958   4.777   7.034   1.521 -0.4039  1.5793 -0.0639
   63MOL   H71547959   4.650   7.225   1.595 -1.2453  0.5331 -0.6254
   63MOL   H71647960   4.595   7.162   1.436 -0.5587 -0.4124 -0.2113
   63MOL   H71747961   4.404   7.064   1.532 -3.7839  2.3220  1.3650
   63MOL   H71847962   4.392   7.313   1.478 -0.5429  0.9032  0.5256
   63MOL   H71947963   4.419   7.349   1.635  0.8861  0.1654 -0.0493
   63MOL   H72047964   3.948   7.178   1.316  0.3401  0.1439 -0.0484
   63MOL   H72147965   3.698   7.221   1.360 -1.3668  0.1085  2.0494
   63MOL   H72247966   3.789   7.355   1.752  0.6616  0.1401  0.4456
   63MOL   H72347967   4.035   7.331   1.704 -0.0739  1.0680 -0.0845
   63MOL   C72447968   3.494   7.241   2.123  0.6895  0.5961  0.0301
   63MOL   C72547969   3.518   7.231   1.966  0.1591 -0.5157 -0.7810
   63MOL   C72647970   3.414   7.319   1.892  0.3890  0.2805 -0.3057
   63MOL   C72747971   3.424   7.308   1.746 -0.9148  0.9987 -0.8492
   63MOL   C72847972   3.273   7.277   1.941 -0.8961 -0.7671 -1.3752
   63MOL   C72947973   3.246   7.269   2.093  0.7934 -0.0223  0.2114
   63MOL   C73047974   3.348   7.178   2.159  0.2480  0.2367 -0.5125
   63MOL   C73147975   3.316   7.182   2.307 -0.1396  0.0497 -0.4810
   63MOL   O73247976   3.424   7.123   2.375  0.6536 -0.2280 -0.8034
   63MOL   C73347977   3.422   7.120   2.512  0.2896 -0.5587 -0.0749
   63MOL   O73447978   3.329   7.155   2.586 -0.6418 -0.4104 -0.0858
   63MOL   C73547979   3.540   7.057   2.558 -0.0915  0.1983 -0.5422
   63MOL   C73647980   3.662   7.084   2.494  0.5630 -1.0560  0.3300
   63MOL   C73747981   3.774   7.010   2.533  0.4934 -0.0421 -0.4174
   63MOL   C73847982   3.762   6.901   2.621  0.0113  0.3659 -0.2037
   63MOL   C73947983   3.887   6.824   2.656  0.1441 -0.8460  0.2831
   63MOL   O74047984   3.983   6.821   2.582  0.3302  0.3498  0.7467
   63MOL   O74147985   3.877   6.768   2.776 -0.1894  0.5220 -0.4015
   63MOL   C74247986   3.642   6.874   2.687 -0.3746 -0.0967  0.2515
   63MOL   C74347987   3.533   6.957   2.660  0.5438  0.0222 -0.1207
   63MOL   H74447988   3.498   7.342   2.164 -0.9151  0.0088  1.7311
   63MOL   H74547989   3.573   7.181   2.169 -0.2579 -0.8481 -0.1966
   63MOL   H74647990   3.491   7.133   1.926 -2.4424 -0.2131  0.1282
   63MOL   H74747991   3.623   7.249   1.943  0.6121 -0.6961  1.0390
   63MOL   H74847992   3.419   7.423   1.922 -0.2230  0.1136  0.4137
   63MOL   H74947993   3.360   7.393   1.722 -3.2408 -0.1966  0.8818
   63MOL   H75047994   3.373   7.215   1.720  1.7754 -0.2949 -1.5696
   63MOL   H75147995   3.253   7.175   1.908 -2.7395 -0.6796 -0.6119
   63MOL   H75247996   3.192   7.333   1.894 -1.3253  1.0314  1.4259
   63MOL   H75347997   3.269   7.370   2.124 -1.5788  1.3118 -2.1639
   63MOL   H75447998   3.144   7.248   2.125  0.2227 -1.5117 -2.3959
   63MOL   H75547999   3.334   7.077   2.122  1.5680 -0.1464  0.0185
   63MOL   H75648000   3.233   7.113   2.325 -0.8545  0.2022 -3.0462
   63MOL   H75748001   3.309   7.287   2.333  3.6858  0.3991 -0.4554
   63MOL   H75848002   3.674   7.153   2.412 -2.4347  0.1180  0.7873
   63MOL   H75948003   3.865   7.028   2.478  0.1652  1.9229 -0.3710
   63MOL   H76048004   3.637   6.800   2.765 -0.2533  0.7090  1.0213
   63MOL   H76148005   3.435   6.943   2.702 -0.1028  0.7364 -1.3664
   63MOL   H76248006   3.966   6.739   2.792 -1.1426 -1.9970  0.5280
   64MOL     C148007   5.914   4.492   0.885 -0.5672 -0.7192 -0.2283
   64MOL     C248008   5.793   4.558   0.969  0.2945  0.0465  0.2280
   64MOL     C348009   5.694   4.639   0.892 -0.1686 -0.4700 -0.4348
   64MOL     C448010   5.595   4.706   0.997  0.3455 -0.9316 -0.3175
   64MOL     C548011   5.767   4.744   0.806  0.2820  0.0104  0.0576
   64MOL     C648012   5.884   4.684   0.721 -0.5540 -0.1685  0.3881
   64MOL     C748013   5.979   4.597   0.799 -0.8335  0.1479  0.0113
   64MOL     C848014   6.090   4.538   0.706  0.3990  0.0516 -0.1651
   64MOL     O948015   6.150   4.626   0.614  0.4760 -0.2590 -0.5388
   64MOL    C1048016   6.220   4.735   0.642  1.0696  0.3558  0.2975
   64MOL    O1148017   6.240   4.784   0.755 -0.2316 -0.3856  0.1410
   64MOL    C1248018   6.253   4.805   0.519  0.1474 -0.4473 -0.1817
   64MOL    C1348019   6.372   4.886   0.514 -0.1046  0.0164 -0.4896
   64MOL    C1448020   6.411   4.947   0.388 -0.0892 -0.0969 -0.4180
   64MOL    C1548021   6.327   4.937   0.278  0.1296 -0.1545 -0.0758
   64MOL    C1648022   6.368   4.994   0.147  0.3599  0.0515 -0.9961
   64MOL    O1748023   6.463   5.067   0.126  0.0541  0.5331  0.1873
   64MOL    O1848024   6.285   4.951   0.054 -0.5508 -0.0200 -0.0862
   64MOL    C1948025   6.196   4.886   0.293  0.1627  0.5279 -0.0813
   64MOL    C2048026   6.166   4.816   0.414  0.0201  0.3925 -0.0592
   64MOL    H2148027   5.898   4.409   0.816  1.8136 -0.1693 -1.4992
   64MOL    H2248028   5.985   4.447   0.954 -0.6065 -1.3503 -0.5968
   64MOL    H2348029   5.836   4.623   1.045 -0.1180 -1.2365  1.5790
   64MOL    H2448030   5.745   4.478   1.025  2.4838 -1.1169  0.4816
   64MOL    H2548031   5.634   4.573   0.830 -0.8086  2.5366 -3.2101
   64MOL    H2648032   5.511   4.752   0.946  2.9303  0.9298 -3.0625
   64MOL    H2748033   5.639   4.787   1.056 -1.7075  0.2957 -0.4207
   64MOL    H2848034   5.804   4.824   0.870  2.9567 -1.1474  0.0284
   64MOL    H2948035   5.694   4.793   0.742  0.7158  0.6225  0.0279
   64MOL    H3048036   5.834   4.617   0.651 -1.2256 -0.6223  1.2930
   64MOL    H3148037   5.933   4.759   0.659 -1.8143  0.9259  0.6782
   64MOL    H3248038   6.024   4.667   0.871 -0.6460  1.3329 -1.2446
   64MOL    H3348039   6.063   4.447   0.653 -0.3512  1.2073 -1.8337
   64MOL    H3448040   6.171   4.505   0.772  0.9215  1.1316 -0.2455
   64MOL    H3548041   6.429   4.893   0.605 -0.8152 -0.4010 -0.0137
   64MOL    H3648042   6.495   5.015   0.378 -0.2744  0.2228  0.1713
   64MOL    H3748043   6.121   4.891   0.215  2.0030 -1.0127 -2.0026
   64MOL    H3848044   6.065   4.779   0.422 -0.3734  1.9811  2.8596
   64MOL    H3948045   5.551   4.630   1.062  0.8157 -0.7428  0.2285
   64MOL    C4048046   5.901   5.037   7.909 -0.0891  0.4456  0.0061
   64MOL    C4148047   6.043   5.043   7.974  0.3360  0.2987 -0.4066
   64MOL    C4248048   6.153   4.992   7.881  0.6012 -0.0008 -0.5853
   64MOL    C4348049   6.292   5.000   7.949  0.1260  0.0219  0.0839
   64MOL    C4448050   6.106   4.850   7.829 -0.1708 -0.7459  0.7280
   64MOL    C4548051   5.970   4.840   7.758  0.2453  0.3842 -0.8468
   64MOL    C4648052   5.860   4.901   7.855 -0.1491  0.2055 -0.5183
   64MOL    C4748053   5.712   4.874   7.832  0.3950  0.0009  0.2575
   64MOL    O4848054   5.664   4.968   7.749 -0.9630 -0.4874  0.2308
   64MOL    C4948055   5.670   4.962   7.613 -0.1826 -0.1731  0.1289
   64MOL    O5048056   5.734   4.877   7.547  0.2629 -0.2671  0.0244
   64MOL    C5148057   5.593   5.073   7.546  0.3496 -0.2858  0.4038
   64MOL    C5248058   5.516   5.170   7.613  0.3920  0.5517  0.1385
   64MOL    C5348059   5.442   5.273   7.545  0.1082 -0.0428 -0.3504
   64MOL    C5448060   5.426   5.266   7.407 -0.8321  0.1431 -0.1507
   64MOL    C5548061   5.346   5.362   7.327  0.4162  0.3475  0.0255
   64MOL    O5648062   5.303   5.466   7.377  1.4046 -0.4755  0.2201
   64MOL    O5748063   5.318   5.322   7.201 -0.3970 -0.9509 -0.0958
   64MOL    C5848064   5.501   5.166   7.337  0.2609  0.2513 -0.3722
   64MOL    C5948065   5.590   5.072   7.404  0.1482 -0.3336  1.0070
   64MOL    H6048066   5.894   5.107   7.826 -0.9696  1.3579  0.8252
   64MOL    H6148067   5.839   5.090   7.982  0.8093  1.8371 -0.2300
   64MOL    H6248068   6.033   4.975   0.027  1.0607  1.6703  0.7873
   64MOL    H6348069   6.074   5.143   8.004 -3.2241  0.6118  2.5111
   64MOL    H6448070   6.174   5.050   7.792  1.9563 -0.6008 -0.6665
   64MOL    H6548071   6.332   5.099   7.928  1.1589 -1.1381 -3.6288
   64MOL    H6648072   6.372   4.939   7.910  1.7505  0.2280  2.9304
   64MOL    H6748073   6.095   4.792   7.921 -1.2759 -0.9704  0.4574
   64MOL    H6848074   6.181   4.810   7.760  0.9134  0.2500  1.3002
   64MOL    H6948075   5.972   4.888   7.660 -1.0416  1.4154 -0.3822
   64MOL    H7048076   5.945   4.737   7.729  0.1342 -0.4564  2.0266
   64MOL    H7148077   5.872   4.830   7.937  0.3402 -0.2740 -0.9942
   64MOL    H7248078   5.662   4.882   7.928 -1.0435 -1.5946 -0.3544
   64MOL    H7348079   5.687   4.774   7.796  0.5534 -0.8040  2.3095
   64MOL    H7448080   5.526   5.176   7.721  0.6728 -0.2816  0.1584
   64MOL    H7548081   5.401   5.352   7.607  0.3504  0.2313 -0.5408
   64MOL    H7648082   5.515   5.161   7.230 -0.0637 -0.4932 -0.3830
   64MOL    H7748083   5.645   4.999   7.347 -1.7784 -0.5175 -0.6977
   64MOL    C7848084   5.441   5.418   6.781 -0.0391 -0.1242  0.2082
   64MOL    C7948085   5.360   5.354   6.902 -0.3844 -0.6235  0.0655
   64MOL    C8048086   5.323   5.465   7.002  0.4102 -0.1201  0.2552
   64MOL    C8148087   5.240   5.407   7.115  0.3044  0.4309 -0.1610
   64MOL    C8248088   5.450   5.541   7.051 -0.7111  0.1741 -0.2768
   64MOL    C8348089   5.533   5.598   6.934  0.6711  0.5544  0.0131
   64MOL    C8448090   5.571   5.492   6.831 -0.5343 -0.0039  0.0737
   64MOL    C8548091   5.640   5.562   6.708  0.4537  0.1585  0.3925
   64MOL    O8648092   5.718   5.461   6.636 -0.0979  0.4522  0.4666
   64MOL    C8748093   5.819   5.495   6.558  0.1786  0.1987  0.4826
   64MOL    O8848094   5.864   5.609   6.539 -0.2010 -0.8617 -0.5685
   64MOL    C8948095   5.861   5.379   6.482  0.0658 -0.1162  0.4565
   64MOL    C9048096   5.810   5.250   6.505 -0.4631 -0.2863  0.4890
   64MOL    C9148097   5.869   5.135   6.439  0.2864  0.0291  0.6108
   64MOL    C9248098   5.963   5.153   6.336  0.4745  1.0297 -0.1218
   64MOL    C9348099   6.025   5.034   6.266  0.2557  0.1147  0.8527
   64MOL    O9448100   5.999   4.922   6.298  0.1223  0.5441  0.1392
   64MOL    O9548101   6.107   5.070   6.169 -0.4095  0.0597 -0.0847
   64MOL    C9648102   6.003   5.286   6.301  0.4090  0.3075  0.2939
   64MOL    C9748103   5.955   5.396   6.375 -0.5128 -0.6504 -0.0581
   64MOL    H9848104   5.374   5.482   6.723 -0.4847 -0.4892  0.3124
   64MOL    H9948105   5.455   5.333   6.714  0.3037  0.3974 -0.3884
   64MOL   H10048106   5.414   5.276   6.955 -2.2060 -0.5746  2.0826
   64MOL   H10148107   5.271   5.303   6.864 -2.0321  1.4481  0.9965
   64MOL   H10248108   5.257   5.527   6.942  1.2531  0.7672  0.2381
   64MOL   H10348109   5.152   5.348   7.089  0.4275 -0.4102  1.2772
   64MOL   H10448110   5.190   5.484   7.173 -2.1077 -0.8910 -0.4320
   64MOL   H10548111   5.516   5.471   7.102 -0.8238 -0.6800 -1.3026
   64MOL   H10648112   5.422   5.628   7.110 -2.2685 -0.0606 -0.6504
   64MOL   H10748113   5.476   5.678   6.885 -0.9489 -0.1486  0.7149
   64MOL   H10848114   5.627   5.641   6.967  1.2223 -0.2336 -0.5141
   64MOL   H10948115   5.635   5.417   6.876  1.3676  1.4169 -0.1908
   64MOL   H11048116   5.708   5.638   6.748  0.9285 -0.6085  1.0494
   64MOL   H11148117   5.566   5.615   6.647 -1.0147 -1.3762  0.7987
   64MOL   H11248118   5.731   5.233   6.577  0.4055  0.2468  1.5907
   64MOL   H11348119   5.837   5.034   6.460  0.2020  0.3692  2.2022
   64MOL   H11448120   6.075   5.306   6.224  1.7451 -0.4613  1.3320
   64MOL   H11548121   5.990   5.494   6.347  0.3075 -1.4495 -1.9493
   64MOL   C11648122   6.435   5.164   5.889 -0.3167 -0.4186 -0.0853
   64MOL   C11748123   6.304   5.153   5.965  0.3194  0.6701  0.4927
   64MOL   C11848124   6.275   5.010   6.002 -0.3178 -1.4344 -0.2591
   64MOL   C11948125   6.140   4.977   6.067  0.2496  0.1631 -0.0765
   64MOL   C12048126   6.287   4.909   5.878  0.1078 -0.2980 -0.2475
   64MOL   C12148127   6.419   4.930   5.798  0.6963 -0.4268 -0.8581
   64MOL   C12248128   6.441   5.076   5.766  0.3049  0.7641  0.3401
   64MOL   C12348129   6.568   5.101   5.685  0.0406 -0.3108  0.1040
   64MOL   O12448130   6.680   5.068   5.765 -0.0244  0.2057  0.4564
   64MOL   C12548131   6.773   5.160   5.808  0.1429  0.6376  0.4769
   64MOL   O12648132   6.772   5.276   5.771 -0.4752 -0.6241  0.0101
   64MOL   C12748133   6.859   5.096   5.912 -1.0379  0.7011  0.4272
   64MOL   C12848134   6.825   4.969   5.961  0.1408  0.7922 -0.7047
   64MOL   C12948135   6.908   4.910   6.061  0.5569 -0.7355 -0.0272
   64MOL   C13048136   7.020   4.976   6.107  0.3332  0.3298 -0.3875
   64MOL   C13148137   7.115   4.906   6.203  0.1661  0.3817  0.4509
   64MOL   O13248138   7.080   4.811   6.271 -0.3332  0.0592 -0.3157
   64MOL   O13348139   7.236   4.961   6.203 -0.1101  0.4590 -0.3424
   64MOL   C13448140   7.050   5.104   6.060  0.2205 -0.1918  0.3511
   64MOL   C13548141   6.954   5.170   5.972 -0.0289 -0.7342  0.5824
   64MOL   H13648142   6.513   5.135   5.960  0.4150  0.1821 -0.6363
   64MOL   H13748143   6.439   5.272   5.874 -1.9048 -0.0918  1.5798
   64MOL   H13848144   6.223   5.185   5.900  0.2914  1.8998  1.1174
   64MOL   H13948145   6.304   5.223   6.049 -1.6224  1.7140 -0.3608
   64MOL   H14048146   6.358   4.977   6.065  1.1371  1.6750 -0.4671
   64MOL   H14148147   6.152   4.875   6.101 -3.5519 -0.4199 -0.2403
   64MOL   H14248148   6.070   4.982   5.984 -0.4733  4.2540  0.6285
   64MOL   H14348149   6.200   4.909   5.812 -0.9827 -0.3424  1.1660
   64MOL   H14448150   6.289   4.806   5.911  1.0133  0.2736  1.5215
   64MOL   H14548151   6.506   4.896   5.853 -0.2099  0.7642  1.3836
   64MOL   H14648152   6.411   4.864   5.712 -1.9058  0.0038 -0.9930
   64MOL   H14748153   6.362   5.116   5.703  0.2028  0.3464  0.2045
   64MOL   H14848154   6.566   5.205   5.652 -0.4394 -0.5949 -0.8052
   64MOL   H14948155   6.561   5.036   5.598  1.8466  0.1311 -0.3980
   64MOL   H15048156   6.749   4.907   5.917 -0.6876  0.2762  1.4206
   64MOL   H15148157   6.882   4.811   6.097  1.7578 -1.2635 -0.5974
   64MOL   H15248158   7.128   5.159   6.110 -0.8080  2.8273 -1.2075
   64MOL   H15348159   6.981   5.264   5.926 -4.1843  1.4628  2.3394
   64MOL   C15448160   7.555   4.627   6.370 -0.0310 -0.1422 -0.9380
   64MOL   C15548161   7.478   4.745   6.398 -0.2404  0.8894  0.8285
   64MOL   C15648162   7.408   4.796   6.274 -0.9017  0.0383  0.2266
   64MOL   C15748163   7.330   4.922   6.304  0.1369  0.2135  0.3839
   64MOL   C15848164   7.512   4.823   6.160 -0.9719 -0.3756 -0.8712
   64MOL   C15948165   7.587   4.690   6.134  0.2290 -0.3095 -0.0419
   64MOL   C16048166   7.659   4.651   6.258 -0.6730 -0.6993 -0.4363
   64MOL   C16148167   7.741   4.530   6.241 -0.2512 -0.3232 -0.0354
   64MOL   O16248168   7.775   4.465   6.358 -0.4215  0.0050 -0.1441
   64MOL   C16348169   7.879   4.517   6.434 -0.2639 -0.2602  0.0326
   64MOL   O16448170   7.951   4.606   6.393  0.3109 -0.6954  0.1573
   64MOL   C16548171   7.900   4.463   6.570  0.0927  0.3621  0.7975
   64MOL   C16648172   7.959   4.543   6.665 -0.1136  0.0415 -0.5113
   64MOL   C16748173   7.992   4.482   6.792 -0.3075  0.4771  0.2382
   64MOL   C16848174   7.948   4.350   6.827 -0.5924 -0.3412  0.2472
   64MOL   C16948175   7.990   4.298   6.960 -0.2605  0.1178  0.1521
   64MOL   O17048176   0.008   4.367   7.049  0.2865 -0.3412  0.2543
   64MOL   O17148177   7.974   4.169   6.965  0.1312  0.0259 -0.3712
   64MOL   C17248178   7.879   4.269   6.728 -0.7239  0.3535 -0.2638
   64MOL   C17348179   7.861   4.330   6.601 -0.1749  0.3743  0.2150
   64MOL   H17448180   7.473   4.556   6.353  0.7878 -0.9450 -1.5496
   64MOL   H17548181   7.602   4.591   6.462 -2.2429  0.3432  0.4213
   64MOL   H17648182   7.545   4.823   6.435  1.5416 -0.6024  0.8354
   64MOL   H17748183   7.415   4.715   6.481  2.0888 -1.2692  1.8731
   64MOL   H17848184   7.339   4.720   6.238 -0.3383 -0.5039  0.2736
   64MOL   H17948185   7.402   5.002   6.323  1.0926 -1.0555  2.2745
   64MOL   H18048186   7.275   4.901   6.396  1.4550  0.0075  1.1334
   64MOL   H18148187   7.584   4.900   6.187 -0.3343 -1.7290  1.4753
   64MOL   H18248188   7.455   4.850   6.071 -2.0944  0.6808  0.1607
   64MOL   H18348189   7.515   4.610   6.116  1.0521 -1.2654  0.8494
   64MOL   H18448190   7.651   4.693   6.046  0.1593  0.4910 -0.0625
   64MOL   H18548191   7.732   4.728   6.282  0.9455 -1.6186 -2.3543
   64MOL   H18648192   7.834   4.559   6.192 -1.0784 -2.4313 -2.9958
   64MOL   H18748193   7.688   4.450   6.190  0.0873  0.0559 -0.9939
   64MOL   H18848194   7.996   4.642   6.645 -1.2511  0.5619 -0.0628
   64MOL   H18948195   0.028   4.523   6.866  0.8443 -0.9463 -0.0069
   64MOL   H19048196   7.840   4.172   6.753  0.2652  0.0302  0.0396
   64MOL   H19148197   7.814   4.272   6.523 -2.7367 -0.0454  1.9939
   64MOL   C19248198   7.821   3.766   7.097 -0.5004 -0.1426  0.3860
   64MOL   C19348199   7.850   3.920   7.096 -0.2062 -0.6265 -0.0074
   64MOL   C19448200   8.003   3.955   7.067  0.0754  0.4290  0.3390
   64MOL   C19548201   0.003   4.102   7.071  0.3032 -0.3355 -0.6681
   64MOL   C19648202   0.058   3.884   7.172 -0.5841 -0.2211  0.2327
   64MOL   C19748203   0.037   3.736   7.171 -0.2532 -0.4450 -0.8812
   64MOL   C19848204   7.924   3.697   7.189 -0.3533 -0.1755  0.1722
   64MOL   C19948205   7.908   3.540   7.179 -0.1880 -0.1450  0.3972
   64MOL   O20048206   7.779   3.500   7.202  0.1847 -0.6408 -0.2071
   64MOL   C20148207   7.760   3.369   7.212  0.2947 -0.6041  0.2008
   64MOL   O20248208   7.852   3.293   7.235 -0.4289 -0.4371  0.4241
   64MOL   C20348209   7.618   3.329   7.191  0.0269 -0.1825 -0.1915
   64MOL   C20448210   7.517   3.429   7.200  0.3675  0.1282  0.6543
   64MOL   C20548211   7.386   3.385   7.197 -0.0105  0.1770 -0.1658
   64MOL   C20648212   7.354   3.250   7.173  0.0425 -0.0802  0.3830
   64MOL   C20748213   7.217   3.211   7.143 -0.6379  0.3239  0.0070
   64MOL   O20848214   7.187   3.091   7.111 -0.1575  0.0210  0.4363
   64MOL   O20948215   7.138   3.318   7.124  0.5077  0.0165 -0.4785
   64MOL   C21048216   7.456   3.151   7.161 -0.6000 -0.3436  0.0385
   64MOL   C21148217   7.587   3.189   7.176  0.3495 -0.0330  0.8922
   64MOL   H21248218   7.849   3.751   6.993  1.6581  1.2748  0.7309
   64MOL   H21348219   7.723   3.737   7.135  0.2732 -2.7911  0.4402
   64MOL   H21448220   7.831   3.956   7.198  0.0692  0.2813 -0.2721
   64MOL   H21548221   7.778   3.959   7.024  0.4020  0.2908 -0.1331
   64MOL   H21648222   8.031   3.910   6.971 -0.9978  0.3414  0.0632
   64MOL   H21748223   0.108   4.128   7.057  0.4250  0.4384  1.4066
   64MOL   H21848224   7.999   4.149   7.162  0.1040  1.8674 -1.8553
   64MOL   H21948225   0.042   3.926   7.272  0.7840  3.3676 -0.9653
   64MOL   H22048226   0.161   3.904   7.142 -0.0509  0.0402  2.1637
   64MOL   H22148227   0.085   3.705   7.079  0.9178  0.7920 -0.7109
   64MOL   H22248228   0.096   3.697   7.254  0.2056  2.5349  0.2885
   64MOL   H22348229   7.906   3.708   7.296  2.0318 -0.1398  0.5953
   64MOL   H22448230   7.971   3.496   7.256  0.1150 -1.0685 -0.3705
   64MOL   H22548231   7.948   3.506   7.084  1.0580  1.4195  0.3451
   64MOL   H22648232   7.544   3.532   7.219 -0.4257  0.4577  0.0178
   64MOL   H22748233   7.310   3.458   7.219 -0.5882 -0.8901  1.4929
   64MOL   H22848234   7.428   3.048   7.143 -2.2914 -0.0218  0.7004
   64MOL   H22948235   7.658   3.108   7.170 -0.3046 -0.5098 -0.4261
   64MOL   C23048236   6.643   3.451   7.048 -0.0532  0.4228  0.2921
   64MOL   C23148237   6.758   3.344   7.042  0.1614 -0.2171 -0.0077
   64MOL   C23248238   6.888   3.389   7.112 -0.1475  0.0866  0.3217
   64MOL   C23348239   7.000   3.288   7.086  0.7881  0.5726 -0.2649
   64MOL   C23448240   6.924   3.526   7.046  0.2221  0.7506 -0.5950
   64MOL   C23548241   6.808   3.631   7.039 -0.2285  0.0369 -0.0981
   64MOL   C23648242   6.679   3.582   6.976  0.0487 -0.5717 -0.6987
   64MOL   C23748243   6.570   3.692   6.978  0.6411  0.5924  0.7342
   64MOL   O23848244   6.603   3.801   6.898  0.4993 -0.7000  0.1767
   64MOL   C23948245   6.570   3.803   6.767  0.1318  0.8847 -0.7549
   64MOL   O24048246   6.528   3.706   6.709 -0.8291  0.2445 -0.1544
   64MOL   C24148247   6.598   3.933   6.706 -0.0197 -0.1477  0.2218
   64MOL   C24248248   6.564   3.957   6.568  0.1830 -0.2727  0.6082
   64MOL   C24348249   6.602   4.080   6.505  0.3506  0.0865 -0.6205
   64MOL   C24448250   6.674   4.179   6.575  0.6527 -1.1424  0.4682
   64MOL   C24548251   6.720   4.307   6.504  0.9890 -0.5740  0.3491
   64MOL   O24648252   6.765   4.403   6.563 -0.3113 -0.6173 -0.1530
   64MOL   O24748253   6.694   4.313   6.373 -0.4577 -0.3057 -0.3013
   64MOL   C24848254   6.718   4.150   6.703  0.1866  0.6897 -0.0488
   64MOL   C24948255   6.677   4.028   6.770 -0.5882 -0.7053 -0.4432
   64MOL   H25048256   6.619   3.481   7.150 -1.0088  1.9076 -0.3526
   64MOL   H25148257   6.553   3.416   6.997  0.6117 -1.0744  0.1262
   64MOL   H25248258   6.771   3.327   6.936 -1.0822 -0.1691 -0.1784
   64MOL   H25348259   6.719   3.256   7.094 -0.0557  0.0664  0.3164
   64MOL   H25448260   6.870   3.407   7.218  0.5391 -0.8182  0.5950
   64MOL   H25548261   7.017   3.264   6.981 -0.5066 -0.9732 -0.1328
   64MOL   H25648262   6.966   3.192   7.124  4.3867 -1.2033 -1.2535
   64MOL   H25748263   6.959   3.501   6.946  1.4666 -0.6225  0.1660
   64MOL   H25848264   7.010   3.557   7.104 -0.0388 -0.1417  0.2846
   64MOL   H25948265   6.792   3.657   7.143 -0.0080 -0.4563  0.0600
   64MOL   H26048266   6.831   3.726   6.992 -0.4969 -0.0131 -0.3350
   64MOL   H26148267   6.705   3.558   6.872 -0.4266 -1.3132 -0.6493
   64MOL   H26248268   6.537   3.722   7.078 -1.1275 -4.4166  1.8025
   64MOL   H26348269   6.470   3.654   6.956  0.2162  2.3056 -0.3840
   64MOL   H26448270   6.506   3.879   6.521 -0.3493 -0.4460  1.5379
   64MOL   H26548271   6.577   4.103   6.402 -0.6203  2.1298  0.0457
   64MOL   H26648272   6.774   4.226   6.755 -2.1841  0.9921  2.1370
   64MOL   H26748273   6.705   4.012   6.873 -1.0575  0.5034 -0.1176
   64MOL   C26848274   6.581   4.521   5.949  0.5584  0.4325 -0.5160
   64MOL   C26948275   6.650   4.537   6.085 -0.3200  0.3746 -0.2319
   64MOL   C27048276   6.663   4.404   6.157  0.1108  0.1177 -0.1923
   64MOL   C27148277   6.715   4.432   6.300 -0.1316 -0.5910 -0.1340
   64MOL   C27248278   6.535   4.326   6.164 -0.0125 -0.3634 -0.3820
   64MOL   C27348279   6.449   4.329   6.035  0.6817 -0.1189 -0.5312
   64MOL   C27448280   6.438   4.473   5.973  0.5182  0.3593  0.1338
   64MOL   C27548281   6.366   4.486   5.843  0.6642  0.4742 -0.7378
   64MOL   O27648282   6.426   4.416   5.735  0.0565 -0.1943  0.0467
   64MOL   C27748283   6.437   4.470   5.613  0.6387 -0.6354 -0.7933
   64MOL   O27848284   6.402   4.586   5.588 -0.4113 -0.1697 -0.4883
   64MOL   C27948285   6.484   4.378   5.513 -0.6056 -0.4727 -0.6326
   64MOL   C28048286   6.604   4.302   5.525  0.0168 -0.1935  0.2888
   64MOL   C28148287   6.635   4.213   5.427  0.4401 -0.5275  0.4336
   64MOL   C28248288   6.558   4.196   5.307 -1.0953  0.1360  0.0218
   64MOL   C28348289   6.600   4.106   5.199  0.5126  0.1057  0.1990
   64MOL   O28448290   6.698   4.038   5.198 -0.1957  0.2708  0.4890
   64MOL   O28548291   6.515   4.104   5.091 -0.1615  0.0891  0.5519
   64MOL   C28648292   6.446   4.282   5.296 -0.1030 -1.4491 -0.9617
   64MOL   C28748293   6.411   4.372   5.393  0.0295  0.2233  0.8775
   64MOL   H28848294   6.642   4.460   5.883  0.1689 -1.3365  0.7387
   64MOL   H28948295   6.577   4.622   5.907  1.0681  0.9422  0.6279
   64MOL   H29048296   6.589   4.602   6.148 -0.0041 -0.3109  0.7982
   64MOL   H29148297   6.747   4.586   6.091 -0.1741  0.1937 -1.0229
   64MOL   H29248298   6.727   4.340   6.096 -2.1093 -1.8471 -0.5483
   64MOL   H29348299   6.667   4.515   6.351  1.7863  0.4951 -0.0601
   64MOL   H29448300   6.822   4.451   6.311 -0.3194 -0.8014  2.2081
   64MOL   H29548301   6.460   4.359   6.237  1.1009 -0.4055  0.8011
   64MOL   H29648302   6.565   4.225   6.194  0.9374  0.5047  1.7266
   64MOL   H29748303   6.503   4.271   5.960  0.3885  1.9243 -2.3955
   64MOL   H29848304   6.353   4.280   6.051  0.5750 -0.4556 -2.1107
   64MOL   H29948305   6.378   4.533   6.041  0.3453  2.2366 -1.6415
   64MOL   H30048306   6.356   4.594   5.828 -1.4909  0.4104  0.1034
   64MOL   H30148307   6.264   4.449   5.848  0.8488  0.0786  0.1319
   64MOL   H30248308   6.667   4.324   5.610  0.0117 -0.0273  0.2508
   64MOL   H30348309   6.725   4.153   5.434  0.5362 -0.2551  1.5403
   64MOL   H30448310   6.391   4.284   5.203  0.1229  0.2698 -1.0784
   64MOL   H30548311   6.322   4.432   5.381  0.1749  0.2380 -0.2237
   64MOL   C30648312   6.590   4.259   4.689 -0.2669  0.2805 -0.9006
   64MOL   C30748313   6.607   4.195   4.826  0.5652  0.2729 -0.2591
   64MOL   C30848314   6.500   4.088   4.852 -0.1415 -0.4630  0.8962
   64MOL   C30948315   6.525   4.013   4.983  0.3176  0.6064  0.8671
   64MOL   C31048316   6.371   4.165   4.837 -0.3731  0.0194 -0.6247
   64MOL   C31148317   6.344   4.231   4.697  0.3193 -0.0555  0.6698
   64MOL   C31248318   6.455   4.329   4.664  0.3448  0.8110 -0.1063
   64MOL   C31348319   6.454   4.383   4.522 -0.1324  0.2471  0.1181
   64MOL   O31448320   6.333   4.456   4.509  0.3278 -0.3996  0.6744
   64MOL   C31548321   6.228   4.412   4.438 -0.0629 -0.5756  0.3632
   64MOL   O31648322   6.221   4.300   4.383 -0.4181  0.2991  0.3667
   64MOL   C31748323   6.125   4.519   4.427 -0.1175  0.0340  0.5059
   64MOL   C31848324   6.133   4.643   4.492 -0.2489  0.1379  0.6431
   64MOL   C31948325   6.021   4.735   4.481  0.4370 -0.0698 -0.0805
   64MOL   C32048326   5.905   4.705   4.401 -0.2218  0.5022  0.3891
   64MOL   C32148327   5.783   4.789   4.400 -0.4417  0.0971  0.0600
   64MOL   O32248328   5.782   4.909   4.427 -0.9185  1.2792  0.2470
   64MOL   O32348329   5.677   4.709   4.363  0.2182 -0.3616  0.8187
   64MOL   C32448330   5.901   4.572   4.336 -0.1514 -0.1409  0.4425
   64MOL   C32548331   6.012   4.487   4.352  0.2135  0.7989 -0.1947
   64MOL   H32648332   6.597   4.188   4.606  2.4880 -1.5110  0.7725
   64MOL   H32748333   6.676   4.324   4.675  0.4732 -0.2925  0.8056
   64MOL   H32848334   6.601   4.272   4.902 -0.4551  2.1017 -2.1335
   64MOL   H32948335   6.713   4.169   4.836  0.6921  1.0559  0.4495
   64MOL   H33048336   6.493   4.006   4.780 -0.1050 -0.8542  1.3393
   64MOL   H33148337   6.625   3.971   4.970 -0.0821  0.4806 -2.1216
   64MOL   H33248338   6.461   3.926   4.984 -1.1419  1.6381 -0.5189
   64MOL   H33348339   6.366   4.241   4.916  0.0998  1.5236 -2.0229
   64MOL   H33448340   6.293   4.091   4.856  0.3070 -0.4355  0.4601
   64MOL   H33548341   6.345   4.156   4.618 -1.9701  0.0902  0.4530
   64MOL   H33648342   6.245   4.278   4.696  0.6418  0.6280 -0.7427
   64MOL   H33748343   6.451   4.411   4.736  2.4651  0.6471  0.2190
   64MOL   H33848344   6.470   4.302   4.451 -1.4192 -0.0864  0.2120
   64MOL   H33948345   6.540   4.450   4.516  2.0894 -2.5477 -0.4999
   64MOL   H34048346   6.220   4.672   4.548  0.7351 -0.7574 -0.3916
   64MOL   H34148347   6.036   4.836   4.517  1.4559 -0.6718  1.2332
   64MOL   H34248348   5.816   4.527   4.286  1.4520 -0.4140 -2.0882
   64MOL   H34348349   6.011   4.393   4.300  1.5063 -0.7537  2.4908
   64MOL   C34448350   5.313   4.845   4.028  0.1724 -0.0770 -0.4010
   64MOL   C34548351   5.373   4.836   4.175 -0.2702  0.1108 -0.3521
   64MOL   C34648352   5.521   4.784   4.184  0.3091  0.6601 -0.0738
   64MOL   C34748353   5.548   4.770   4.339  0.3682  0.0200 -0.5391
   64MOL   C34848354   5.534   4.647   4.111  0.3494  0.5640 -1.0062
   64MOL   C34948355   5.481   4.651   3.967  0.6930 -0.1548 -0.3855
   64MOL   C35048356   5.336   4.712   3.952 -0.7735  0.9849 -0.5765
   64MOL   C35148357   5.287   4.711   3.810 -0.1114 -0.2342  0.2982
   64MOL   O35248358   5.373   4.783   3.721  0.5079 -0.4809  0.1837
   64MOL   C35348359   5.345   4.909   3.685 -0.1855 -0.5139 -0.2407
   64MOL   O35448360   5.244   4.973   3.713  0.3505 -0.1928 -0.4089
   64MOL   C35548361   5.451   4.970   3.601  0.2930  0.1666  0.3499
   64MOL   C35648362   5.565   4.890   3.575 -0.5049  0.6983  0.3059
   64MOL   C35748363   5.674   4.946   3.500 -0.4262 -0.6444  0.2314
   64MOL   C35848364   5.664   5.084   3.465 -0.1428 -0.3116 -0.5770
   64MOL   C35948365   5.776   5.143   3.386  0.0249  0.0633 -0.0849
   64MOL   O36048366   5.879   5.087   3.346  0.1972  0.7574 -0.0696
   64MOL   O36148367   5.751   5.271   3.349  0.1344  0.0814  0.0384
   64MOL   C36248368   5.548   5.158   3.493 -0.5775 -0.1699 -0.1782
   64MOL   C36348369   5.444   5.103   3.559 -0.4910  0.6766  0.0041
   64MOL   H36448370   5.369   4.922   3.976  2.5268 -0.9006  0.8248
   64MOL   H36548371   5.208   4.873   4.021 -0.2411 -0.6199  2.8327
   64MOL   H36648372   5.312   4.761   4.224 -0.5842  0.1885 -0.6272
   64MOL   H36748373   5.358   4.934   4.220  1.1518  0.0686  0.2724
   64MOL   H36848374   5.591   4.855   4.138  0.3835 -0.3001 -1.4698
   64MOL   H36948375   5.481   4.688   4.368  1.4471 -0.1535  1.5777
   64MOL   H37048376   5.528   4.865   4.388  2.5714  1.9993 -3.3070
   64MOL   H37148377   5.477   4.576   4.170  1.8373 -0.4386 -0.7583
   64MOL   H37248378   5.629   4.594   4.100  0.1701  0.4549 -2.1099
   64MOL   H37348379   5.556   4.698   3.903  2.7079 -2.7690 -0.0343
   64MOL   H37448380   5.496   4.560   3.909  1.0179 -2.3983  3.0781
   64MOL   H37548381   5.267   4.648   4.006  1.5044  0.4931  1.8134
   64MOL   H37648382   5.184   4.748   3.812  0.6408  1.8594  0.8498
   64MOL   H37748383   5.274   4.608   3.774 -2.9914 -0.2530  1.2086
   64MOL   H37848384   5.573   4.788   3.611 -1.0818  0.8778  0.9447
   64MOL   H37948385   5.766   4.893   3.478 -0.0207  0.0725  0.1605
   64MOL   H38048386   5.535   5.260   3.462 -0.3114  0.1025  0.6030
   64MOL   H38148387   5.353   5.158   3.577 -1.5014 -0.7787 -0.5866
   64MOL   C38248388   6.140   5.410   3.540  0.2973 -0.3387 -0.3971
   64MOL   C38348389   6.051   5.334   3.439 -0.9856  0.4798 -0.0164
   64MOL   C38448390   5.946   5.420   3.361  0.2088 -0.0150 -0.2590
   64MOL   C38548391   5.851   5.339   3.272 -0.0077  0.5648 -0.1295
   64MOL   C38648392   5.866   5.504   3.473 -0.3598 -0.0174 -0.1259
   64MOL   C38748393   5.965   5.587   3.562 -0.3102  0.7103 -0.5622
   64MOL   C38848394   6.050   5.491   3.641  0.3067  0.3422 -0.0755
   64MOL   C38948395   6.149   5.561   3.744 -0.1077  0.0005 -0.0688
   64MOL   O39048396   6.075   5.595   3.850  0.1249  0.4541 -0.3790
   64MOL   C39148397   6.149   5.637   3.952 -0.6315 -0.3515 -0.1635
   64MOL   O39248398   6.271   5.635   3.958 -0.0120  0.3861 -0.0972
   64MOL   C39348399   6.074   5.715   4.054 -0.4771  0.4260  0.2904
   64MOL   C39448400   5.934   5.711   4.062 -0.5616 -0.1895  0.6205
   64MOL   C39548401   5.858   5.796   4.146 -0.3926 -0.0012  0.0623
   64MOL   C39648402   5.928   5.883   4.240  0.5337  0.6926 -0.0395
   64MOL   C39748403   5.854   5.956   4.343 -0.2444 -0.0928 -0.1573
   64MOL   O39848404   5.734   5.943   4.363  0.1514  0.1130  0.2534
   64MOL   O39948405   5.938   6.033   4.416  0.1008  0.1010 -0.4200
   64MOL   C40048406   6.072   5.901   4.217 -0.0025 -0.1986  0.4515
   64MOL   C40148407   6.143   5.819   4.129  0.0238  1.2437 -0.2313
   64MOL   H40248408   6.200   5.478   3.480 -0.3000  0.2740 -0.3056
   64MOL   H40348409   6.213   5.345   3.590  1.6319 -0.0593 -1.9470
   64MOL   H40448410   5.999   5.266   3.507 -2.8723  1.4139 -0.4870
   64MOL   H40548411   6.109   5.273   3.370 -1.0349 -0.1470  0.4977
   64MOL   H40648412   5.994   5.496   3.299  2.0418 -1.4483 -0.6523
   64MOL   H40748413   5.909   5.270   3.211 -1.9330  2.0794 -3.8383
   64MOL   H40848414   5.795   5.397   3.199  1.0501 -0.3905 -1.7160
   64MOL   H40948415   5.813   5.439   3.542  0.9222  0.6439  1.5151
   64MOL   H41048416   5.796   5.576   3.431 -0.2914  1.5143  2.2770
   64MOL   H41148417   6.031   5.652   3.504 -0.9183 -0.7538 -2.9543
   64MOL   H41248418   5.917   5.650   3.637 -0.2204 -0.3335  0.3932
   64MOL   H41348419   5.991   5.412   3.687  0.7689  1.1714  2.0120
   64MOL   H41448420   6.204   5.644   3.699 -2.1436  0.7790 -1.2200
   64MOL   H41548421   6.228   5.497   3.782  0.8934  1.5146  0.4122
   64MOL   H41648422   5.874   5.645   4.002 -0.0544 -0.3976  0.3370
   64MOL   H41748423   5.750   5.793   4.143 -0.4084 -0.8089  1.3487
   64MOL   H41848424   6.127   5.984   4.259 -0.0671  0.4878 -0.7833
   64MOL   H41948425   6.250   5.829   4.118  0.4565 -3.1836 -1.0347
   64MOL   C42048426   5.882   6.508   4.407  0.2730  0.2821 -0.0284
   64MOL   C42148427   5.924   6.379   4.482  0.5535 -0.5626 -0.6936
   64MOL   C42248428   5.841   6.257   4.430 -0.0058  0.4454  0.7799
   64MOL   C42348429   5.885   6.128   4.506  0.4941  0.7177 -0.9735
   64MOL   C42448430   5.689   6.276   4.442 -0.1347 -0.4579  0.3650
   64MOL   C42548431   5.635   6.417   4.390 -0.3240 -0.6431 -0.1571
   64MOL   C42648432   5.723   6.531   4.433  0.1815  0.1381 -0.4614
   64MOL   C42748433   5.685   6.656   4.345  0.9276  0.2486 -0.6689
   64MOL   O42848434   5.541   6.678   4.351 -0.7193 -0.1567 -0.0690
   64MOL   C42948435   5.482   6.760   4.438 -0.5261  0.2921  0.9107
   64MOL   O43048436   5.552   6.824   4.523 -0.0472 -0.3137 -0.4802
   64MOL   C43148437   5.335   6.763   4.424  0.1340 -0.0424 -0.3052
   64MOL   C43248438   5.261   6.859   4.496  0.0155  0.0040 -0.2739
   64MOL   C43348439   5.125   6.865   4.476 -0.5683  0.4361 -0.0109
   64MOL   C43448440   5.055   6.766   4.407  0.6019  0.4092  0.5109
   64MOL   C43548441   4.905   6.763   4.410  0.4598 -0.3619 -1.3833
   64MOL   O43648442   4.833   6.669   4.364 -0.4051 -0.1857 -0.0412
   64MOL   O43748443   4.845   6.865   4.473 -0.0881 -0.1578  0.0943
   64MOL   C43848444   5.127   6.659   4.354  0.4703  0.0637  0.2058
   64MOL   C43948445   5.267   6.662   4.354  0.5735  0.2124  0.6985
   64MOL   H44048446   5.909   6.499   4.302  0.4013 -0.4701  0.0635
   64MOL   H44148447   5.935   6.597   4.443  1.2215  0.1929 -1.1986
   64MOL   H44248448   5.911   6.388   4.590 -0.9924 -3.0071 -0.6418
   64MOL   H44348449   6.028   6.357   4.461  1.4798  1.2718  1.7173
   64MOL   H44448450   5.860   6.249   4.323 -0.9686  0.5983  0.5917
   64MOL   H44548451   5.799   6.079   4.552  0.9575  0.3346 -0.5088
   64MOL   H44648452   5.960   6.155   4.579  1.4606  1.9681 -2.4082
   64MOL   H44748453   5.675   6.270   4.550  0.0176 -0.8273  0.3628
   64MOL   H44848454   5.631   6.201   4.388  0.6230  0.2342 -1.4430
   64MOL   H44948455   5.641   6.403   4.282 -1.1310 -1.1401 -0.1462
   64MOL   H45048456   5.533   6.436   4.424  0.5020  2.5144  0.7560
   64MOL   H45148457   5.708   6.555   4.538  1.7570  0.8764 -0.3853
   64MOL   H45248458   5.710   6.638   4.241  0.4177 -1.3662 -0.5361
   64MOL   H45348459   5.738   6.742   4.384  1.1604  0.8296 -2.2563
   64MOL   H45448460   5.311   6.942   4.544 -0.5731  1.4380 -2.0871
   64MOL   H45548461   5.083   6.953   4.521  0.0156  0.5383  0.3377
   64MOL   H45648462   5.079   6.573   4.311  0.5287  0.4183 -0.5843
   64MOL   H45748463   5.324   6.578   4.319 -2.7635 -1.9739  0.2208
   64MOL   C45848464   4.426   7.090   4.330  0.1355 -0.3190 -0.0347
   64MOL   C45948465   4.499   6.997   4.436  0.0778  0.0385  0.6605
   64MOL   C46048466   4.636   6.953   4.386 -0.0202  1.1027 -0.3487
   64MOL   C46148467   4.702   6.874   4.501  0.9722  0.1004 -0.7767
   64MOL   C46248468   4.625   6.882   4.249  0.5077 -0.1649  0.0690
   64MOL   C46348469   4.557   6.976   4.145  0.1153  0.0657 -0.0399
   64MOL   C46448470   4.416   7.016   4.193  0.7890 -0.2597 -0.0612
   64MOL   C46548471   4.350   7.090   4.082  0.0818  0.1318 -0.4457
   64MOL   O46648472   4.431   7.199   4.037 -0.5194  0.0423 -0.4379
   64MOL   C46748473   4.487   7.193   3.913  0.1904 -0.3020  0.5740
   64MOL   O46848474   4.455   7.113   3.829 -0.1332  0.3665 -0.7149
   64MOL   C46948475   4.594   7.297   3.894  0.1869  0.3024 -0.2425
   64MOL   C47048476   4.625   7.386   3.996 -0.1913 -0.2837 -0.3985
   64MOL   C47148477   4.724   7.486   3.980  0.2762 -0.5500 -1.3052
   64MOL   C47248478   4.797   7.489   3.861 -0.5699 -0.2291 -0.8869
   64MOL   C47348479   4.914   7.583   3.852 -0.1092  0.3003  0.2633
   64MOL   O47448480   4.952   7.657   3.944 -0.1653  0.3722 -0.2195
   64MOL   O47548481   4.980   7.576   3.735 -0.7399  0.6711 -0.0935
   64MOL   C47648482   4.772   7.391   3.761 -0.9631 -0.3381  0.0746
   64MOL   C47748483   4.666   7.300   3.773 -0.7043  0.0567 -0.0370
   64MOL   H47848484   4.488   7.179   4.319  0.9376 -0.7206  1.2105
   64MOL   H47948485   4.328   7.116   4.370  0.8207 -0.3468  1.6948
   64MOL   H48048486   4.440   6.907   4.453  1.6224 -0.9951  0.5630
   64MOL   H48148487   4.518   7.054   4.527  0.1221  0.8767  0.1291
   64MOL   H48248488   4.690   7.048   4.378  0.5474  0.6228 -2.5398
   64MOL   H48348489   4.665   6.772   4.506 -0.8425  0.7411 -0.8910
   64MOL   H48448490   4.680   6.916   4.599  1.2797  1.7618 -1.3935
   64MOL   H48548491   4.560   6.794   4.256 -0.7594  0.7708  0.2662
   64MOL   H48648492   4.724   6.846   4.221  0.5212  0.7437 -1.0506
   64MOL   H48748493   4.616   7.067   4.137  1.6772 -1.1680 -3.6383
   64MOL   H48848494   4.555   6.926   4.049  0.2767  1.4777 -0.7873
   64MOL   H48948495   4.356   6.927   4.214 -2.5017  2.1250  0.9585
   64MOL   H49048496   4.251   7.118   4.118 -0.4343 -1.8074 -0.3209
   64MOL   H49148497   4.336   7.008   4.011 -0.2487  0.3822 -0.6723
   64MOL   H49248498   4.576   7.393   4.092 -0.2183 -3.6644 -0.0820
   64MOL   H49348499   4.764   7.548   4.059 -1.4640  2.0069 -2.3516
   64MOL   H49448500   4.834   7.389   3.672  0.1229 -0.5013  0.8314
   64MOL   H49548501   4.648   7.229   3.694  3.6448 -2.3155  0.9226
   64MOL   C49648502   5.276   7.403   3.449  0.4720 -0.4067 -0.3350
   64MOL   C49748503   5.178   7.495   3.522 -0.2008 -0.2262  0.7041
   64MOL   C49848504   5.212   7.520   3.663 -0.1248 -0.3555 -0.0240
   64MOL   C49948505   5.110   7.618   3.725 -1.0447  0.7680 -0.6591
   64MOL   C50048506   5.229   7.381   3.733  0.4011 -0.0013 -0.6520
   64MOL   C50148507   5.325   7.290   3.659  0.2399  0.4335 -0.1033
   64MOL   C50248508   5.277   7.270   3.519  0.0392 -0.0358 -0.0494
   64MOL   C50348509   5.359   7.171   3.437  0.2844  0.0536  0.4656
   64MOL   O50448510   5.499   7.184   3.466  0.0118  0.2808  0.4520
   64MOL   C50548511   5.590   7.117   3.385  0.1832 -0.5995 -0.3893
   64MOL   O50648512   5.553   7.037   3.303 -0.1747 -0.4182 -0.3194
   64MOL   C50748513   5.735   7.141   3.410  0.2263  1.0537 -0.2678
   64MOL   C50848514   5.831   7.058   3.340  0.2080  0.1521 -0.1462
   64MOL   C50948515   5.969   7.083   3.372  0.0898 -0.3852  0.6726
   64MOL   C51048516   6.003   7.177   3.472 -0.6173 -0.4980 -0.5831
   64MOL   C51148517   6.145   7.220   3.487  1.3568 -0.5089  0.1235
   64MOL   O51248518   6.188   7.268   3.593 -0.0269  0.0450 -0.0198
   64MOL   O51348519   6.216   7.208   3.377 -0.3353 -0.7799  0.1787
   64MOL   C51448520   5.904   7.255   3.535 -0.3069  0.1957  0.1588
   64MOL   C51548521   5.773   7.228   3.509  0.3463  0.5160  0.0897
   64MOL   H51648522   5.378   7.439   3.444  0.7412 -1.2239 -0.8550
   64MOL   H51748523   5.228   7.392   3.352 -1.6966  1.2617  0.5135
   64MOL   H51848524   5.073   7.467   3.518 -0.1711 -0.2481 -0.2447
   64MOL   H51948525   5.183   7.576   3.450  0.4736 -3.5071 -3.1507
   64MOL   H52048526   5.311   7.565   3.665  0.3631 -1.3994 -0.4089
   64MOL   H52148527   5.114   7.712   3.671  2.8574  0.8943 -0.3169
   64MOL   H52248528   5.160   7.641   3.819 -0.1581  0.5811 -1.0758
   64MOL   H52348529   5.133   7.330   3.729  0.6174 -0.5168  0.7030
   64MOL   H52448530   5.256   7.401   3.837 -0.5986  0.8881 -0.5603
   64MOL   H52548531   5.425   7.335   3.660  0.7167 -0.5732 -0.9015
   64MOL   H52648532   5.329   7.188   3.698  1.9295  0.1777 -0.8756
   64MOL   H52748533   5.177   7.226   3.522  0.0072  0.0247 -0.2067
   64MOL   H52848534   5.339   7.182   3.330 -1.5344 -1.3679  0.6397
   64MOL   H52948535   5.330   7.068   3.454 -2.4650  0.6505 -0.3431
   64MOL   H53048536   5.808   6.973   3.277  1.1958 -0.3402  0.1540
   64MOL   H53148537   6.044   7.025   3.320 -0.7347 -0.2341 -0.7232
   64MOL   H53248538   5.930   7.333   3.605 -0.8567  0.7011 -0.2012
   64MOL   H53348539   5.697   7.286   3.561  0.2600 -2.7714  3.9534
   64MOL   C53448540   6.483   7.352   3.018 -0.3481  0.5975 -0.6855
   64MOL   C53548541   6.413   7.358   3.161 -0.2224 -0.7504  0.0424
   64MOL   C53648542   6.440   7.230   3.242  0.6170 -0.6229  0.2316
   64MOL   C53748543   6.360   7.238   3.384 -0.6049 -0.2558 -0.7763
   64MOL   C53848544   6.404   7.100   3.159  0.6547 -0.0252  0.6843
   64MOL   C53948545   6.462   7.099   3.008  0.2818  1.2616  0.0163
   64MOL   C54048546   6.434   7.231   2.931  0.3241 -0.2324 -0.8325
   64MOL   C54148547   6.505   7.218   2.794  0.2040  0.2533  0.2411
   64MOL   O54248548   6.642   7.207   2.813  0.2843 -0.5641  0.5563
   64MOL   C54348549   6.725   7.205   2.706  0.2379 -0.3103 -0.8668
   64MOL   O54448550   6.690   7.232   2.591 -0.8738  0.0512 -0.1954
   64MOL   C54548551   6.865   7.149   2.731  0.4704  0.0669 -0.1634
   64MOL   C54648552   6.962   7.134   2.632  0.6845  0.1817  0.0747
   64MOL   C54748553   7.080   7.066   2.657  0.0843  0.4209 -0.4250
   64MOL   C54848554   7.116   7.028   2.791  0.4757 -0.1534 -0.4442
   64MOL   C54948555   7.254   6.976   2.816 -0.9546 -0.3251 -1.0431
   64MOL   O55048556   7.347   6.978   2.729  0.2266 -0.1345 -0.5750
   64MOL   O55148557   7.264   6.895   2.927  0.2115  0.0770 -0.2447
   64MOL   C55248558   7.021   7.053   2.898  1.3725 -0.4119  0.5041
   64MOL   C55348559   6.899   7.110   2.863  0.2330  0.0624  0.0587
   64MOL   H55448560   6.591   7.340   3.023 -0.1622  2.5581  0.1984
   64MOL   H55548561   6.466   7.445   2.964 -0.6696  1.2623  0.5281
   64MOL   H55648562   6.308   7.364   3.133 -0.7023 -2.1304  1.5204
   64MOL   H55748563   6.416   7.455   3.212 -5.5430 -0.3918 -0.0392
   64MOL   H55848564   6.544   7.227   3.274  0.5099  2.3474  1.0439
   64MOL   H55948565   6.377   7.340   3.417 -2.1258  0.2905 -1.6181
   64MOL   H56048566   6.405   7.171   3.457  0.8783  1.1718 -0.3583
   64MOL   H56148567   6.298   7.081   3.172  0.6198  0.4821  1.1942
   64MOL   H56248568   6.451   7.016   3.209  1.5110 -0.0515 -0.1567
   64MOL   H56348569   6.568   7.078   3.018  0.1610 -0.5720 -1.8979
   64MOL   H56448570   6.426   7.011   2.953 -0.8393  0.9955  1.1493
   64MOL   H56548571   6.327   7.243   2.916 -0.0002  0.1871  1.5846
   64MOL   H56648572   6.484   7.297   2.721 -0.5797 -0.2839 -0.1131
   64MOL   H56748573   6.483   7.120   2.753 -1.5723 -0.0613  1.8485
   64MOL   H56848574   6.931   7.169   2.534 -0.0970 -1.3339 -0.2325
   64MOL   H56948575   7.155   7.055   2.579  2.6918  2.2246  1.7184
   64MOL   H57048576   7.046   7.020   2.997  0.1604  0.1489  1.0042
   64MOL   H57148577   6.826   7.113   2.942 -1.0151 -0.0581 -1.0575
   64MOL   C57248578   7.564   6.740   3.243  0.0973 -0.8408 -0.4889
   64MOL   C57348579   7.527   6.786   3.104  0.3011 -0.6527  0.1792
   64MOL   C57448580   7.391   6.733   3.053  0.1491  0.0632 -0.3483
   64MOL   C57548581   7.349   6.779   2.910  0.3962 -0.1167 -0.2269
   64MOL   C57648582   7.381   6.577   3.080 -0.5889 -0.4329 -0.2216
   64MOL   C57748583   7.432   6.531   3.223 -0.0378  0.1118  0.4046
   64MOL   C57848584   7.567   6.584   3.248 -0.0422 -0.5125 -0.2663
   64MOL   C57948585   7.602   6.548   3.394  0.0243  0.8654  0.2282
   64MOL   O58048586   7.655   6.417   3.406 -0.0538 -0.3298 -0.4375
   64MOL   C58148587   7.735   6.393   3.511  0.5288 -0.1915  0.6633
   64MOL   O58248588   7.781   6.479   3.588 -0.1746  0.0457  0.2489
   64MOL   C58348589   7.778   6.249   3.511  0.6591  0.0673  0.0593
   64MOL   C58448590   7.841   6.198   3.624  0.6962  0.1714  0.1545
   64MOL   C58548591   7.876   6.066   3.638  0.3804  0.4839  1.0814
   64MOL   C58648592   7.846   5.979   3.528  0.0949  0.0344 -0.3482
   64MOL   C58748593   7.888   5.841   3.543  0.2173 -0.0135  0.7200
   64MOL   O58848594   7.961   5.797   3.637  0.0273 -0.5938 -0.4280
   64MOL   O58948595   7.857   5.763   3.440 -0.0038  0.4136  0.0052
   64MOL   C59048596   7.790   6.021   3.410  0.5890 -0.1524 -0.7447
   64MOL   C59148597   7.748   6.158   3.406 -0.1101 -0.0374  0.4117
   64MOL   H59248598   7.501   6.777   3.324 -3.7394 -2.7245 -2.4621
   64MOL   H59348599   7.661   6.787   3.254 -0.2055  0.0127 -1.3768
   64MOL   H59448600   7.604   6.751   3.035 -0.6214 -0.0690 -1.1781
   64MOL   H59548601   7.528   6.894   3.089  0.6978 -0.9862 -2.4931
   64MOL   H59648602   7.315   6.782   3.114  1.8627  1.0132  1.0780
   64MOL   H59748603   7.278   6.710   2.865  0.1651  0.6845 -1.1053
   64MOL   H59848604   7.435   6.785   2.843  0.7685  0.1824  0.2804
   64MOL   H59948605   7.443   6.525   3.008 -0.1545 -1.4739  0.8798
   64MOL   H60048606   7.283   6.535   3.061 -0.3791 -0.4066 -1.4013
   64MOL   H60148607   7.358   6.553   3.300  0.4305 -0.9565  1.1656
   64MOL   H60248608   7.443   6.423   3.224 -0.2759  0.0804 -0.2934
   64MOL   H60348609   7.647   6.552   3.182  0.4224 -0.6920  0.3813
   64MOL   H60448610   7.519   6.557   3.465  0.1425  0.1366  0.4643
   64MOL   H60548611   7.676   6.620   3.429  1.6325 -0.4396 -0.4362
   64MOL   H60648612   7.851   6.260   3.712 -0.3937 -0.5955  0.8458
   64MOL   H60748613   7.911   6.039   3.737  1.3458  2.4226  1.2922
   64MOL   H60848614   7.777   5.954   3.327  0.7226  1.6176 -2.2294
   64MOL   H60948615   7.709   6.186   3.309  0.1566 -3.6161 -0.8069
   64MOL   C61048616   7.705   5.452   3.143  0.6177 -0.3842 -0.1770
   64MOL   C61148617   7.725   5.521   3.287  0.9045  0.2894  0.3292
   64MOL   C61248618   7.870   5.554   3.312  0.0639  0.3365 -0.1627
   64MOL   C61348619   7.892   5.622   3.444 -0.1817  0.3788 -0.3655
   64MOL   C61448620   7.955   5.429   3.291 -0.2627  0.3811  0.3135
   64MOL   C61548621   7.932   5.360   3.155  0.0603  0.8110 -0.3451
   64MOL   C61648622   7.781   5.324   3.131 -0.6091  0.6216  0.5978
   64MOL   C61748623   7.749   5.248   3.004 -0.5869 -0.0028  0.5713
   64MOL   O61848624   7.770   5.320   2.886 -0.4269  0.1487 -0.5828
   64MOL   C61948625   7.820   5.262   2.779  0.5093  0.0687  0.0922
   64MOL   O62048626   7.833   5.142   2.763  0.7721  0.4211 -0.0481
   64MOL   C62148627   7.837   5.364   2.661  0.3268  0.2049  0.3736
   64MOL   C62248628   7.829   5.508   2.682  0.5531  0.0854 -0.5867
   64MOL   C62348629   7.863   5.595   2.583 -0.5835  0.2120  0.0916
   64MOL   C62448630   7.904   5.547   2.455  1.3585 -0.8579  0.3293
   64MOL   C62548631   7.934   5.641   2.338  0.3966  0.7688 -0.4424
   64MOL   O62648632   7.911   5.760   2.338 -0.0503  0.0708  0.3715
   64MOL   O62748633   7.976   5.571   2.238  0.0012 -0.4675 -0.3215
   64MOL   C62848634   7.906   5.407   2.431 -0.9068 -0.3755  0.2472
   64MOL   C62948635   7.873   5.317   2.533  0.2033  0.3835 -0.0457
   64MOL   H63048636   7.721   5.525   3.064  0.7516 -0.0077  0.1931
   64MOL   H63148637   7.601   5.422   3.129  1.2660 -2.5663 -0.5855
   64MOL   H63248638   7.697   5.447   3.363  0.3831  1.5712  1.4018
   64MOL   H63348639   7.660   5.606   3.305 -0.2423 -0.6757  0.8582
   64MOL   H63448640   7.896   5.620   3.229 -0.1008  1.6555  0.8171
   64MOL   H63548641   7.997   5.602   3.467 -0.4286  0.6246  0.9938
   64MOL   H63648642   7.830   5.577   3.522 -1.8762  2.4000 -0.5203
   64MOL   H63748643   7.924   5.363   3.372  1.7848 -0.0159  0.8017
   64MOL   H63848644   0.031   5.438   3.303 -0.0162 -0.2679 -1.2926
   64MOL   H63948645   7.975   5.430   3.084  2.0880  1.8521  1.8278
   64MOL   H64048646   7.988   5.267   3.143 -0.0610  0.4837  1.5008
   64MOL   H64148647   7.733   5.259   3.204  2.3537 -1.0287  1.1484
   64MOL   H64248648   7.644   5.223   2.993  0.0343 -2.3110 -0.3874
   64MOL   H64348649   7.794   5.149   3.000 -0.0509  0.2889 -0.6634
   64MOL   H64448650   7.778   5.547   2.769  0.1466  0.8808 -1.1737
   64MOL   H64548651   7.861   5.700   2.605 -0.8877  0.4132 -0.8816
   64MOL   H64648652   7.940   5.373   2.334  0.1498  2.0650 -0.2822
   64MOL   H64748653   7.874   5.212   2.507  1.7332  0.7301 -1.5157
   64MOL   C64848654   7.880   5.479   1.751 -0.4899  0.0570  0.5623
   64MOL   C64948655   7.918   5.575   1.868 -0.1458 -0.6095  0.0846
   64MOL   C65048656   7.938   5.523   2.004 -0.3745 -0.1614 -0.3030
   64MOL   C65148657   7.975   5.627   2.106  0.1528 -0.5572 -1.5381
   64MOL   C65248658   7.810   5.439   2.045  0.3550  0.0965  0.3432
   64MOL   C65348659   7.774   5.330   1.941 -0.6705  0.1064 -0.1294
   64MOL   C65448660   7.756   5.383   1.797  0.4598  0.0771 -0.5176
   64MOL   C65548661   7.723   5.273   1.700  0.3483 -0.4821 -0.3937
   64MOL   O65648662   7.822   5.177   1.669 -0.2495  0.2770  0.2134
   64MOL   C65748663   7.804   5.040   1.667  0.0213  0.4531 -0.3223
   64MOL   O65848664   7.697   4.980   1.683 -0.1539 -0.3317 -0.3155
   64MOL   C65948665   7.938   4.975   1.638 -0.0684 -0.3252 -0.0673
   64MOL   C66048666   0.008   5.043   1.567 -0.3122 -0.2816  0.1905
   64MOL   C66148667   0.132   4.988   1.545 -0.0837 -0.2851  0.5023
   64MOL   C66248668   0.166   4.853   1.597  0.1952  0.3149 -0.4414
   64MOL   C66348669   0.301   4.789   1.573 -0.0088  0.8613  0.8733
   64MOL   O66448670   0.333   4.685   1.619 -0.1804 -0.4736  0.0201
   64MOL   O66548671   0.390   4.873   1.511  0.8031 -0.0233 -0.5745
   64MOL   C66648672   0.068   4.781   1.657  0.6443 -0.3882  0.3904
   64MOL   C66748673   7.967   4.844   1.679  0.0642 -0.3926  0.4920
   64MOL   H66848674   7.967   5.416   1.732 -0.2773  0.3092  0.7053
   64MOL   H66948675   7.853   5.542   1.666 -2.2838  1.5547  2.1865
   64MOL   H67048676   7.847   5.658   1.865  0.3379 -0.0838  2.0775
   64MOL   H67148677   8.009   5.629   1.843 -1.7389  1.2147 -1.9569
   64MOL   H67248678   8.024   5.457   1.997  0.1243  0.4404  0.1357
   64MOL   H67348679   7.913   5.716   2.105  0.2587 -0.4732 -1.0103
   64MOL   H67448680   0.040   5.655   2.064  1.4482 -1.6251  0.6476
   64MOL   H67548681   7.725   5.499   2.075 -0.7491 -0.0554 -2.3805
   64MOL   H67648682   7.835   5.390   2.139  0.4191 -0.8302 -0.1532
   64MOL   H67748683   7.856   5.258   1.933 -0.9244 -0.0624 -1.2581
   64MOL   H67848684   7.687   5.271   1.969 -2.0611  1.2437 -1.8976
   64MOL   H67948685   7.673   5.453   1.795  1.3611  1.2316  1.1609
   64MOL   H68048686   7.701   5.312   1.601 -2.5889 -0.0672  0.3791
   64MOL   H68148687   7.627   5.230   1.730  0.4150 -0.4611 -0.1515
   64MOL   H68248688   8.021   5.143   1.532 -0.4132  0.0472  1.1821
   64MOL   H68348689   0.207   5.049   1.497 -0.4352  0.5340  0.9811
   64MOL   H68448690   0.079   4.679   1.691  0.2031  0.0949  2.0481
   64MOL   H68548691   7.889   4.788   1.729 -1.5421  2.1599  0.9130
   64MOL   C68648692   0.671   4.876   1.837 -0.2516 -0.7458 -0.7858
   64MOL   C68748693   0.581   4.911   1.713  0.1296 -0.4202 -0.6984
   64MOL   C68848694   0.606   4.814   1.599 -0.3263 -0.1568  0.2336
   64MOL   C68948695   0.523   4.837   1.477  0.1534 -0.0945 -0.3488
   64MOL   C69048696   0.759   4.812   1.564  0.9730  0.3846  0.0147
   64MOL   C69148697   0.856   4.810   1.678  0.6422  1.0221 -0.2078
   64MOL   C69248698   0.819   4.900   1.794 -0.0021 -0.2739 -0.1998
   64MOL   C69348699   0.914   4.896   1.919 -0.7379 -0.1665  0.0962
   64MOL   O69448700   1.041   4.943   1.887 -0.5363 -0.1962 -0.8697
   64MOL   C69548701   1.150   4.850   1.872 -0.8466  1.3117  0.4233
   64MOL   O69648702   1.138   4.732   1.900 -0.5251 -0.4081 -0.3556
   64MOL   C69748703   1.271   4.899   1.805  0.0843 -0.1017 -1.3023
   64MOL   C69848704   1.394   4.828   1.823  0.0258 -0.7759  0.1772
   64MOL   C69948705   1.510   4.881   1.778  0.4649  0.0259 -0.3676
   64MOL   C70048706   1.507   5.004   1.710 -0.0427  0.4233  0.2325
   64MOL   C70148707   1.639   5.067   1.688  0.0116 -0.3503  0.0968
   64MOL   O70248708   1.752   5.017   1.699  0.8906 -0.4606  0.0241
   64MOL   O70348709   1.626   5.191   1.648 -0.1236 -0.0720 -0.3007
   64MOL   C70448710   1.386   5.073   1.685 -0.1663 -0.0443 -0.0352
   64MOL   C70548711   1.267   5.020   1.729  0.0074 -0.1403  0.3390
   64MOL   H70648712   0.656   4.770   1.857  0.0578 -0.9607 -1.6975
   64MOL   H70748713   0.644   4.941   1.921 -1.5263  0.8876 -2.4349
   64MOL   H70848714   0.583   5.018   1.693 -0.3168 -0.3659 -0.4678
   64MOL   H70948715   0.477   4.895   1.742  0.4593 -0.5797  0.4296
   64MOL   H71048716   0.588   4.716   1.641  1.4108 -1.2776 -1.5304
   64MOL   H71148717   0.512   4.746   1.417  1.0341 -0.9279  0.7339
   64MOL   H71248718   0.572   4.908   1.412  0.0668 -2.7443 -3.4466
   64MOL   H71348719   0.784   4.890   1.491  0.8793 -0.9911 -1.4978
   64MOL   H71448720   0.770   4.721   1.506 -1.1481 -0.9990  1.7177
   64MOL   H71548721   0.844   4.704   1.703  1.5506  0.0150 -3.7301
   64MOL   H71648722   0.960   4.821   1.647  0.5082  1.2190 -0.5876
   64MOL   H71748723   0.821   5.002   1.754  1.3406 -0.9369 -1.8539
   64MOL   H71848724   0.917   4.796   1.963  1.0541 -1.2322 -2.3209
   64MOL   H71948725   0.880   4.958   2.002  1.0589 -2.2115  2.4339
   64MOL   H72048726   1.410   4.734   1.874  2.2355  1.0742  3.0841
   64MOL   H72148727   1.607   4.834   1.785 -0.7019 -2.0922  1.9834
   64MOL   H72248728   1.384   5.170   1.638 -0.4252  0.3099  0.7011
   64MOL   H72348729   1.173   5.071   1.711  0.3588  0.8999  1.3875
   64MOL   C72448730   1.530   5.600   1.699 -0.2175  0.1150 -0.0572
   64MOL   C72548731   1.590   5.462   1.722  0.6757  0.1484  0.3220
   64MOL   C72648732   1.687   5.423   1.613 -0.1818 -0.1765  0.1523
   64MOL   C72748733   1.732   5.280   1.642  0.4687 -0.2606 -0.1169
   64MOL   C72848734   1.630   5.444   1.474 -0.4324  0.0641 -0.7458
   64MOL   C72948735   1.561   5.572   1.450 -1.3761  1.0903 -0.3412
   64MOL   C73048736   1.464   5.613   1.559 -0.8146 -0.2093  0.0862
   64MOL   C73148737   1.390   5.743   1.533 -0.1763  0.4543 -0.1158
   64MOL   O73248738   1.475   5.851   1.528 -0.3329  0.3639 -0.0148
   64MOL   C73348739   1.423   5.978   1.526 -0.1513 -0.0795  0.6716
   64MOL   O73448740   1.304   5.998   1.548 -0.3374 -0.2942 -0.1086
   64MOL   C73548741   1.535   6.078   1.527  0.3746  0.8270 -0.5677
   64MOL   C73648742   1.522   6.192   1.613 -0.3962 -0.5233  0.4953
   64MOL   C73748743   1.634   6.275   1.637 -1.3128  0.1327 -1.6025
   64MOL   C73848744   1.762   6.240   1.579 -0.7946  0.3082  0.4647
   64MOL   C73948745   1.887   6.319   1.613  0.0514  0.2357  0.8129
   64MOL   O74048746   1.893   6.438   1.652 -0.1430  0.3184  0.6786
   64MOL   O74148747   1.999   6.243   1.622 -0.6736  0.3342 -0.0320
   64MOL   C74248748   1.767   6.131   1.484 -0.4720 -0.4760 -0.6874
   64MOL   C74348749   1.653   6.050   1.459 -0.3808 -0.0446  0.8977
   64MOL   H74448750   1.601   5.676   1.732  0.7107 -0.1475 -1.4224
   64MOL   H74548751   1.454   5.598   1.777 -1.5132 -2.0589 -1.3159
   64MOL   H74648752   1.506   5.393   1.719  0.4206  0.5142 -1.6520
   64MOL   H74748753   1.643   5.462   1.817  1.4683  0.7406 -0.1133
   64MOL   H74848754   1.769   5.495   1.615 -0.3439  0.1742 -2.8235
   64MOL   H74948755   1.784   5.279   1.738  1.5374 -1.5036 -0.6964
   64MOL   H75048756   1.818   5.252   1.581  0.7070 -1.9560  0.9715
   64MOL   H75148757   1.550   5.371   1.462 -0.3728 -0.1551  0.1484
   64MOL   H75248758   1.701   5.412   1.397 -1.6752 -1.6133 -1.2102
   64MOL   H75348759   1.637   5.648   1.437 -0.5898  0.0040 -2.3201
   64MOL   H75448760   1.516   5.563   1.351 -0.1709 -2.0349 -0.6596
   64MOL   H75548761   1.380   5.543   1.551  1.1915 -2.6970 -0.0514
   64MOL   H75648762   1.309   5.744   1.605  0.1344 -0.4955  0.2536
   64MOL   H75748763   1.338   5.727   1.439 -1.0617 -0.6940  0.5581
   64MOL   H75848764   1.428   6.218   1.659 -0.5367 -1.9639  1.0471
   64MOL   H75948765   1.622   6.357   1.706  1.6969 -0.6335 -0.0684
   64MOL   H76048766   1.864   6.113   1.441  0.5379  1.7972  0.5302
   64MOL   H76148767   1.665   5.960   1.401 -0.1566 -1.0117  2.4031
   64MOL   H76248768   2.052   6.275   1.693 -2.3039  2.7326  0.1785
   65MOL     C148769   1.039   2.536   1.423  0.0218  0.3890 -0.0284
   65MOL     C248770   1.116   2.662   1.456 -0.5795  0.4743  0.4576
   65MOL     C348771   1.055   2.730   1.574 -0.3319  0.2486  0.4370
   65MOL     C448772   1.126   2.866   1.603  0.7029  0.8420 -0.8757
   65MOL     C548773   0.904   2.759   1.544  0.3248  0.0181 -0.2559
   65MOL     C648774   0.825   2.629   1.514 -0.2320 -0.4456 -0.0125
   65MOL     C748775   0.891   2.559   1.397 -0.0383  0.6641 -0.3266
   65MOL     C848776   0.806   2.433   1.370  0.2876 -0.3255  0.3357
   65MOL     O948777   0.821   2.328   1.466  0.1585 -0.2332  0.2606
   65MOL    C1048778   0.725   2.246   1.500 -0.1782 -0.1054  0.1218
   65MOL    O1148779   0.612   2.268   1.465 -0.2982  0.3670 -0.1513
   65MOL    C1248780   0.775   2.135   1.586  0.3526 -0.5955 -0.0658
   65MOL    C1348781   0.684   2.036   1.629 -0.8589  0.0559 -0.1671
   65MOL    C1448782   0.730   1.932   1.712 -0.6159  0.4754  0.2673
   65MOL    C1548783   0.869   1.908   1.729 -0.0723  0.5691  0.2519
   65MOL    C1648784   0.914   1.785   1.795 -0.1271  0.3202 -0.5034
   65MOL    O1748785   1.026   1.774   1.842  0.1426  0.0601 -0.2525
   65MOL    O1848786   0.818   1.697   1.809 -0.0312 -0.0700 -0.1987
   65MOL    C1948787   0.963   1.998   1.676 -0.0500  0.0002  0.2981
   65MOL    C2048788   0.914   2.109   1.610  0.3655 -0.1475  0.3066
   65MOL    H2148789   1.057   2.462   1.502  1.1093  0.1928 -0.4505
   65MOL    H2248790   1.081   2.492   1.332  0.0358  0.5195 -0.0856
   65MOL    H2348791   1.104   2.733   1.374 -3.0853 -1.1175 -0.6482
   65MOL    H2448792   1.224   2.650   1.457 -0.4912  1.2327  0.1930
   65MOL    H2548793   1.067   2.673   1.666  2.1692 -1.3577 -0.8441
   65MOL    H2648794   1.232   2.861   1.625  0.5818 -0.9733 -0.6331
   65MOL    H2748795   1.067   2.916   1.680 -2.2436  0.1597 -2.6194
   65MOL    H2848796   0.888   2.834   1.466  2.0017  1.7754  1.0412
   65MOL    H2948797   0.856   2.806   1.631  0.6470  0.8543 -0.5200
   65MOL    H3048798   0.809   2.557   1.595 -1.2437  0.4911  0.6320
   65MOL    H3148799   0.724   2.658   1.488  0.4565  2.7885  0.6484
   65MOL    H3248800   0.882   2.629   1.313 -2.8539 -0.5237 -1.0862
   65MOL    H3348801   0.830   2.392   1.272  1.4327  0.7166  0.1694
   65MOL    H3448802   0.701   2.463   1.364  0.7499  1.0504 -1.3900
   65MOL    H3548803   0.580   2.042   1.601 -0.7041  4.4197 -0.1410
   65MOL    H3648804   0.657   1.854   1.733  0.2338 -0.0810  1.1934
   65MOL    H3748805   1.068   1.972   1.681 -0.2162 -0.4863  1.5278
   65MOL    H3848806   0.996   2.169   1.571 -0.7086  1.2472  0.1438
   65MOL    H3948807   1.127   2.931   1.515  1.7517 -1.0369 -2.2701
   65MOL    C4048808   0.449   1.531   1.902  0.7142 -0.4924 -0.4151
   65MOL    C4148809   0.589   1.553   1.844  0.1984 -0.1477 -0.1668
   65MOL    C4248810   0.692   1.568   1.963 -0.4791  1.0806  0.1842
   65MOL    C4348811   0.832   1.591   1.904 -0.2663  0.2572 -0.6391
   65MOL    C4448812   0.651   1.673   2.068  0.2641  0.3474 -0.8339
   65MOL    C4548813   0.503   1.642   2.116  0.0204  0.3382  0.6335
   65MOL    C4648814   0.407   1.648   1.996 -0.6899  0.4159 -0.8548
   65MOL    C4748815   0.260   1.646   2.028  0.1150 -0.1981 -0.4857
   65MOL    O4848816   0.206   1.515   2.069  0.3011 -0.3438  0.2538
   65MOL    C4948817   0.121   1.449   1.989  0.1160  0.0631  0.0538
   65MOL    O5048818   0.100   1.473   1.866 -0.3614 -0.0217 -0.3082
   65MOL    C5148819   0.059   1.336   2.060 -0.1617  0.5575 -0.1968
   65MOL    C5248820   7.963   1.296   2.016 -0.4241  0.2256 -0.5032
   65MOL    C5348821   7.899   1.189   2.081 -0.0615 -0.6560  0.0087
   65MOL    C5448822   7.969   1.116   2.180  0.8012  0.1038 -0.2753
   65MOL    C5548823   7.901   0.989   2.244 -0.0119 -0.1377  0.2422
   65MOL    O5648824   7.836   0.911   2.179 -0.5419  0.2105 -0.3968
   65MOL    O5748825   7.912   0.990   2.376  0.0810 -0.3763 -0.0325
   65MOL    C5848826   0.063   1.154   2.218 -0.1137  0.7696  0.5414
   65MOL    C5948827   0.122   1.270   2.164  0.3145  0.0992 -0.1396
   65MOL    H6048828   0.448   1.439   1.961  0.7155  0.0862  0.5005
   65MOL    H6148829   0.386   1.521   1.813  0.8012 -0.2251 -0.5079
   65MOL    H6248830   0.594   1.644   1.783  2.5322  1.1306  1.8595
   65MOL    H6348831   0.612   1.474   1.773  1.9164 -0.6343  0.9044
   65MOL    H6448832   0.692   1.470   2.010 -0.8252  1.4052  0.8673
   65MOL    H6548833   0.874   1.499   1.863 -0.8940 -0.1242 -0.4305
   65MOL    H6648834   0.899   1.620   1.986  0.7509 -1.0979 -0.9714
   65MOL    H6748835   0.673   1.768   2.018 -0.4171  0.1058 -1.6126
   65MOL    H6848836   0.720   1.671   2.152  1.6697 -1.8242 -2.0028
   65MOL    H6948837   0.494   1.552   2.178  2.1495 -0.3864 -0.0865
   65MOL    H7048838   0.472   1.721   2.185  0.9003  2.4012 -1.2987
   65MOL    H7148839   0.425   1.746   1.953 -0.9434  0.4311 -0.9254
   65MOL    H7248840   0.205   1.682   1.942 -0.0462  0.0000 -0.3003
   65MOL    H7348841   0.257   1.706   2.119  0.5793 -2.6911  1.2495
   65MOL    H7448842   7.905   1.346   1.940 -1.3962 -0.0269  0.0600
   65MOL    H7548843   7.800   1.156   2.052  0.0515  0.8979 -2.2962
   65MOL    H7648844   0.125   1.101   2.289  0.6979  1.8610  0.6663
   65MOL    H7748845   0.216   1.302   2.206 -0.2437  0.8460  0.5317
   65MOL    C7848846   7.942   0.783   2.826  0.6761  0.1297  0.1169
   65MOL    C7948847   7.895   0.775   2.675  0.0364  0.3279  0.2196
   65MOL    C8048848   7.911   0.905   2.598  0.4738 -0.1917  0.3202
   65MOL    C8148849   7.876   0.882   2.447  0.5079  0.3708 -0.2226
   65MOL    C8248850   7.819   1.006   2.668  0.1227 -0.2832 -0.1459
   65MOL    C8348851   7.857   1.032   2.817  0.3219 -0.3374 -0.4034
   65MOL    C8448852   7.867   0.898   2.896  0.8866  0.6604 -0.2483
   65MOL    C8548853   7.928   0.910   3.040  0.2999 -0.4083 -0.1421
   65MOL    O8648854   7.845   0.986   3.128  0.4577 -0.0245  0.2690
   65MOL    C8748855   7.900   1.077   3.217 -0.0150 -0.2048 -0.5697
   65MOL    O8848856   8.017   1.090   3.240  0.0797  0.3805  0.7336
   65MOL    C8948857   7.793   1.139   3.292 -0.9797 -0.3189 -0.4887
   65MOL    C9048858   7.660   1.147   3.245 -0.4707  0.4780  0.4607
   65MOL    C9148859   7.560   1.207   3.321  0.3816  0.4077  0.8898
   65MOL    C9248860   7.589   1.247   3.452 -0.0615  0.4837 -0.1930
   65MOL    C9348861   7.481   1.300   3.543  0.4709  0.9054  0.6405
   65MOL    O9448862   7.376   1.338   3.490 -0.6771 -0.1533  0.0890
   65MOL    O9548863   7.517   1.302   3.676 -0.1737  0.1660  0.1687
   65MOL    C9648864   7.719   1.240   3.508 -0.0009 -0.5525  0.4868
   65MOL    C9748865   7.826   1.195   3.425 -0.0799  0.0346  0.6283
   65MOL    H9848866   0.018   0.797   2.836  0.4974  2.5750 -1.2397
   65MOL    H9948867   7.921   0.692   2.883  2.2119  0.1516  0.7344
   65MOL   H10048868   7.792   0.740   2.669  0.4528 -1.2077  1.7544
   65MOL   H10148869   7.960   0.694   2.643  0.6853  1.0081 -0.2046
   65MOL   H10248870   8.012   0.947   2.601  0.1968  0.5867 -0.8049
   65MOL   H10348871   7.768   0.870   2.443  0.2728  1.8799  1.1179
   65MOL   H10448872   7.915   0.793   2.396  1.6115  0.6500  0.1105
   65MOL   H10548873   7.715   0.975   2.666  0.4017 -1.5478  2.7251
   65MOL   H10648874   7.836   1.103   2.620  0.1897 -0.7093 -0.9921
   65MOL   H10748875   7.951   1.085   2.832 -1.2502  2.5405 -0.2304
   65MOL   H10848876   7.786   1.102   2.860  0.0721 -0.5285 -0.5059
   65MOL   H10948877   7.767   0.860   2.920  1.0085  1.5904  1.9240
   65MOL   H11048878   8.029   0.952   3.034 -0.5080  1.6839  0.3374
   65MOL   H11148879   7.940   0.817   3.095 -0.1257 -0.0529  0.5610
   65MOL   H11248880   7.636   1.107   3.148 -2.3040  0.3628  0.9533
   65MOL   H11348881   7.462   1.230   3.282  0.7987  4.3155  1.8921
   65MOL   H11448882   7.732   1.276   3.609 -1.8760  2.3109 -0.2399
   65MOL   H11548883   7.926   1.183   3.463 -0.2609 -0.3436  0.9877
   65MOL   C11648884   7.194   1.117   3.934  0.2386  0.0340  0.2977
   65MOL   C11748885   7.254   1.208   3.828 -0.8620 -0.6961 -0.3346
   65MOL   C11848886   7.381   1.269   3.876  0.5558 -0.1013 -0.3123
   65MOL   C11948887   7.441   1.365   3.774  0.2850 -0.4206  0.2360
   65MOL   C12048888   7.347   1.352   4.001 -0.0854 -0.5553 -0.6128
   65MOL   C12148889   7.296   1.266   4.115  0.7047  0.7877 -0.1574
   65MOL   C12248890   7.170   1.190   4.065 -0.1965  0.4559 -0.1734
   65MOL   C12348891   7.127   1.084   4.163 -1.0498  0.1845 -0.7164
   65MOL   O12448892   7.103   1.145   4.290 -0.5057 -0.2092 -0.0264
   65MOL   C12548893   6.987   1.222   4.307 -1.1747 -0.3912  0.4001
   65MOL   O12648894   6.902   1.241   4.213  0.1657  0.6504 -0.2802
   65MOL   C12748895   6.985   1.293   4.434 -0.3970  0.1768 -0.0351
   65MOL   C12848896   6.860   1.338   4.480  0.2291 -0.1910 -0.9745
   65MOL   C12948897   6.853   1.416   4.597 -0.9319  0.2524  0.2555
   65MOL   C13048898   6.966   1.439   4.675 -0.1203 -0.5974  0.1120
   65MOL   C13148899   6.962   1.529   4.793  0.4368  0.5461 -0.0194
   65MOL   O13248900   7.055   1.520   4.880  0.2327 -0.1006  0.5679
   65MOL   O13348901   6.853   1.601   4.808 -0.3446  0.0812  0.7804
   65MOL   C13448902   7.087   1.382   4.637 -0.7124  0.5085 -0.3373
   65MOL   C13548903   7.099   1.317   4.513 -0.3624 -0.3728  0.0149
   65MOL   H13648904   7.252   1.026   3.944 -1.1819 -0.9342 -0.1382
   65MOL   H13748905   7.097   1.086   3.894  0.3745  0.2304 -0.1838
   65MOL   H13848906   7.185   1.289   3.805  0.6466  0.2882 -1.5702
   65MOL   H13948907   7.271   1.154   3.734  1.8841  0.3612 -0.5244
   65MOL   H14048908   7.458   1.200   3.911  1.7002  1.1962 -0.2199
   65MOL   H14148909   7.506   1.436   3.825 -2.1023  0.6441  1.9166
   65MOL   H14248910   7.365   1.424   3.721  1.3907  1.2401  0.4445
   65MOL   H14348911   7.272   1.426   3.974  2.1241  1.5238 -1.2699
   65MOL   H14448912   7.428   1.410   4.046 -1.6583  0.3902  1.0976
   65MOL   H14548913   7.372   1.192   4.138  0.6172  0.3173 -1.3541
   65MOL   H14648914   7.276   1.331   4.201 -1.4317 -0.9397  0.6889
   65MOL   H14748915   7.094   1.265   4.040  1.7103  1.8302 -2.0082
   65MOL   H14848916   7.195   1.000   4.179 -2.2990 -0.4070  1.7815
   65MOL   H14948917   7.032   1.037   4.136 -1.4100  0.6343 -0.2363
   65MOL   H15048918   6.771   1.314   4.424 -0.1709 -0.7658 -0.1041
   65MOL   H15148919   6.758   1.457   4.629 -1.7007 -1.4608  0.2356
   65MOL   H15248920   7.174   1.405   4.697 -0.1520 -1.5230 -0.3428
   65MOL   H15348921   7.196   1.289   4.474 -0.9644 -0.8575 -1.1497
   65MOL   C15448922   6.911   2.086   4.822  1.0203 -0.0569  0.6121
   65MOL   C15548923   6.901   1.959   4.917 -0.6262 -0.2554  0.0126
   65MOL   C15648924   6.866   1.834   4.830 -0.0593  0.2056 -0.6217
   65MOL   C15748925   6.844   1.700   4.909 -0.3679  0.3960  0.4782
   65MOL   C15848926   6.731   1.867   4.766 -0.0692 -0.5233 -0.0831
   65MOL   C15948927   6.735   1.985   4.674  0.3605 -0.3897  0.0579
   65MOL   C16048928   6.778   2.111   4.752  0.1135  0.3582  1.0533
   65MOL   C16148929   6.793   2.226   4.661  0.1844 -0.4083  0.6996
   65MOL   O16248930   6.853   2.190   4.539 -0.4183 -0.7432  0.2242
   65MOL   C16348931   6.825   2.260   4.427  0.1407 -0.3077 -0.3915
   65MOL   O16448932   6.760   2.363   4.429  0.4669 -0.3935  0.5758
   65MOL   C16548933   6.884   2.209   4.297  0.3123 -0.6576 -0.3027
   65MOL   C16648934   6.812   2.235   4.177 -0.2280  0.5993  0.0470
   65MOL   C16748935   6.872   2.200   4.055 -0.0787 -0.3797  0.3374
   65MOL   C16848936   6.997   2.133   4.049 -0.2055  0.0580  0.0349
   65MOL   C16948937   7.036   2.077   3.914 -0.6194 -0.2734 -0.6009
   65MOL   O17048938   6.982   2.113   3.807  0.0022 -0.0111  0.0696
   65MOL   O17148939   7.144   1.984   3.925 -0.3531  0.2306 -0.1588
   65MOL   C17248940   7.066   2.109   4.170 -0.0435  0.1409 -0.0119
   65MOL   C17348941   7.011   2.145   4.292 -0.3652 -0.1112  0.1092
   65MOL   H17448942   6.992   2.074   4.749  1.8708  1.4427  1.2855
   65MOL   H17548943   6.933   2.170   4.888  0.6069  1.1958 -0.7933
   65MOL   H17648944   6.824   1.976   4.993 -0.3521 -1.3470  0.5533
   65MOL   H17748945   6.996   1.948   4.970 -2.0351  1.5389  3.0608
   65MOL   H17848946   6.942   1.819   4.753 -1.1119  0.4077 -1.7181
   65MOL   H17948947   6.741   1.694   4.942  0.3645 -0.0602  2.7745
   65MOL   H18048948   6.925   1.697   4.982  2.1917  0.9045 -2.1874
   65MOL   H18148949   6.662   1.894   4.846  2.9782 -1.1355  2.8636
   65MOL   H18248950   6.687   1.780   4.717 -0.1325 -0.6708  0.2344
   65MOL   H18348951   6.798   1.971   4.586 -0.5914 -1.5498 -0.4346
   65MOL   H18448952   6.638   2.006   4.630  1.1953  1.3520 -1.0355
   65MOL   H18548953   6.704   2.141   4.826  0.3733  1.3501  0.9159
   65MOL   H18648954   6.838   2.311   4.713 -0.7141 -1.2295  2.8824
   65MOL   H18748955   6.687   2.248   4.644  0.2255 -1.8271 -1.4320
   65MOL   H18848956   6.715   2.282   4.174  0.2761  1.5896 -2.0334
   65MOL   H18948957   6.818   2.210   3.962  0.0656 -0.7256  0.2136
   65MOL   H19048958   7.165   2.066   4.162  0.3331  1.2952 -1.7331
   65MOL   H19148959   7.063   2.135   4.387 -1.4433  0.3956  0.7643
   65MOL   C19248960   6.971   1.603   3.785 -0.3973 -0.4223 -0.3648
   65MOL   C19348961   7.068   1.704   3.849  0.1662  0.3641 -0.0571
   65MOL   C19448962   7.101   1.820   3.752 -0.3484  0.3640  0.3504
   65MOL   C19548963   7.198   1.918   3.813 -0.3635 -0.2022  0.0002
   65MOL   C19648964   7.153   1.759   3.617  0.3535 -0.3797 -0.3204
   65MOL   C19748965   7.050   1.655   3.551 -0.0541  0.5156  0.5043
   65MOL   C19848966   7.015   1.547   3.654  0.2314  0.6753  0.3308
   65MOL   C19948967   6.935   1.426   3.596 -0.3708  0.2958 -0.1159
   65MOL   O20048968   6.881   1.335   3.699  0.5794 -0.0075 -0.0977
   65MOL   C20148969   6.765   1.263   3.680 -0.1055  0.1946 -0.0534
   65MOL   O20248970   6.681   1.283   3.587 -0.1266 -0.3704 -0.0133
   65MOL   C20348971   6.725   1.166   3.780  0.3316 -0.4246 -0.9824
   65MOL   C20448972   6.629   1.072   3.743  0.5477 -0.0402 -0.4017
   65MOL   C20548973   6.605   0.951   3.816 -0.2430  0.2289  0.6903
   65MOL   C20648974   6.671   0.938   3.941 -0.4182 -0.4533 -0.0750
   65MOL   C20748975   6.643   0.820   4.028 -0.1037  0.1701 -0.1964
   65MOL   O20848976   6.559   0.733   3.997  0.4066 -0.3140 -0.0421
   65MOL   O20948977   6.711   0.825   4.143  0.2113  0.1878 -0.1167
   65MOL   C21048978   6.771   1.038   3.973  0.4708  0.8813  0.4454
   65MOL   C21148979   6.797   1.151   3.900 -0.2414  0.2805 -0.1303
   65MOL   H21248980   6.872   1.641   3.763 -0.9776 -0.6715  1.7213
   65MOL   H21348981   6.951   1.527   3.860 -0.2264 -0.2537 -0.1455
   65MOL   H21448982   7.158   1.650   3.879  0.0849 -0.2218 -0.8453
   65MOL   H21548983   7.029   1.744   3.942  0.1108  0.8875 -0.3040
   65MOL   H21648984   7.005   1.869   3.737  0.2014  1.2743 -0.2409
   65MOL   H21748985   7.232   1.989   3.737  2.4593 -1.7246 -0.2211
   65MOL   H21848986   7.287   1.866   3.849 -0.3355 -0.3130 -0.2322
   65MOL   H21948987   7.254   1.719   3.621  1.3764  1.8370 -2.3956
   65MOL   H22048988   7.168   1.838   3.544 -2.5013  0.6168  0.1255
   65MOL   H22148989   6.960   1.710   3.526 -1.2677 -2.0333 -0.8568
   65MOL   H22248990   7.082   1.611   3.457 -1.6979 -1.8764  1.0449
   65MOL   H22348991   7.115   1.506   3.667 -0.3877 -0.8478  0.4324
   65MOL   H22448992   7.006   1.356   3.551  0.9244  0.2898  1.8911
   65MOL   H22548993   6.849   1.450   3.533 -0.2445 -1.4559 -1.0107
   65MOL   H22648994   6.583   1.068   3.645  0.7084  2.1136 -0.5934
   65MOL   H22748995   6.542   0.869   3.785 -0.7580  0.8755  0.0130
   65MOL   H22848996   6.819   1.028   4.070  1.5225  0.1323 -0.1439
   65MOL   H22948997   6.883   1.207   3.936  1.9263 -1.6653 -2.0798
   65MOL   C23048998   6.835   0.976   4.524 -0.2928  0.2035  0.0067
   65MOL   C23148999   6.832   0.868   4.412 -0.2309 -0.1450 -0.1505
   65MOL   C23249000   6.687   0.829   4.376 -0.8011 -0.0950  0.2377
   65MOL   C23349001   6.684   0.739   4.254 -0.3442  0.3889  0.2813
   65MOL   C23449002   6.622   0.764   4.501 -0.1281 -0.4110 -0.7843
   65MOL   C23549003   6.625   0.864   4.626 -0.3578  0.2989 -0.1442
   65MOL   C23649004   6.763   0.927   4.656  0.1227  0.0139 -0.1102
   65MOL   C23749005   6.765   1.045   4.755  0.6913 -0.1200  0.9828
   65MOL   O23849006   6.663   1.034   4.851  0.9288  0.2419 -0.5688
   65MOL   C23949007   6.679   0.956   4.954  0.3551 -0.4076 -0.4219
   65MOL   O24049008   6.788   0.909   4.977 -0.0683 -0.9673 -0.4565
   65MOL   C24149009   6.561   0.905   5.027 -0.9188  0.0159 -0.1197
   65MOL   C24249010   6.570   0.797   5.119 -0.1819 -0.5266 -0.7175
   65MOL   C24349011   6.449   0.749   5.178 -0.4344  0.0289 -0.6878
   65MOL   C24449012   6.329   0.814   5.150  0.3833 -0.4577  0.5420
   65MOL   C24549013   6.202   0.759   5.202  1.0207  0.3695  0.8750
   65MOL   O24649014   6.196   0.643   5.252  0.0843 -0.7974  0.5666
   65MOL   O24749015   6.087   0.839   5.187  0.0502 -0.4397  0.4790
   65MOL   C24849016   6.323   0.915   5.051  0.0843 -0.4904 -0.1014
   65MOL   C24949017   6.441   0.960   4.992  0.8045  0.4798  0.1335
   65MOL   H25049018   6.801   1.070   4.482 -0.1761  0.4827  0.5262
   65MOL   H25149019   6.939   0.992   4.550 -0.2705 -1.6247  1.1465
   65MOL   H25249020   6.877   0.775   4.447 -0.1981  0.1449  0.5888
   65MOL   H25349021   6.884   0.909   4.326  1.6982 -2.1920 -0.0035
   65MOL   H25449022   6.627   0.919   4.362  1.6538  1.8174  1.4376
   65MOL   H25549023   6.587   0.690   4.245 -0.1846  0.4003 -2.0104
   65MOL   H25649024   6.760   0.661   4.262 -1.2848 -0.3451  2.3937
   65MOL   H25749025   6.663   0.668   4.532 -1.6332 -0.3597  1.5174
   65MOL   H25849026   6.518   0.740   4.477  0.0404 -1.3423 -0.6014
   65MOL   H25949027   6.567   0.951   4.595 -1.0037 -0.8544 -2.3239
   65MOL   H26049028   6.570   0.819   4.708 -2.2518 -0.4888 -1.7862
   65MOL   H26149029   6.813   0.841   4.702  0.9185  1.8541  2.5789
   65MOL   H26249030   6.738   1.131   4.694  0.0891 -0.3857  0.8721
   65MOL   H26349031   6.863   1.058   4.801  1.1254 -0.7960  0.2615
   65MOL   H26449032   6.662   0.749   5.149  0.0967 -1.3243 -2.8013
   65MOL   H26549033   6.458   0.664   5.243  0.3506  0.8442  0.2737
   65MOL   H26649034   6.230   0.964   5.026 -0.4169 -1.1228  0.5180
   65MOL   H26749035   6.436   1.040   4.919 -0.6333  0.3048  0.0359
   65MOL   C26849036   5.710   1.080   5.242  0.7939 -0.5322 -0.6256
   65MOL   C26949037   5.825   0.986   5.292 -0.7155  0.3406  0.1252
   65MOL   C27049038   5.837   0.875   5.191 -0.2680  0.0829  0.0605
   65MOL   C27149039   5.956   0.781   5.221  0.7257 -0.0434 -0.0961
   65MOL   C27249040   5.708   0.793   5.177 -0.0758 -0.2712  0.0965
   65MOL   C27349041   5.589   0.879   5.142  0.2447 -0.5077 -0.2398
   65MOL   C27449042   5.579   1.014   5.222 -0.0077 -0.1843 -0.0060
   65MOL   C27549043   5.453   1.103   5.189 -0.1208 -0.0333  0.1757
   65MOL   O27649044   5.437   1.213   5.272  0.6625  0.1867  0.3777
   65MOL   C27749045   5.331   1.294   5.269 -0.6571 -0.1280  0.4507
   65MOL   O27849046   5.237   1.273   5.193 -0.0001  0.0546  0.2801
   65MOL   C27949047   5.337   1.409   5.360 -0.4852  0.6367  0.1644
   65MOL   C28049048   5.434   1.422   5.464  0.0150 -0.2625  0.9717
   65MOL   C28149049   5.436   1.532   5.549 -0.1872  0.2498  0.0782
   65MOL   C28249050   5.340   1.628   5.541  0.5513 -0.4386  0.5184
   65MOL   C28349051   5.340   1.740   5.639 -0.4266  0.0145  0.0311
   65MOL   O28449052   5.440   1.773   5.706  0.6294  0.2455 -0.2530
   65MOL   O28549053   5.226   1.807   5.644 -0.2529  0.3496 -0.1311
   65MOL   C28649054   5.242   1.617   5.443 -0.1342 -0.2537 -0.0244
   65MOL   C28749055   5.237   1.506   5.357  0.7135 -0.1923  0.2989
   65MOL   H28849056   5.732   1.130   5.148  0.5905  0.6872 -0.0313
   65MOL   H28949057   5.703   1.164   5.311  1.4354 -0.9682 -0.0289
   65MOL   H29049058   5.806   0.947   5.391  0.2505  2.0995  1.0373
   65MOL   H29149059   5.920   1.039   5.294  0.2473 -1.4234  1.3846
   65MOL   H29249060   5.853   0.905   5.087 -2.0190 -0.6943 -0.4508
   65MOL   H29349061   5.946   0.692   5.160  2.1631 -1.1162  1.2081
   65MOL   H29449062   5.965   0.747   5.324  2.5528  0.8287  0.0570
   65MOL   H29549063   5.687   0.754   5.277  1.6111  2.0764  1.4228
   65MOL   H29649064   5.706   0.707   5.110  0.0268 -0.0104 -0.2448
   65MOL   H29749065   5.594   0.896   5.035  3.4171 -0.9777 -0.2020
   65MOL   H29849066   5.504   0.814   5.162  0.9561 -0.8484  1.7859
   65MOL   H29949067   5.561   0.978   5.323  0.1402 -2.5457 -0.7988
   65MOL   H30049068   5.365   1.041   5.205  0.4808 -1.2280 -1.0115
   65MOL   H30149069   5.453   1.147   5.089 -3.4636 -0.1378  0.0774
   65MOL   H30249070   5.526   1.365   5.461  0.6516  0.7964 -2.6834
   65MOL   H30349071   5.519   1.536   5.617 -0.1890 -0.2865  0.1184
   65MOL   H30449072   5.168   1.696   5.438 -1.4833 -1.6193 -2.9099
   65MOL   H30549073   5.162   1.496   5.281  2.0009 -2.8126 -0.6669
   65MOL   C30649074   5.022   2.015   5.980  0.6628 -0.1624 -0.2297
   65MOL   C30749075   5.047   2.077   5.836 -0.0405 -0.1599  0.3288
   65MOL   C30849076   5.068   1.966   5.733  0.2204 -0.1621  0.0479
   65MOL   C30949077   5.209   1.900   5.742  0.2948  0.3425 -0.3505
   65MOL   C31049078   4.960   1.858   5.745 -0.3090  0.0541 -0.0096
   65MOL   C31149079   4.943   1.793   5.885  0.0556 -0.1863 -0.8589
   65MOL   C31249080   4.917   1.901   5.988  0.4519  0.4602 -0.2786
   65MOL   C31349081   4.775   1.945   5.973  0.5976  0.0496  0.2557
   65MOL   O31449082   4.679   1.840   5.965 -0.3220 -0.5154 -0.5754
   65MOL   C31549083   4.587   1.829   6.064 -0.2507 -0.3728 -0.2040
   65MOL   O31649084   4.567   1.906   6.162 -0.4426  0.1956 -0.2908
   65MOL   C31749085   4.486   1.721   6.035  0.7931 -0.1614 -0.9060
   65MOL   C31849086   4.374   1.706   6.125 -0.3311 -0.5551 -0.1521
   65MOL   C31949087   4.284   1.598   6.101 -0.0863 -0.1166 -0.0635
   65MOL   C32049088   4.303   1.497   6.007 -0.0818  0.0553  0.7279
   65MOL   C32149089   4.214   1.382   5.995 -0.4372 -0.1377  0.3005
   65MOL   O32249090   4.212   1.297   5.903  0.8210  0.3905  0.0330
   65MOL   O32349091   4.132   1.369   6.104 -0.2540  0.5169  0.2820
   65MOL   C32449092   4.408   1.512   5.917 -0.2582  0.2766  0.6978
   65MOL   C32549093   4.499   1.618   5.932  0.5226 -0.2677 -0.4522
   65MOL   H32649094   4.991   2.100   6.041  0.9309 -0.3989  0.2431
   65MOL   H32749095   5.122   1.988   6.013  1.1876 -1.0307 -2.4938
   65MOL   H32849096   5.132   2.146   5.836  0.6240 -0.9627  1.1185
   65MOL   H32949097   4.960   2.139   5.817 -0.6038 -1.3300 -1.0061
   65MOL   H33049098   5.060   2.014   5.635  0.9036 -0.5632 -0.2105
   65MOL   H33149099   5.244   1.867   5.840  1.7586 -3.5682 -2.0724
   65MOL   H33249100   5.274   1.983   5.716  2.1871 -0.1234  2.6410
   65MOL   H33349101   4.982   1.773   5.680  4.1064  0.0728  1.3559
   65MOL   H33449102   4.861   1.891   5.712 -0.1365 -0.5755 -1.1912
   65MOL   H33549103   4.863   1.719   5.894 -0.0854 -0.2785 -2.6639
   65MOL   H33649104   5.034   1.737   5.908  0.2017 -0.1003 -1.2089
   65MOL   H33749105   4.916   1.837   6.077  2.1261  0.3354 -0.3244
   65MOL   H33849106   4.763   2.002   5.881 -0.8724 -2.3300 -1.0660
   65MOL   H33949107   4.752   2.017   6.052 -0.2814  1.1435 -0.9677
   65MOL   H34049108   4.354   1.777   6.203  0.3800 -2.1927  1.5613
   65MOL   H34149109   4.196   1.586   6.162  0.7093  0.6857  1.2331
   65MOL   H34249110   4.432   1.435   5.845  3.0118 -1.1818  3.2169
   65MOL   H34349111   4.593   1.620   5.879  0.4389  0.8303 -0.5557
   65MOL   C34449112   4.097   1.071   6.439 -0.4982 -0.2538 -0.1251
   65MOL   C34549113   4.119   1.111   6.292 -0.0446  0.3312  0.1316
   65MOL   C34649114   4.020   1.216   6.251  0.5551 -0.1843 -0.2258
   65MOL   C34749115   4.038   1.262   6.111 -0.1651  0.1827 -0.6209
   65MOL   C34849116   3.876   1.168   6.285  0.4446 -0.3013  0.2165
   65MOL   C34949117   3.861   1.131   6.429  0.4021 -0.3673 -0.1493
   65MOL   C35049118   3.955   1.027   6.482 -0.5212 -0.0727  0.0332
   65MOL   C35149119   3.952   1.016   6.634  0.1745  1.1246 -0.3723
   65MOL   O35249120   3.836   0.937   6.672  0.2788 -1.0266 -0.5275
   65MOL   C35349121   3.796   0.929   6.798 -0.8442 -0.0770  0.6425
   65MOL   O35449122   3.848   0.987   6.891 -0.4221 -0.2095 -0.4371
   65MOL   C35549123   3.683   0.833   6.813 -0.2202 -0.0968  0.3545
   65MOL   C35649124   3.606   0.837   6.926 -0.2702  0.3464  0.2910
   65MOL   C35749125   3.487   0.757   6.948 -0.3189 -0.0727 -0.6160
   65MOL   C35849126   3.439   0.675   6.842  0.7993 -0.3392 -0.4688
   65MOL   C35949127   3.306   0.610   6.854  0.4046  0.3058  0.4265
   65MOL   O36049128   3.242   0.607   6.963  0.4384  0.1519  0.4997
   65MOL   O36149129   3.273   0.548   6.746 -0.3934  0.7544  0.3525
   65MOL   C36249130   3.521   0.671   6.726  0.1126  0.0165 -0.2718
   65MOL   C36349131   3.647   0.738   6.710 -0.1360 -0.3555  0.2291
   65MOL   H36449132   4.125   1.158   6.499  0.2742  0.3444 -1.3577
   65MOL   H36549133   4.157   0.992   6.486 -1.2520 -0.3426  0.7230
   65MOL   H36649134   4.098   1.022   6.233  0.7814  0.6931 -0.7197
   65MOL   H36749135   4.225   1.135   6.282  0.7286 -2.6772  0.8158
   65MOL   H36849136   4.023   1.304   6.315 -0.2079 -0.4103  0.1197
   65MOL   H36949137   3.938   1.293   6.081  0.1073  0.7827 -0.9172
   65MOL   H37049138   4.069   1.171   6.060  0.2657 -1.3233  2.2655
   65MOL   H37149139   3.859   1.079   6.224 -0.0707  0.4645 -0.7953
   65MOL   H37249140   3.805   1.245   6.255  0.9099  0.1569  0.2875
   65MOL   H37349141   3.876   1.218   6.493  0.9594  0.7915 -1.8283
   65MOL   H37449142   3.758   1.096   6.436  0.3248 -0.9023 -3.1161
   65MOL   H37549143   3.952   0.926   6.440  2.4601 -0.3362  0.2926
   65MOL   H37649144   3.954   1.110   6.688 -2.1093  0.7574  0.3910
   65MOL   H37749145   4.035   0.953   6.667 -1.2646 -1.3977 -1.3370
   65MOL   H37849146   3.635   0.907   7.004  1.2745 -0.8892  0.8504
   65MOL   H37949147   3.432   0.760   7.041 -1.0918  1.6627 -1.1049
   65MOL   H38049148   3.500   0.605   6.643  1.3374 -0.0270 -0.5573
   65MOL   H38149149   3.712   0.718   6.626 -0.6771 -1.0424 -0.0306
   65MOL   C38249150   2.908   0.481   6.433 -0.8509 -0.7000  0.4135
   65MOL   C38349151   2.959   0.458   6.578 -0.2251  0.2460 -0.5441
   65MOL   C38449152   3.108   0.491   6.585 -0.0477 -0.3345 -0.0307
   65MOL   C38549153   3.146   0.491   6.733  0.7532  0.2363 -0.2339
   65MOL   C38649154   3.187   0.400   6.499  0.2243  0.5079 -0.3932
   65MOL   C38749155   3.128   0.397   6.351 -0.2144 -0.4182 -0.3623
   65MOL   C38849156   2.974   0.385   6.335  1.3336  0.4227  0.7879
   65MOL   C38949157   2.937   0.407   6.189 -0.6853  0.5471  0.0562
   65MOL   O39049158   2.806   0.343   6.174  0.1376  0.1412 -0.1550
   65MOL   C39149159   2.798   0.217   6.134 -0.9870 -0.2810  0.0827
   65MOL   O39249160   2.890   0.143   6.093  0.1423 -0.4049  0.2259
   65MOL   C39349161   2.661   0.159   6.152 -0.8805  0.0975  0.0238
   65MOL   C39449162   2.564   0.214   6.230  0.2111 -0.0256  1.0425
   65MOL   C39549163   2.437   0.158   6.246  0.2304 -0.0826 -0.1863
   65MOL   C39649164   2.409   0.038   6.183 -0.4075  0.4496 -0.0977
   65MOL   C39749165   2.279   8.002   6.196  0.3906 -0.2167 -0.5079
   65MOL   O39849166   2.235   7.925   6.115 -0.6576 -0.1292 -0.0435
   65MOL   O39949167   2.208   0.019   6.290 -0.3219 -0.2409  0.7281
   65MOL   C40049168   2.506   8.014   6.095 -0.4717  0.2587  0.6986
   65MOL   C40149169   2.631   0.042   6.086 -0.7840 -0.2593 -0.9678
   65MOL   H40249170   2.915   0.585   6.400 -2.3883  0.0442  2.3447
   65MOL   H40349171   2.802   0.458   6.426 -1.1056  0.9130 -1.8849
   65MOL   H40449172   2.941   0.352   6.598  2.5084 -0.3419 -0.9567
   65MOL   H40549173   2.897   0.511   6.650  0.5273  0.4166 -0.0070
   65MOL   H40649174   3.133   0.591   6.550  1.3799 -0.5707  0.2920
   65MOL   H40749175   3.132   0.387   6.764 -0.0143  0.5987  0.6505
   65MOL   H40849176   3.080   0.548   6.797  2.4636  1.1428  0.7647
   65MOL   H40949177   3.176   0.298   6.536 -1.5085  0.4055 -1.1346
   65MOL   H41049178   3.285   0.447   6.492  0.7358 -0.6880 -1.3471
   65MOL   H41149179   3.159   0.496   6.317 -0.6351 -0.2939 -0.3854
   65MOL   H41249180   3.184   0.338   6.279 -1.8120 -1.9867 -0.3534
   65MOL   H41349181   2.946   0.283   6.360  1.4748 -0.4219 -2.2849
   65MOL   H41449182   3.009   0.353   6.127 -0.4935  0.1432  0.6255
   65MOL   H41549183   2.929   0.510   6.154  0.5483  0.0748 -1.6737
   65MOL   H41649184   2.597   0.304   6.279  0.5566  0.2109  0.3662
   65MOL   H41749185   2.362   0.201   6.310 -0.2484  0.2100 -0.9397
   65MOL   H41849186   2.482   7.920   6.046  1.9035  0.6782 -1.3324
   65MOL   H41949187   2.710   8.019   6.036  1.1849  0.7861  0.9314
   65MOL   C42049188   2.137   7.654   6.486 -0.0407  0.4693 -0.6077
   65MOL   C42149189   2.142   7.760   6.377  0.1431 -0.0757  0.1718
   65MOL   C42249190   2.104   7.895   6.435  0.3733 -0.4038 -0.1040
   65MOL   C42349191   2.082   8.002   6.322  0.0684  0.4540  0.1497
   65MOL   C42449192   1.962   7.885   6.505 -0.7633 -1.2513  0.1608
   65MOL   C42549193   1.959   7.782   6.614 -0.3785 -0.8403  0.1113
   65MOL   C42649194   1.999   7.644   6.562  0.0940 -0.0053  0.4703
   65MOL   C42749195   2.009   7.538   6.670 -0.5652  0.2315  0.5731
   65MOL   O42849196   1.900   7.545   6.764 -0.7085 -0.1153  0.3251
   65MOL   C42949197   1.791   7.475   6.722 -0.0861  0.1600 -0.1998
   65MOL   O43049198   1.777   7.420   6.613  0.1938 -0.3010  0.4652
   65MOL   C43149199   1.692   7.482   6.822  0.6439 -0.6669 -0.2703
   65MOL   C43249200   1.703   7.548   6.942  0.0336 -0.2375 -0.5863
   65MOL   C43349201   1.597   7.546   7.037 -1.3538 -0.0293 -0.0119
   65MOL   C43449202   1.487   7.464   7.020 -0.9550 -0.4023  0.5862
   65MOL   C43549203   1.389   7.439   7.129 -0.1528  0.2459 -0.3062
   65MOL   O43649204   1.305   7.352   7.115 -0.6889 -0.2931 -0.3882
   65MOL   O43749205   1.407   7.520   7.239  0.5037 -0.1594  0.0166
   65MOL   C43849206   1.471   7.402   6.896 -0.0396 -0.5041 -0.3680
   65MOL   C43949207   1.571   7.420   6.802 -0.6289  0.3808  0.1587
   65MOL   H44049208   2.209   7.676   6.565 -1.1250  0.3825  0.4151
   65MOL   H44149209   2.158   7.551   6.457 -1.7807 -0.2509  0.6817
   65MOL   H44249210   2.075   7.719   6.302 -1.2650 -0.0756  1.4078
   65MOL   H44349211   2.241   7.774   6.334 -0.2394  1.2496 -0.2951
   65MOL   H44449212   2.177   7.935   6.505  0.8724 -2.7408  0.7389
   65MOL   H44549213   2.023   0.057   6.348 -0.2228  0.0472  0.8592
   65MOL   H44649214   2.032   7.961   6.234  0.2470 -0.7096  0.5807
   65MOL   H44749215   1.890   7.849   6.431  2.2346 -1.8979 -2.5504
   65MOL   H44849216   1.942   7.985   6.542  3.2084  0.1784 -1.2607
   65MOL   H44949217   2.038   7.818   6.680  0.2700 -2.5169  0.2870
   65MOL   H45049218   1.862   7.776   6.663 -0.2874 -0.4365  0.3452
   65MOL   H45149219   1.928   7.602   6.491  2.1050  0.9013 -2.1554
   65MOL   H45249220   2.108   7.544   6.715 -0.8902 -1.3028  1.5363
   65MOL   H45349221   2.030   7.435   6.642  0.6896 -0.0914  2.5722
   65MOL   H45449222   1.786   7.616   6.955  1.4134 -1.5978 -2.0634
   65MOL   H45549223   1.616   7.614   7.119 -1.5438 -1.1738  0.9870
   65MOL   H45649224   1.385   7.338   6.880 -2.0506  1.9471  0.4284
   65MOL   H45749225   1.560   7.365   6.710 -0.6128 -0.6872  0.7784
   65MOL   C45849226   1.483   7.849   7.484  0.0461 -0.2124  0.2818
   65MOL   C45949227   1.391   7.745   7.423  0.2060 -0.6160  0.6549
   65MOL   C46049228   1.414   7.597   7.470 -0.1167  0.4831  0.7169
   65MOL   C46149229   1.358   7.489   7.368 -0.0557 -0.4976  0.1185
   65MOL   C46249230   1.563   7.562   7.487 -0.1583 -0.0448 -0.6402
   65MOL   C46349231   1.644   7.675   7.552 -0.4565 -0.7549  0.2773
   65MOL   C46449232   1.630   7.811   7.478 -0.0136 -0.2611 -0.7257
   65MOL   C46549233   1.726   7.918   7.525  0.5923  0.2406 -0.2128
   65MOL   O46649234   1.718   0.001   7.438  0.5062  0.0894 -0.5043
   65MOL   C46749235   1.829   0.046   7.377  0.0934  0.2288 -0.5360
   65MOL   O46849236   1.936   8.017   7.378  0.9151 -0.0140 -0.6225
   65MOL   C46949237   1.811   0.179   7.310 -0.1972  0.2475  0.1288
   65MOL   C47049238   1.899   0.221   7.209  0.5819  0.2040 -0.8282
   65MOL   C47149239   1.886   0.339   7.141  0.2844 -0.5548 -0.5350
   65MOL   C47249240   1.782   0.430   7.167  0.7453 -0.2195 -0.5490
   65MOL   C47349241   1.761   0.559   7.094  0.4778 -1.0316 -0.8466
   65MOL   O47449242   1.838   0.586   7.008 -0.3506 -0.1547 -0.0352
   65MOL   O47549243   1.650   0.634   7.114  0.0453  0.0354 -0.3621
   65MOL   C47649244   1.699   0.395   7.273  0.0875 -0.3972 -0.0391
   65MOL   C47749245   1.710   0.275   7.343 -0.2950 -0.5021 -0.4481
   65MOL   H47849246   1.461   7.857   7.591  1.0796  0.2439  0.4670
   65MOL   H47949247   1.450   7.940   7.433  0.9701  0.3539  0.6766
   65MOL   H48049248   1.388   7.751   7.314  2.8308  0.2130  0.5975
   65MOL   H48149249   1.285   7.764   7.439  0.5726  2.8404 -0.7166
   65MOL   H48249250   1.362   7.586   7.565 -1.7390  0.6123 -0.1365
   65MOL   H48349251   1.250   7.498   7.360 -0.1536 -0.7966  1.0691
   65MOL   H48449252   1.386   7.390   7.403  0.8812 -0.2217  0.1665
   65MOL   H48549253   1.601   7.552   7.385 -1.3439  2.8427 -1.4374
   65MOL   H48649254   1.564   7.469   7.544 -2.3947  0.5575  0.4353
   65MOL   H48749255   1.619   7.695   7.656 -0.3132 -1.6766  0.4944
   65MOL   H48849256   1.750   7.651   7.554 -0.0386  1.0557  0.8367
   65MOL   H48949257   1.657   7.795   7.374  0.5834 -3.6219 -0.1057
   65MOL   H49049258   1.828   7.884   7.544  2.2390  4.4369 -1.0779
   65MOL   H49149259   1.694   7.955   7.623 -0.3748 -0.2979 -0.3187
   65MOL   H49249260   1.981   0.157   7.183  1.5011  0.1065  2.0410
   65MOL   H49349261   1.953   0.361   7.060  2.0552  1.1920  1.3455
   65MOL   H49449262   1.614   0.457   7.297  0.8631  1.2932 -1.6091
   65MOL   H49549263   1.642   0.260   7.425 -1.9083  2.2724 -1.2154
   65MOL   C49649264   1.920   1.016   7.054  0.1791 -0.0390  0.6294
   65MOL   C49749265   1.854   0.880   7.045 -0.0682 -0.0482 -0.5029
   65MOL   C49849266   1.700   0.887   7.074 -0.1565 -0.1681 -0.0019
   65MOL   C49949267   1.623   0.754   7.041 -0.1969 -0.5934 -0.6539
   65MOL   C50049268   1.694   0.928   7.219 -0.2389  0.2237 -0.0908
   65MOL   C50149269   1.759   1.056   7.245 -0.6478 -0.4585 -0.0992
   65MOL   C50249270   1.909   1.065   7.203  0.6928  0.0357  0.6874
   65MOL   C50349271   1.964   1.209   7.243  1.1263 -0.4871 -0.5151
   65MOL   O50449272   2.091   1.246   7.189  0.2910 -0.3953 -0.5931
   65MOL   C50549273   2.104   1.337   7.091 -0.2382 -0.1076 -0.2205
   65MOL   O50649274   2.003   1.386   7.035  0.4323 -0.5977 -0.4579
   65MOL   C50749275   2.247   1.374   7.059 -0.3858 -0.0079  0.0304
   65MOL   C50849276   2.350   1.291   7.099 -0.3747  0.4964 -0.4441
   65MOL   C50949277   2.482   1.307   7.055  0.1155 -0.5140  0.3294
   65MOL   C51049278   2.506   1.423   6.970  0.2175  0.1585 -0.2344
   65MOL   C51149279   2.648   1.455   6.925 -0.1053  0.9248 -0.0841
   65MOL   O51249280   2.680   1.568   6.892 -0.3143 -0.1493 -0.2680
   65MOL   O51349281   2.713   1.343   6.916 -0.0547 -0.3896 -0.0358
   65MOL   C51449282   2.409   1.518   6.951 -0.9241  0.2378 -0.0960
   65MOL   C51549283   2.273   1.482   6.977  0.1525  0.0525 -0.3256
   65MOL   H51649284   1.876   1.087   6.983 -1.3153 -0.8640  0.7012
   65MOL   H51749285   2.026   1.013   7.031  0.4162  1.4469  1.4827
   65MOL   H51849286   1.903   0.821   7.122  0.2583 -2.6585 -2.6505
   65MOL   H51949287   1.876   0.834   6.949  1.9619  1.9861 -1.0696
   65MOL   H52049288   1.650   0.964   7.014 -0.9662 -0.5089  0.2352
   65MOL   H52149289   1.633   0.725   6.937  0.4739  0.3535 -0.8613
   65MOL   H52249290   1.518   0.782   7.038  0.3504  1.5312 -1.2983
   65MOL   H52349291   1.733   0.843   7.275 -0.4146  0.0771 -0.1890
   65MOL   H52449292   1.588   0.930   7.244 -0.5153 -3.6250 -0.5941
   65MOL   H52549293   1.709   1.133   7.186  2.4739  1.6562 -0.1022
   65MOL   H52649294   1.746   1.090   7.348  0.0542 -3.5645  1.0513
   65MOL   H52749295   1.970   1.002   7.268  1.0050  2.2281  2.5609
   65MOL   H52849296   1.977   1.233   7.349 -1.4403 -2.5326  0.3252
   65MOL   H52949297   1.893   1.285   7.209  1.3117  0.6657  1.6056
   65MOL   H53049298   2.343   1.210   7.169 -0.9076  0.8589 -0.0737
   65MOL   H53149299   2.567   1.247   7.084  0.5418 -0.0689  0.0151
   65MOL   H53249300   2.434   1.616   6.914  0.5695 -0.1613 -0.1575
   65MOL   H53349301   2.192   1.544   6.943 -0.0117  0.0725  0.1005
   65MOL   C53449302   3.200   1.356   7.040 -0.4671 -0.5406  0.4588
   65MOL   C53549303   3.092   1.321   6.934  0.5138  0.3722  0.3609
   65MOL   C53649304   2.951   1.365   6.975  0.2224  0.0465 -0.0362
   65MOL   C53749305   2.847   1.350   6.864  0.5561  0.2578  0.2043
   65MOL   C53849306   2.910   1.335   7.121 -1.1425 -0.0502  0.1972
   65MOL   C53949307   3.022   1.354   7.226 -0.2977  0.4754  0.2911
   65MOL   C54049308   3.157   1.306   7.180  0.1631 -0.2393 -0.6052
   65MOL   C54149309   3.255   1.330   7.298  0.2767  0.0321  0.3317
   65MOL   O54249310   3.303   1.468   7.308 -0.4488  0.0499 -0.2604
   65MOL   C54349311   3.329   1.529   7.426 -0.3609  0.3016  0.2198
   65MOL   O54449312   3.333   1.470   7.535 -0.2662  0.6162 -0.0030
   65MOL   C54549313   3.357   1.672   7.413  0.0300 -0.1779 -0.1494
   65MOL   C54649314   3.369   1.758   7.527  0.2543  0.2972  0.0109
   65MOL   C54749315   3.398   1.898   7.520 -0.5411 -0.1907 -0.0406
   65MOL   C54849316   3.426   1.951   7.397 -0.1808 -0.1834  0.7231
   65MOL   C54949317   3.489   2.083   7.396 -0.2941  0.6698 -0.5820
   65MOL   O55049318   3.540   2.139   7.496  0.8014  0.4262  0.4055
   65MOL   O55149319   3.488   2.143   7.273 -0.6112 -0.3802 -0.2973
   65MOL   C55249320   3.417   1.869   7.277  0.5881  0.3226 -0.4464
   65MOL   C55349321   3.381   1.733   7.285 -0.2459  0.5308 -0.0488
   65MOL   H55449322   3.206   1.465   7.034 -0.7992 -0.5995 -1.1251
   65MOL   H55549323   3.303   1.322   7.024 -0.3363  1.0866 -2.7265
   65MOL   H55649324   3.113   1.214   6.929  2.6676  0.7993 -0.1433
   65MOL   H55749325   3.123   1.350   6.834 -0.5789  0.3898  0.0194
   65MOL   H55849326   2.967   1.473   6.984 -0.3669  0.3390 -2.0747
   65MOL   H55949327   2.867   1.254   6.817 -1.0634  0.3479 -0.7223
   65MOL   H56049328   2.860   1.425   6.786 -0.0480 -1.0682 -1.1915
   65MOL   H56149329   2.875   1.232   7.112  1.4586 -1.0220  0.9395
   65MOL   H56249330   2.822   1.386   7.163 -0.4926  0.3063  1.1593
   65MOL   H56349331   3.032   1.457   7.261 -4.4416  0.7183  1.0327
   65MOL   H56449332   2.995   1.291   7.311  1.7795 -0.3918  0.3275
   65MOL   H56549333   3.145   1.198   7.166  2.0599 -0.5125 -0.3310
   65MOL   H56649334   3.344   1.281   7.259 -0.8912  1.3774 -4.3027
   65MOL   H56749335   3.216   1.292   7.393  2.4502  3.3939  2.6803
   65MOL   H56849336   3.359   1.709   7.623  0.6038 -2.3018 -1.2281
   65MOL   H56949337   3.412   1.953   7.612 -2.9147  1.2134 -0.4786
   65MOL   H57049338   3.440   1.915   7.183  1.5828 -0.4453 -0.5853
   65MOL   H57149339   3.377   1.667   7.200 -0.8323 -0.3270  0.6311
   65MOL   C57249340   3.459   2.363   6.895 -0.1624 -0.1915 -0.3743
   65MOL   C57349341   3.439   2.329   7.040  0.9727  0.3632 -0.3108
   65MOL   C57449342   3.571   2.315   7.116  0.2677  0.2721 -0.6323
   65MOL   C57549343   3.551   2.271   7.265 -0.9421  0.3959  0.5800
   65MOL   C57649344   3.662   2.210   7.048  0.1443  0.0997  0.2155
   65MOL   C57749345   3.683   2.239   6.901  0.1962 -0.1185  0.3241
   65MOL   C57849346   3.547   2.257   6.826  0.6626 -0.5282  0.4771
   65MOL   C57949347   3.571   2.287   6.675 -0.0602 -0.2670  0.5274
   65MOL   O58049348   3.437   2.289   6.625 -0.0057 -0.2978 -0.3497
   65MOL   C58149349   3.393   2.379   6.536  0.2278  0.1577 -0.5367
   65MOL   O58249350   3.461   2.461   6.480  0.2420  0.2394  0.1713
   65MOL   C58349351   3.252   2.357   6.510  0.0258  0.5145 -0.1008
   65MOL   C58449352   3.166   2.288   6.594 -0.1283  0.1487  0.1237
   65MOL   C58549353   3.029   2.273   6.561 -0.4924 -0.5195 -0.1657
   65MOL   C58649354   2.976   2.332   6.439 -0.3929 -0.3843  0.0616
   65MOL   C58749355   2.834   2.314   6.405  0.7422 -0.4003  0.3403
   65MOL   O58849356   2.754   2.276   6.488 -0.5848  0.1217  0.0668
   65MOL   O58949357   2.813   2.342   6.281 -0.4323 -0.4685  0.4313
   65MOL   C59049358   3.071   2.394   6.350  0.6318  0.0094  0.3428
   65MOL   C59149359   3.207   2.395   6.382  0.1826 -0.3267  0.3004
   65MOL   H59249360   3.509   2.459   6.885  1.3263 -0.7641  1.2952
   65MOL   H59349361   3.362   2.373   6.846 -0.0242  0.3196 -0.5440
   65MOL   H59449362   3.389   2.232   7.038  0.6892  0.5206 -1.1428
   65MOL   H59549363   3.357   2.392   7.073 -0.0979  0.2629 -2.6425
   65MOL   H59649364   3.617   2.414   7.114 -0.0382  0.4369  0.2690
   65MOL   H59749365   3.493   2.336   7.331 -3.4407  0.0471 -1.1798
   65MOL   H59849366   3.650   2.258   7.308 -0.4002  0.1528 -0.7169
   65MOL   H59949367   3.622   2.108   7.052  3.3802 -1.2485  0.0723
   65MOL   H60049368   3.758   2.200   7.099  0.1224 -1.0177  0.0435
   65MOL   H60149369   3.755   2.318   6.883  0.5210 -0.1170  1.5550
   65MOL   H60249370   3.733   2.153   6.857  1.9933  0.6082  0.9022
   65MOL   H60349371   3.501   2.159   6.833 -0.2223 -0.1868 -0.3092
   65MOL   H60449372   3.625   2.218   6.611  2.1121  1.3997  0.5222
   65MOL   H60549373   3.621   2.383   6.658  0.5006 -0.9197 -1.6864
   65MOL   H60649374   3.194   2.232   6.681 -2.5049 -1.2222  0.0363
   65MOL   H60749375   2.975   2.209   6.629 -2.3615  0.1553 -1.0035
   65MOL   H60849376   3.040   2.433   6.254  1.6988 -1.0355 -0.4467
   65MOL   H60949377   3.281   2.438   6.316 -0.8776  1.6324  0.3544
   65MOL   C61049378   2.784   2.535   5.886 -0.4638 -0.1574 -0.4529
   65MOL   C61149379   2.756   2.507   6.032  0.0053  0.4766  0.4279
   65MOL   C61249380   2.700   2.363   6.069 -0.0124 -0.0402  0.7318
   65MOL   C61349381   2.681   2.360   6.225  0.3072 -0.0030 -0.6186
   65MOL   C61449382   2.572   2.344   5.981 -0.4999 -0.0382  0.0143
   65MOL   C61549383   2.616   2.351   5.826 -0.4314  0.1602 -0.8571
   65MOL   C61649384   2.660   2.494   5.794  0.3227  0.1216  0.8604
   65MOL   C61749385   2.673   2.514   5.646 -0.4261  0.1373  0.2063
   65MOL   O61849386   2.727   2.397   5.588  0.2052  0.6438 -0.0726
   65MOL   C61949387   2.720   2.376   5.466  0.3392 -0.1302  0.1471
   65MOL   O62049388   2.646   2.439   5.395 -0.4608 -0.2546  0.3548
   65MOL   C62149389   2.787   2.255   5.425 -0.0965 -0.2952  0.4181
   65MOL   C62249390   2.793   2.228   5.285  0.6414  0.7197  0.2420
   65MOL   C62349391   2.868   2.128   5.227 -0.0738 -0.9799  0.9623
   65MOL   C62449392   2.938   2.045   5.310 -0.1559  0.1854  0.3683
   65MOL   C62549393   3.032   1.949   5.260 -0.9081  0.2860 -0.2167
   65MOL   O62649394   3.086   1.860   5.328 -0.2412 -0.6367  0.1796
   65MOL   O62749395   3.068   1.984   5.136  0.1746 -0.7660 -0.1064
   65MOL   C62849396   2.918   2.048   5.449  0.0757 -0.7120 -0.2544
   65MOL   C62949397   2.844   2.158   5.506  0.3743 -0.0554  0.1458
   65MOL   H63049398   2.870   2.476   5.854 -0.5075 -0.3075 -0.2951
   65MOL   H63149399   2.807   2.641   5.877  1.4920 -0.6809 -1.9371
   65MOL   H63249400   2.691   2.581   6.078  0.7965  1.2493  0.3119
   65MOL   H63349401   2.843   2.520   6.096  1.2881 -0.3228 -1.1212
   65MOL   H63449402   2.773   2.290   6.035 -0.4599 -1.0796  1.9882
   65MOL   H63549403   2.616   2.276   6.251 -0.2995  0.8865  0.7835
   65MOL   H63649404   2.634   2.453   6.258 -0.8763 -0.7269 -0.2288
   65MOL   H63749405   2.502   2.422   6.011 -1.2917 -0.3827 -0.9258
   65MOL   H63849406   2.515   2.254   6.003 -0.2842 -0.8420 -2.4787
   65MOL   H63949407   2.687   2.271   5.803  1.1518  1.1769  0.3658
   65MOL   H64049408   2.519   2.329   5.781 -0.7836 -1.3165  0.6180
   65MOL   H64149409   2.579   2.555   5.833  0.9743 -0.1096  2.6091
   65MOL   H64249410   2.727   2.605   5.622 -2.0571  0.7872 -1.1763
   65MOL   H64349411   2.572   2.519   5.604 -0.8296  0.1845  1.1836
   65MOL   H64449412   2.744   2.293   5.215  0.5258 -0.5931 -0.9251
   65MOL   H64549413   2.872   2.123   5.119 -1.8200  3.3219  0.5842
   65MOL   H64649414   2.961   1.980   5.522  0.7642 -0.9970 -0.9290
   65MOL   H64749415   2.846   2.175   5.612 -0.2349 -1.5517  0.4130
   65MOL   C64849416   3.462   2.199   4.988 -0.4246 -0.3666 -0.0316
   65MOL   C64949417   3.328   2.129   4.986  0.7029  0.1857  0.3685
   65MOL   C65049418   3.310   2.017   5.087 -0.1645  0.0321 -0.1694
   65MOL   C65149419   3.187   1.930   5.072  0.6127 -0.6442  0.6006
   65MOL   C65249420   3.434   1.919   5.082  0.0764  0.1997 -0.3844
   65MOL   C65349421   3.572   1.987   5.082 -0.0801 -0.3360  0.4209
   65MOL   C65449422   3.578   2.093   4.974 -0.1916 -0.0684 -0.4926
   65MOL   C65549423   3.713   2.163   4.956  0.3798 -0.0968 -0.3630
   65MOL   O65649424   3.739   2.200   4.821 -0.4025 -0.4056 -1.0779
   65MOL   C65749425   3.723   2.326   4.777  0.2603  0.2671 -0.1901
   65MOL   O65849426   3.669   2.416   4.845  0.4904 -0.0868 -0.0533
   65MOL   C65949427   3.752   2.345   4.629 -0.1281 -0.1641  0.1553
   65MOL   C66049428   3.815   2.248   4.550  0.5874  0.3547 -0.6886
   65MOL   C66149429   3.848   2.257   4.415 -0.1010 -0.2463 -0.8053
   65MOL   C66249430   3.823   2.378   4.350  0.2785 -0.6838 -1.1401
   65MOL   C66349431   3.845   2.400   4.201 -1.2130 -0.2568 -0.2489
   65MOL   O66449432   3.881   2.311   4.122  0.5612  0.2969  0.4758
   65MOL   O66549433   3.847   2.525   4.160  0.1795  0.0180  0.2000
   65MOL   C66649434   3.764   2.482   4.427 -0.4227 -0.0889  0.5820
   65MOL   C66749435   3.734   2.467   4.562  0.6626 -0.3336  0.0434
   65MOL   H66849436   3.478   2.247   5.085  0.8026 -1.7451  0.4502
   65MOL   H66949437   3.466   2.278   4.913 -0.0491  0.3345  0.7157
   65MOL   H67049438   3.309   2.087   4.887  0.1248 -0.6415  0.8174
   65MOL   H67149439   3.259   2.208   5.016  2.2186  0.7656  2.3734
   65MOL   H67249440   3.317   2.059   5.187  0.3386 -1.6484  0.5243
   65MOL   H67349441   3.213   1.833   5.114  2.8960 -0.1355  0.4509
   65MOL   H67449442   3.158   1.923   4.967  0.1276 -1.9498  0.8161
   65MOL   H67549443   3.429   1.852   4.996 -0.4596  0.6017 -0.6680
   65MOL   H67649444   3.429   1.849   5.165 -0.7692  2.4425  1.5100
   65MOL   H67749445   3.584   2.040   5.177  0.3610 -2.1028  1.3780
   65MOL   H67849446   3.654   1.918   5.064  0.4520  0.0520  1.2946
   65MOL   H67949447   3.560   2.039   4.881 -1.7579  0.6166 -0.6086
   65MOL   H68049448   3.789   2.094   4.991 -2.0477 -2.0707  1.2360
   65MOL   H68149449   3.721   2.252   5.019 -1.4533 -0.6563  0.6951
   65MOL   H68249450   3.836   2.157   4.604  0.5065  0.6591 -0.1447
   65MOL   H68349451   3.893   2.174   4.363 -0.1046 -1.2185  0.7038
   65MOL   H68449452   3.746   2.578   4.381  0.5465  0.4195  1.2573
   65MOL   H68549453   3.707   2.556   4.616 -1.2746  0.4124 -2.0752
   65MOL   C68649454   4.111   2.877   4.110 -0.1501 -0.0209 -0.5369
   65MOL   C68749455   4.072   2.734   4.110  0.8611  0.5727 -0.0519
   65MOL   C68849456   3.939   2.714   4.042  0.1627  0.0724  0.0734
   65MOL   C68949457   3.888   2.568   4.031 -0.1939  0.2618  0.1026
   65MOL   C69049458   3.825   2.801   4.105  0.0633  0.2695 -0.0560
   65MOL   C69149459   3.866   2.953   4.117 -0.6444  0.8894 -0.3076
   65MOL   C69249460   4.011   2.979   4.168  0.3053 -0.4130  0.5824
   65MOL   C69349461   4.066   3.125   4.146 -0.0359  0.7892  0.1222
   65MOL   O69449462   4.067   3.155   4.004 -0.2774  0.0311 -0.2919
   65MOL   C69549463   4.169   3.233   3.961 -0.5430 -0.4833 -0.4412
   65MOL   O69649464   4.244   3.293   4.038  0.1780  0.5348 -0.0620
   65MOL   C69749465   4.181   3.232   3.809 -0.5463  0.7161 -0.3020
   65MOL   C69849466   4.098   3.152   3.730 -0.1792 -0.0706 -0.9783
   65MOL   C69949467   4.102   3.156   3.592 -0.5487  0.2759  0.4760
   65MOL   C70049468   4.204   3.232   3.526  0.2815 -0.0442  0.4066
   65MOL   C70149469   4.235   3.205   3.388  0.2195  0.1838 -0.6768
   65MOL   O70249470   4.177   3.114   3.328  0.2713  0.2098 -0.1888
   65MOL   O70349471   4.337   3.277   3.336 -0.3982 -0.2894  0.5398
   65MOL   C70449472   4.287   3.311   3.611  0.0748  0.6418  0.4526
   65MOL   C70549473   4.281   3.309   3.751 -0.0796  0.2358  0.0811
   65MOL   H70649474   4.150   2.906   4.013  1.0749 -1.8090 -0.5986
   65MOL   H70749475   4.200   2.884   4.172 -1.1306  0.5671  0.8489
   65MOL   H70849476   4.075   2.691   4.210  1.1791 -0.5494 -0.5257
   65MOL   H70949477   4.157   2.688   4.059  0.5186  1.5572 -1.5550
   65MOL   H71049478   3.948   2.745   3.938  1.0562  1.3076  0.5093
   65MOL   H71149479   3.964   2.503   3.988 -0.7330 -0.2339 -0.1028
   65MOL   H71249480   3.799   2.558   3.969  0.6876  4.0030 -1.8783
   65MOL   H71349481   3.809   2.766   4.208 -1.1265 -1.6291 -0.8409
   65MOL   H71449482   3.730   2.796   4.052 -0.0426 -0.6988  0.2112
   65MOL   H71549483   3.856   3.001   4.020 -0.4086  2.1181  0.2724
   65MOL   H71649484   3.790   2.996   4.183 -1.2176 -0.1731 -0.2537
   65MOL   H71749485   4.007   2.961   4.276 -1.0564 -2.6123  0.1909
   65MOL   H71849486   4.166   3.137   4.188 -0.5769 -1.2298  2.0667
   65MOL   H71949487   4.001   3.199   4.194 -0.7426 -0.8671  1.7538
   65MOL   H72049488   4.029   3.085   3.780 -1.2669  2.4676  1.0353
   65MOL   H72149489   4.032   3.103   3.529  2.4812 -1.6916 -1.4060
   65MOL   H72249490   4.371   3.367   3.573  0.8181 -0.5031  0.3495
   65MOL   H72349491   4.346   3.372   3.810 -0.9077 -0.6513  1.9611
   65MOL   C72449492   4.654   2.972   3.296  0.5984  0.1493  0.1607
   65MOL   C72549493   4.589   3.114   3.283 -0.1691  0.6601 -0.1627
   65MOL   C72649494   4.462   3.116   3.199  1.2188 -0.4507  0.4774
   65MOL   C72749495   4.383   3.248   3.206  0.0815 -0.1451  0.1905
   65MOL   C72849496   4.499   3.070   3.052 -0.0878  0.0730 -0.5846
   65MOL   C72949497   4.561   2.936   3.060 -0.5843  0.6573 -0.6510
   65MOL   C73049498   4.686   2.929   3.146 -0.2312 -0.8258 -0.3891
   65MOL   C73149499   4.724   2.775   3.148 -0.1336  0.3723 -0.2893
   65MOL   O73249500   4.864   2.756   3.180 -0.8404  0.1033  0.6522
   65MOL   C73349501   4.908   2.727   3.304 -0.7388 -0.4235 -0.1728
   65MOL   O73449502   4.836   2.709   3.403  0.3206  0.0482 -0.2167
   65MOL   C73549503   5.057   2.728   3.302  0.1488 -0.0384  0.2646
   65MOL   C73649504   5.124   2.715   3.179  0.3709 -0.3119  0.2127
   65MOL   C73749505   5.261   2.724   3.164  0.4109 -0.0538  0.5574
   65MOL   C73849506   5.336   2.741   3.281 -0.4178 -0.6571 -0.6556
   65MOL   C73949507   5.488   2.743   3.275 -0.4548 -0.1370  0.6326
   65MOL   O74049508   5.559   2.760   3.376  0.0690 -0.0063  0.0852
   65MOL   O74149509   5.534   2.709   3.150 -0.2593  0.6636  0.2445
   65MOL   C74249510   5.276   2.746   3.409  0.5016 -0.1502  0.4386
   65MOL   C74349511   5.134   2.752   3.415  0.4700  0.0700 -0.0123
   65MOL   H74449512   4.581   2.911   3.348  0.8251 -1.4872 -1.4037
   65MOL   H74549513   4.742   2.971   3.361  2.0869  0.7102 -1.7910
   65MOL   H74649514   4.659   3.189   3.247 -0.3400  0.8601 -0.0801
   65MOL   H74749515   4.570   3.145   3.386  1.2945 -1.6266  0.8480
   65MOL   H74849516   4.407   3.032   3.241 -0.2707 -0.4673 -1.4228
   65MOL   H74949517   4.304   3.247   3.130 -1.7905 -0.9414  2.0891
   65MOL   H75049518   4.461   3.320   3.180 -0.5581  1.5865  2.8683
   65MOL   H75149519   4.559   3.141   2.994 -0.7374 -0.4254 -1.8784
   65MOL   H75249520   4.413   3.053   2.987 -0.6452 -0.1229  0.2020
   65MOL   H75349521   4.497   2.856   3.098  0.3409  0.4172  0.4525
   65MOL   H75449522   4.604   2.899   2.967 -1.1958 -0.6007 -0.4500
   65MOL   H75549523   4.760   2.996   3.104 -0.5341  0.2419  0.7595
   65MOL   H75649524   4.721   2.735   3.047  3.2261  0.9000 -0.6595
   65MOL   H75749525   4.662   2.723   3.221  0.1715  2.2063  1.3382
   65MOL   H75849526   5.070   2.701   3.087 -0.6689  0.8441  0.6262
   65MOL   H75949527   5.315   2.721   3.071 -0.6071  2.4116 -0.1598
   65MOL   H76049528   5.334   2.754   3.499 -0.6657 -0.2917  1.2231
   65MOL   H76149529   5.088   2.785   3.507  0.4378 -0.5071  0.1838
   65MOL   H76249530   5.628   2.720   3.143 -0.3188  2.0262  1.3545
   8.03194   8.03194   8.03194
