Control file title. For DL_FIELD 4.10
49864
    1MOL     C1    1   4.427   4.748   6.561 -0.9034 -0.3526 -0.1369
    1MOL     C2    2   4.432   4.879   6.640 -0.6837 -0.6573 -0.6128
    1MOL     C3    3   4.325   4.991   6.606 -0.1503 -0.1830 -0.4129
    1MOL     C4    4   4.339   5.112   6.690 -0.0052  0.0206  0.3241
    1MOL     C5    5   4.219   5.206   6.680  0.2469  0.3151  0.0257
    1MOL     O6    6   4.231   5.273   6.555 -0.1117  0.2072  0.1948
    1MOL     C7    7   4.118   5.289   6.482 -0.2609  0.0204  0.5135
    1MOL     O8    8   4.013   5.234   6.502  0.2528  0.0512 -0.2857
    1MOL     C9    9   4.128   5.400   6.378 -0.4897  0.2016  0.7732
    1MOL    C10   10   4.126   5.541   6.445  0.2288 -1.2650 -0.2606
    1MOL    C11   11   4.021   5.377   6.263 -0.4220  0.2442  0.4176
    1MOL    H12   12   4.415   4.773   6.456 -3.0249  1.7606  0.5522
    1MOL    H13   13   4.342   4.686   6.594 -0.7374 -0.0307  0.9337
    1MOL    H14   14   4.510   4.681   6.586 -1.1438 -0.4574  0.4108
    1MOL    H15   15   4.415   4.861   6.747  3.2124  0.6121  0.3103
    1MOL    H16   16   4.534   4.916   6.650 -1.1957  0.8238 -0.6626
    1MOL    H17   17   4.323   5.021   6.501 -0.6283  1.7147  0.1044
    1MOL    H18   18   4.226   4.947   6.615 -0.0512 -0.0918  1.4564
    1MOL    H19   19   4.431   5.161   6.659 -1.6671  2.6255 -0.7663
    1MOL    H20   20   4.348   5.094   6.797 -0.1027 -2.1795 -0.0219
    1MOL    H21   21   4.129   5.145   6.693  0.3117  0.3837  0.8239
    1MOL    H22   22   4.228   5.287   6.751 -0.6638 -1.3513  2.0959
    1MOL    H23   23   4.150   5.622   6.376  1.2880 -1.2461  0.1200
    1MOL    H24   24   4.175   5.547   6.542  1.8394 -1.5519 -1.0317
    1MOL    H25   25   4.022   5.569   6.459  0.6828  0.8703 -0.9955
    1MOL    H26   26   3.922   5.401   6.303 -1.7313 -1.8705 -1.4362
    1MOL    H27   27   4.031   5.274   6.229  2.2629  0.5659  0.0929
    1MOL    H28   28   4.217   5.373   6.321 -1.9831 -1.3489 -0.9509
    1MOL    C29   29   4.037   5.455   5.382 -0.0016  0.5479  0.2709
    1MOL    C30   30   4.131   5.531   5.484  0.0911 -0.9445  0.2333
    1MOL    C31   31   4.149   5.471   5.626 -0.1954  0.2352  0.0521
    1MOL    C32   32   4.263   5.529   5.713 -0.5026  0.1083 -0.3597
    1MOL    C33   33   4.287   5.461   5.853 -0.2650  0.0968 -0.4367
    1MOL    O34   34   4.177   5.483   5.934 -0.0468  0.3522  0.9912
    1MOL    C35   35   4.156   5.407   6.046 -0.2683  0.0392  0.1891
    1MOL    O36   36   4.218   5.309   6.086  0.4477 -0.3551  0.1258
    1MOL    C37   37   4.030   5.453   6.121 -0.1187  0.1353 -0.0395
    1MOL    C38   38   4.061   5.606   6.143  0.0706  0.4571  0.0750
    1MOL    C39   39   3.899   5.451   6.032 -0.1699 -0.1316 -0.1219
    1MOL    H40   40   3.935   5.433   5.415  0.1750 -0.0818  0.4171
    1MOL    H41   41   4.034   5.508   5.287  1.6908  0.4859  0.1714
    1MOL    H42   42   4.073   5.354   5.360 -0.7609  0.4935 -0.7540
    1MOL    H43   43   4.099   5.633   5.506  0.7182 -0.3259 -1.7202
    1MOL    H44   44   4.230   5.549   5.443 -0.0151  0.2503  0.4892
    1MOL    H45   45   4.164   5.365   5.606 -0.8699  0.2835 -0.7493
    1MOL    H46   46   4.058   5.470   5.687  0.0596 -0.4606  0.4318
    1MOL    H47   47   4.359   5.543   5.665 -1.4792 -0.2447 -2.4486
    1MOL    H48   48   4.238   5.632   5.740 -0.7921  0.2445 -1.1467
    1MOL    H49   49   4.360   5.525   5.902 -0.1768 -1.2508  1.2528
    1MOL    H50   50   4.322   5.358   5.837  3.8313  1.3978 -0.5282
    1MOL    H51   51   4.035   5.653   6.048  2.4370  0.9524 -0.3485
    1MOL    H52   52   4.167   5.626   6.160  0.3241 -0.7938  0.0437
    1MOL    H53   53   4.001   5.658   6.218 -1.2138  0.2352 -0.7793
    1MOL    H54   54   3.922   5.511   5.944 -0.1195  0.4558  0.2881
    1MOL    H55   55   3.834   5.519   6.087  0.8582 -0.2772  1.3100
    1MOL    C56   56   3.227   5.495   6.424  0.0660 -0.4015 -0.0266
    1MOL    C57   57   3.317   5.523   6.297  0.1624  0.3243 -0.1957
    1MOL    C58   58   3.420   5.418   6.248  0.0964 -0.2736  0.3592
    1MOL    C59   59   3.542   5.406   6.343 -0.2143  1.0009  0.1557
    1MOL    C60   60   3.627   5.288   6.301 -0.0362 -0.0102 -0.3880
    1MOL    O61   61   3.684   5.327   6.178 -0.1169 -0.1526 -0.4637
    1MOL    C62   62   3.759   5.250   6.103 -0.0775 -0.1661  0.1945
    1MOL    O63   63   3.781   5.132   6.122 -0.0384  0.0687 -0.0580
    1MOL    C64   64   3.818   5.326   5.985  0.4965 -0.5797 -0.1601
    1MOL    C65   65   3.909   5.240   5.886 -0.8110 -0.2926 -0.0782
    1MOL    C66   66   3.698   5.392   5.901  0.2238 -0.5700 -0.3772
    1MOL    H67   67   3.147   5.423   6.409  0.6452 -0.7424 -1.6052
    1MOL    H68   68   3.189   5.593   6.453 -1.2741 -1.5761  2.2764
    1MOL    H69   69   3.288   5.455   6.505 -1.2301 -1.3806  0.4926
    1MOL    H70   70   3.250   5.537   6.212 -0.4225 -1.4487 -0.0579
    1MOL    H71   71   3.357   5.624   6.308  0.7075  0.4242 -2.7454
    1MOL    H72   72   3.372   5.321   6.259  0.2606 -0.1878  1.9385
    1MOL    H73   73   3.444   5.425   6.142 -2.3455 -2.8215 -0.4269
    1MOL    H74   74   3.520   5.377   6.445 -1.4211  1.5561  0.0610
    1MOL    H75   75   3.600   5.499   6.344  0.7170  0.4111  1.5534
    1MOL    H76   76   3.708   5.252   6.366  0.0420 -1.7210 -1.3796
    1MOL    H77   77   3.571   5.195   6.288  1.1756 -0.6137 -1.4625
    1MOL    H78   78   4.006   5.211   5.926 -1.1818 -0.1619  0.9280
    1MOL    H79   79   3.937   5.280   5.788 -3.5256  1.3874 -0.2295
    1MOL    H80   80   3.866   5.142   5.869 -1.2140 -0.2320  0.5624
    1MOL    H81   81   3.740   5.476   5.846  2.0580 -0.1673  1.5710
    1MOL    H82   82   3.643   5.456   5.970  3.0002 -0.5087  1.8653
    1MOL    C83   83   4.062   4.912   5.242  0.5908 -0.2822  0.0464
    1MOL    C84   84   3.957   4.953   5.354  0.0441  0.1010  0.1658
    1MOL    C85   85   3.972   5.096   5.393  0.4569 -0.1557  0.2573
    1MOL    C86   86   3.897   5.134   5.526  0.8998 -0.2143  0.4369
    1MOL    C87   87   3.749   5.145   5.502 -0.2677 -0.1452 -0.5720
    1MOL    O88   88   3.676   5.174   5.621  0.2381  0.2377 -0.1640
    1MOL    C89   89   3.675   5.297   5.671 -0.6668 -0.1296  0.1343
    1MOL    O90   90   3.728   5.395   5.615 -0.0883  0.5815  0.0636
    1MOL    C91   91   3.604   5.304   5.807 -0.7050 -0.5818 -0.0110
    1MOL    C92   92   3.576   5.161   5.876  0.1570  0.0729  0.5067
    1MOL    C93   93   3.471   5.381   5.783  0.2272 -0.6495 -0.2369
    1MOL    H94   94   4.165   4.928   5.274  0.4252 -1.6455  1.3338
    1MOL    H95   95   4.072   4.806   5.220  2.9098  0.5169 -3.2044
    1MOL    H96   96   4.038   4.975   5.157  0.9182  1.6008  1.3114
    1MOL    H97   97   3.961   4.885   5.439 -1.0601  1.0781  1.0231
    1MOL    H98   98   3.859   4.934   5.310 -0.0986  0.3043  0.3954
    1MOL    H99   99   3.958   5.166   5.310 -0.1453 -1.0030 -0.3684
    1MOL   H100  100   4.078   5.112   5.411  0.2738  2.7051 -0.9165
    1MOL   H101  101   3.933   5.231   5.561  0.6485 -0.1145  0.4185
    1MOL   H102  102   3.913   5.060   5.605 -0.9397  1.0874  2.0815
    1MOL   H103  103   3.716   5.051   5.457 -0.6959  0.0053 -0.5722
    1MOL   H104  104   3.722   5.218   5.426 -1.4329  1.1998  1.0879
    1MOL   H105  105   3.667   5.107   5.904  0.8807  0.6744 -0.6780
    1MOL   H106  106   3.538   5.088   5.804  1.3930 -1.3979  1.3147
    1MOL   H107  107   3.509   5.159   5.962 -1.1486 -4.7416 -0.4222
    1MOL   H108  108   3.421   5.370   5.879 -0.6811 -1.8509 -0.8376
    1MOL   H109  109   3.494   5.487   5.786 -1.3007 -0.3317  1.4582
    1MOL   C110  110   3.118   4.646   6.071 -0.1082  0.1979  0.1223
    1MOL   C111  111   3.189   4.783   6.050 -0.1031 -0.3451 -0.2826
    1MOL   C112  112   3.238   4.816   5.898  0.9172 -0.5187 -0.4709
    1MOL   C113  113   3.249   4.967   5.878  0.1162 -0.1508  0.2072
    1MOL   C114  114   3.274   5.011   5.737 -0.1351 -1.2409 -0.5566
    1MOL   O115  115   3.304   5.147   5.744  0.2145 -0.5718 -0.1690
    1MOL   C116  116   3.338   5.215   5.634 -0.2543 -0.2987 -0.3208
    1MOL   O117  117   3.363   5.168   5.521 -0.5012  0.0872 -0.2698
    1MOL   C118  118   3.365   5.367   5.664  1.0891  0.0865  0.3400
    1MOL   C119  119   3.421   5.437   5.537 -0.7800 -0.5225  0.5164
    1MOL   C120  120   3.232   5.439   5.716 -0.3848 -0.7676  0.2040
    1MOL   H121  121   3.064   4.649   6.166  0.5916  0.4434  0.5122
    1MOL   H122  122   3.039   4.638   5.997 -2.9027  1.3654  2.8595
    1MOL   H123  123   3.179   4.556   6.075 -1.8173 -0.9376  1.7941
    1MOL   H124  124   3.135   4.872   6.083  0.3014 -0.5963  1.0904
    1MOL   H125  125   3.281   4.792   6.108 -0.2820 -1.1791  0.1409
    1MOL   H126  126   3.327   4.760   5.869  2.3737  1.7206 -0.5261
    1MOL   H127  127   3.157   4.783   5.832 -0.0447  1.0681 -0.1074
    1MOL   H128  128   3.324   5.005   5.948  1.6941 -2.3700 -0.2093
    1MOL   H129  129   3.154   5.007   5.914 -1.5094 -1.2761 -2.6637
    1MOL   H130  130   3.365   4.964   5.699  1.6578  0.9790  0.9057
    1MOL   H131  131   3.184   4.990   5.679 -0.6823 -1.3921  0.3351
    1MOL   H132  132   3.440   5.544   5.550  1.8217 -0.7330 -1.1281
    1MOL   H133  133   3.511   5.391   5.495  0.6596  2.1615  0.5091
    1MOL   H134  134   3.350   5.443   5.455  1.1062 -0.9906 -1.2055
    1MOL   H135  135   3.193   5.383   5.801 -0.7089 -0.6543  0.1317
    1MOL   H136  136   3.273   5.528   5.766  0.4177 -0.2424 -1.3527
    1MOL   C137  137   3.297   6.198   5.699  0.6108  0.0418 -0.1429
    1MOL   C138  138   3.192   6.098   5.757 -0.4855 -0.5986  0.0179
    1MOL   C139  139   3.173   5.988   5.645  0.1110 -0.6034  0.5306
    1MOL   C140  140   3.302   5.913   5.600  0.3862 -0.2574  0.0073
    1MOL   C141  141   3.268   5.782   5.514 -0.4372  0.3564  0.3111
    1MOL   O142  142   3.196   5.689   5.589 -0.1109 -0.2951 -0.3960
    1MOL   C143  143   3.142   5.584   5.529  0.4367 -0.7509  0.2992
    1MOL   O144  144   3.135   5.560   5.413  0.1594 -0.0532  0.0746
    1MOL   C145  145   3.098   5.479   5.629  0.1652  0.0373 -0.3237
    1MOL   C146  146   3.053   5.347   5.568  0.1632 -0.4288 -0.1208
    1MOL   C147  147   2.997   5.531   5.730 -0.3354  0.7358  0.3830
    1MOL   H148  148   3.319   6.285   5.761  1.7482 -1.2348  1.2686
    1MOL   H149  149   3.262   6.230   5.601 -0.5066  2.8117  1.1028
    1MOL   H150  150   3.398   6.155   5.695  2.4962  3.6280  4.6001
    1MOL   H151  151   3.097   6.146   5.781  0.6997  0.3330  3.1035
    1MOL   H152  152   3.230   6.063   5.853 -0.2828  0.1002  0.1981
    1MOL   H153  153   3.102   5.913   5.681 -0.0071 -0.0473  1.4668
    1MOL   H154  154   3.131   6.028   5.553  1.0545 -1.6584 -0.3786
    1MOL   H155  155   3.364   5.982   5.543 -1.1730  0.4097 -0.9196
    1MOL   H156  156   3.358   5.888   5.691  0.5463  0.0935  0.0053
    1MOL   H157  157   3.359   5.731   5.482 -0.0834  1.5342 -0.6017
    1MOL   H158  158   3.199   5.810   5.435 -0.4692  2.1806  0.9502
    1MOL   H159  159   3.127   5.308   5.498  0.8614  0.1904  0.2719
    1MOL   H160  160   2.959   5.359   5.513  0.1789  2.4627  0.4159
    1MOL   H161  161   3.037   5.265   5.638 -0.2122  0.1287  0.4504
    1MOL   H162  162   2.999   5.465   5.816  3.7378  0.0724 -0.1373
    1MOL   H163  163   3.042   5.626   5.755  3.5821 -0.8592 -0.1939
    1MOL   C164  164   2.035   5.523   5.675  0.1767  0.4071  0.2122
    1MOL   C165  165   2.160   5.513   5.575  0.3931 -0.2065 -0.0777
    1MOL   C166  166   2.287   5.469   5.650 -0.3480  0.4571 -0.0734
    1MOL   C167  167   2.405   5.458   5.550 -0.3846  0.2383 -0.5425
    1MOL   C168  168   2.525   5.378   5.611 -0.1385  0.8412 -0.4034
    1MOL   O169  169   2.632   5.470   5.630 -0.2631 -0.4129 -0.0972
    1MOL   C170  170   2.753   5.437   5.681 -0.4947 -0.0178  0.3637
    1MOL   O171  171   2.774   5.325   5.729 -0.0274  0.3370  0.3672
    1MOL   C172  172   2.849   5.560   5.692  0.1698 -0.8144 -0.0195
    1MOL   C173  173   2.840   5.636   5.556  0.0458 -0.5218 -0.3978
    1MOL   C174  174   2.785   5.669   5.797 -0.7134  0.1649 -0.2012
    1MOL   H175  175   1.935   5.529   5.631  0.4646  0.6025 -0.4221
    1MOL   H176  176   2.039   5.596   5.756  0.4749 -0.8816  1.3666
    1MOL   H177  177   2.050   5.426   5.722  2.5889  0.2250 -0.8628
    1MOL   H178  178   2.183   5.610   5.533  0.1524 -0.2948 -0.4135
    1MOL   H179  179   2.136   5.445   5.493 -1.5950 -0.0728  0.3628
    1MOL   H180  180   2.316   5.523   5.740  0.1433  0.1927 -0.0754
    1MOL   H181  181   2.266   5.369   5.688  1.5597 -1.3960 -3.6117
    1MOL   H182  182   2.431   5.561   5.523 -1.2112  0.5118 -0.3201
    1MOL   H183  183   2.380   5.406   5.457 -2.2107  1.4364 -0.7533
    1MOL   H184  184   2.563   5.312   5.532  0.2633 -2.0438  2.1102
    1MOL   H185  185   2.503   5.315   5.697  1.4098  0.4836 -0.2553
    1MOL   H186  186   2.875   5.573   5.474  0.1149 -2.1988  0.8828
    1MOL   H187  187   2.906   5.722   5.562 -0.2222 -0.3578  0.2309
    1MOL   H188  188   2.742   5.675   5.528  0.0318  0.0812  0.4942
    1MOL   H189  189   2.822   5.767   5.768  1.3024 -0.0431  1.6063
    1MOL   H190  190   2.680   5.681   5.768 -0.7683 -0.9635 -0.4914
    1MOL   C191  191   3.597   5.814   6.007 -0.0700 -0.3732 -0.6278
    1MOL   C192  192   3.477   5.740   5.964  1.1006 -0.1640  0.3547
    1MOL   C193  193   3.352   5.805   6.028 -0.2336 -0.1494  0.4069
    1MOL   C194  194   3.224   5.747   5.964  0.8741  0.6491 -0.4929
    1MOL   C195  195   3.106   5.813   6.038  0.4122  0.2066  0.1460
    1MOL   O196  196   2.981   5.782   5.970  0.4134 -0.3683  0.1497
    1MOL   C197  197   2.917   5.665   6.003  0.4770  0.6564 -0.5871
    1MOL   O198  198   2.969   5.576   6.067 -0.5407 -0.0225  0.0630
    1MOL   C199  199   2.772   5.652   5.951 -0.1112 -0.3366 -0.4300
    1MOL   C200  200   2.713   5.514   5.997  0.3132  0.2531 -0.5145
    1MOL   C201  201   2.687   5.783   6.007 -0.1093 -0.3024  0.2372
    1MOL   H202  202   3.586   5.922   5.999 -3.5848 -0.6675 -0.7382
    1MOL   H203  203   3.616   5.794   6.112 -0.0145  1.3540 -0.2972
    1MOL   H204  204   3.677   5.787   5.938  0.3590  0.2771 -0.3868
    1MOL   H205  205   3.483   5.632   5.978 -0.8015 -0.5449 -1.5342
    1MOL   H206  206   3.474   5.759   5.857  0.2055 -1.5920  0.1202
    1MOL   H207  207   3.356   5.910   5.997  0.5236 -0.1061  0.6561
    1MOL   H208  208   3.350   5.800   6.137 -0.5188 -0.1120  0.4038
    1MOL   H209  209   3.223   5.767   5.857  1.4682  1.8847 -0.2831
    1MOL   H210  210   3.226   5.641   5.989 -0.3884  0.2519 -2.0247
    1MOL   H211  211   3.111   5.792   6.145 -0.1773  0.7279  0.2762
    1MOL   H212  212   3.113   5.921   6.024 -0.4071  0.1991 -0.3006
    1MOL   H213  213   2.782   5.431   5.981  0.8007  0.7870 -1.1760
    1MOL   H214  214   2.627   5.473   5.946  0.1868  0.4458 -0.4560
    1MOL   H215  215   2.682   5.511   6.102  0.0986  1.5177 -0.5420
    1MOL   H216  216   2.713   5.859   5.933  0.5086  0.4989  1.2758
    1MOL   H217  217   2.731   5.826   6.097 -1.4305 -0.8605  1.1662
    1MOL   C218  218   1.922   5.403   6.034  0.4382 -1.0091  0.2956
    1MOL   C219  219   2.064   5.332   6.049  0.0431 -0.6580  0.7061
    1MOL   C220  220   2.179   5.443   6.056  0.5341  0.0970  0.5898
    1MOL   C221  221   2.208   5.478   6.208 -0.6032 -0.4260 -0.2078
    1MOL   C222  222   2.342   5.542   6.240  0.2647  0.0611  0.3813
    1MOL   O223  223   2.366   5.647   6.149 -0.6334 -0.4464 -0.0384
    1MOL   C224  224   2.492   5.705   6.156  0.3399  0.1223  0.9885
    1MOL   O225  225   2.573   5.691   6.246  0.1948  0.0561 -0.0294
    1MOL   C226  226   2.527   5.788   6.031 -0.3353  0.2021 -0.1542
    1MOL   C227  227   2.454   5.725   5.904  1.0320  0.1635 -0.1846
    1MOL   C228  228   2.463   5.930   6.035  0.0962  0.5431 -0.0342
    1MOL   H229  229   1.902   5.448   6.131  1.2990 -0.0332  0.0346
    1MOL   H230  230   1.917   5.484   5.960  0.4775  0.1621  1.5635
    1MOL   H231  231   1.846   5.328   6.013  0.0892 -0.3655 -0.8255
    1MOL   H232  232   2.074   5.262   5.965 -1.0316 -1.2642  1.0771
    1MOL   H233  233   2.059   5.268   6.137 -0.2869 -0.2794  0.9614
    1MOL   H234  234   2.161   5.533   5.998  1.7360  0.3352  0.5867
    1MOL   H235  235   2.266   5.395   6.011  0.2410 -0.0929  0.2232
    1MOL   H236  236   2.139   5.552   6.249  2.0086  2.2425 -0.4971
    1MOL   H237  237   2.196   5.391   6.272  0.7785  0.2468  0.9812
    1MOL   H238  238   2.421   5.470   6.222  1.4692  1.0490  1.5816
    1MOL   H239  239   2.340   5.578   6.343  2.5060  2.2369 -0.2723
    1MOL   H240  240   2.500   5.763   5.812  0.2633  1.8198  0.0819
    1MOL   H241  241   2.349   5.756   5.898  1.1676  0.5710 -0.5421
    1MOL   H242  242   2.461   5.617   5.916  0.1813  0.0172 -0.9481
    1MOL   H243  243   2.366   5.928   6.083  1.6476 -0.4718  3.2107
    1MOL   H244  244   2.438   5.967   5.936  1.0259 -0.6817 -0.7432
    1MOL   C245  245   2.936   6.395   5.449 -0.0160  0.9196  0.6650
    1MOL   C246  246   2.821   6.311   5.506 -0.5563  0.2834  0.0072
    1MOL   C247  247   2.874   6.253   5.639 -0.2717  0.3741 -0.4387
    1MOL   C248  248   2.769   6.177   5.719 -0.7202  0.3681 -0.0930
    1MOL   C249  249   2.791   6.168   5.866  0.0222  0.3367 -0.0423
    1MOL   O250  250   2.677   6.111   5.915 -0.3596  0.6606  0.0806
    1MOL   C251  251   2.673   6.089   6.052 -0.2465  0.1555 -0.1674
    1MOL   O252  252   2.768   6.103   6.132 -0.0416 -0.1256  0.0488
    1MOL   C253  253   2.531   6.053   6.107  0.0060 -0.0026  0.1569
    1MOL   C254  254   2.542   6.015   6.258  0.1173 -0.1354 -0.0663
    1MOL   C255  255   2.440   6.177   6.091 -0.1934 -0.3153 -0.8397
    1MOL   H256  256   2.910   6.438   5.352  2.6722  1.6166  0.2069
    1MOL   H257  257   2.947   6.481   5.515  3.0073  2.0775 -1.2154
    1MOL   H258  258   3.030   6.340   5.449  0.6536  1.9692 -1.6005
    1MOL   H259  259   2.732   6.373   5.515  0.9695  2.7927 -1.4527
    1MOL   H260  260   2.795   6.226   5.442  1.2194  0.6771 -1.2711
    1MOL   H261  261   2.915   6.334   5.699  1.1767  0.9491 -2.1940
    1MOL   H262  262   2.959   6.190   5.615  1.3530  1.7112  1.6733
    1MOL   H263  263   2.671   6.225   5.707  0.4718  2.6708 -0.9677
    1MOL   H264  264   2.761   6.079   5.672 -1.7093  0.4246 -0.0544
    1MOL   H265  265   2.873   6.109   5.906 -2.0667 -2.5550  0.0713
    1MOL   H266  266   2.811   6.268   5.905 -0.0410  0.0110  0.8181
    1MOL   H267  267   2.574   6.093   6.327 -0.7218 -0.2492  0.4558
    1MOL   H268  268   2.449   5.971   6.295 -0.5263  0.7785 -0.5834
    1MOL   H269  269   2.621   5.940   6.259 -0.0060 -0.2894 -1.3021
    1MOL   H270  270   2.456   6.215   5.990  3.6733  2.1468  0.5551
    1MOL   H271  271   2.337   6.144   6.084 -0.5034  0.8892 -2.2260
    1MOL   C272  272   2.075   5.889   6.009  0.5541 -0.4693 -0.2710
    1MOL   C273  273   1.990   5.949   6.121  0.0201  0.1854  0.3529
    1MOL   C274  274   2.071   5.953   6.250 -0.2097 -0.4049  0.9062
    1MOL   C275  275   2.041   6.078   6.340  0.7405 -0.0197  0.4104
    1MOL   C276  276   2.172   6.128   6.411  0.2092  0.7003  0.0325
    1MOL   O277  277   2.254   6.171   6.309  0.3952  0.0145 -0.0825
    1MOL   C278  278   2.358   6.246   6.331 -0.3541 -0.4462  0.2884
    1MOL   O279  279   2.405   6.278   6.440  0.1679  1.0187  0.0653
    1MOL   C280  280   2.420   6.299   6.201  0.2728  0.1960 -0.4679
    1MOL   C281  281   2.561   6.357   6.228 -0.3172 -0.2369 -0.0385
    1MOL   C282  282   2.330   6.408   6.131  0.2151 -0.3973 -0.5556
    1MOL   H283  283   2.138   5.971   5.976  0.4736  0.1725  1.1202
    1MOL   H284  284   2.140   5.808   6.041 -1.8173 -2.1207  0.5327
    1MOL   H285  285   2.016   5.859   5.922  0.8163  1.7583 -1.2518
    1MOL   H286  286   1.975   6.053   6.093  2.7143  0.1468 -1.4396
    1MOL   H287  287   1.895   5.900   6.137  0.5213 -1.3567 -1.2803
    1MOL   H288  288   2.068   5.859   6.305 -0.0547 -0.1258  1.4025
    1MOL   H289  289   2.173   5.968   6.215 -1.2269  3.3311 -0.7048
    1MOL   H290  290   1.993   6.161   6.288  0.6397 -1.0842 -1.2268
    1MOL   H291  291   1.962   6.041   6.406  0.6413 -0.9214 -0.1964
    1MOL   H292  292   2.220   6.049   6.468  0.2759  0.2622 -0.6323
    1MOL   H293  293   2.157   6.212   6.479 -2.7135  0.5595 -0.3625
    1MOL   H294  294   2.628   6.290   6.282 -1.0038 -1.0346 -0.1610
    1MOL   H295  295   2.592   6.390   6.129 -1.8208  0.6208 -0.2443
    1MOL   H296  296   2.556   6.450   6.286 -0.5106 -0.7070  0.6984
    1MOL   H297  297   2.392   6.449   6.051  0.4469  1.4937  0.5488
    1MOL   H298  298   2.247   6.365   6.075  0.3186  0.1681 -1.1499
    1MOL   C299  299   2.255   6.975   6.059  0.0098  0.4917  0.1744
    1MOL   C300  300   2.403   6.992   6.043  0.3981 -0.2100  0.6887
    1MOL   C301  301   2.484   7.020   6.177  0.5989  0.2081  0.2510
    1MOL   C302  302   2.481   6.909   6.284 -0.3205  0.1238  0.0477
    1MOL   C303  303   2.543   6.768   6.256 -0.1949 -0.0502 -0.1397
    1MOL   O304  304   2.441   6.683   6.196 -0.1906 -0.3261 -0.7774
    1MOL   C305  305   2.355   6.613   6.277 -0.1182  0.0077 -0.4479
    1MOL   O306  306   2.352   6.620   6.402 -0.5970  0.4438  0.6637
    1MOL   C307  307   2.253   6.525   6.201 -0.0403  0.3614 -0.1125
    1MOL   C308  308   2.191   6.608   6.084 -0.1368 -0.2712  0.5124
    1MOL   C309  309   2.124   6.475   6.291  0.5724 -0.1130 -0.4384
    1MOL   H310  310   2.215   7.074   6.079 -0.9389  0.1083  0.2317
    1MOL   H311  311   2.214   6.917   6.142 -0.1286  0.8800  0.3773
    1MOL   H312  312   2.206   6.939   5.968 -0.1674  0.4482  0.2869
    1MOL   H313  313   2.427   7.074   5.976  0.2315  0.2893  1.2326
    1MOL   H314  314   2.453   6.902   6.006  0.5382  0.6319 -1.2144
    1MOL   H315  315   2.450   7.112   6.226 -0.0377 -0.0016  0.2075
    1MOL   H316  316   2.586   7.037   6.143  0.2696 -0.0193 -0.8828
    1MOL   H317  317   2.385   6.902   6.335  0.3691 -1.5940  1.1566
    1MOL   H318  318   2.548   6.955   6.356  2.3798  0.4015 -2.5076
    1MOL   H319  319   2.620   6.779   6.179  1.0054 -2.1127  0.7346
    1MOL   H320  320   2.590   6.720   6.342  1.3888 -0.3175 -1.1336
    1MOL   H321  321   2.104   6.563   6.037  0.4553  0.6203 -1.4872
    1MOL   H322  322   2.165   6.712   6.102 -0.0338  0.1196 -1.4863
    1MOL   H323  323   2.264   6.626   6.005 -0.3878 -1.9377 -0.1355
    1MOL   H324  324   2.180   6.427   6.372  1.2585  0.3285 -0.6494
    1MOL   H325  325   2.075   6.398   6.232  1.0888 -1.4128  0.7957
    1MOL   C326  326   2.330   6.873   7.004  0.5206 -0.7938  0.0033
    1MOL   C327  327   2.417   6.882   6.880 -0.3416  0.6323  0.1284
    1MOL   C328  328   2.350   6.913   6.745  0.1053  0.1548 -0.3249
    1MOL   C329  329   2.273   6.795   6.680  0.1284  0.1691 -0.7664
    1MOL   C330  330   2.176   6.840   6.572  0.5854 -0.3763 -0.3836
    1MOL   O331  331   2.113   6.727   6.526 -0.2233 -0.1260  0.3869
    1MOL   C332  332   2.068   6.717   6.399 -0.3963 -0.3785  0.1593
    1MOL   O333  333   2.054   6.809   6.317  0.2640  0.0442 -0.2910
    1MOL   C334  334   2.013   6.572   6.354 -0.0599 -0.4690  0.2063
    1MOL   C335  335   1.895   6.594   6.255 -0.5552  0.0456 -0.4051
    1MOL   C336  336   1.959   6.492   6.484 -0.1881  0.9848 -0.0573
    1MOL   H337  337   2.389   6.829   7.084 -1.1049 -0.9004  1.1679
    1MOL   H338  338   2.237   6.819   6.983  0.5992 -1.1453  0.5395
    1MOL   H339  339   2.304   6.974   7.037  0.3313 -1.2214  1.1909
    1MOL   H340  340   2.468   6.787   6.864 -1.1052 -0.0635  1.6447
    1MOL   H341  341   2.498   6.953   6.898  0.1027  0.3712 -0.8278
    1MOL   H342  342   2.426   6.946   6.674 -1.2603  0.8669 -1.5050
    1MOL   H343  343   2.284   6.999   6.760 -0.9775  0.0301 -3.9305
    1MOL   H344  344   2.210   6.734   6.745 -0.5500  1.8805  0.2360
    1MOL   H345  345   2.349   6.725   6.645  0.4082 -0.5018  1.1074
    1MOL   H346  346   2.224   6.890   6.488 -0.8940  0.9816 -0.4606
    1MOL   H347  347   2.105   6.915   6.607  0.0371 -1.1668  0.2205
    1MOL   H348  348   1.815   6.663   6.281 -0.2810 -0.3793  1.6766
    1MOL   H349  349   1.856   6.496   6.228 -0.7370  0.4785 -1.7175
    1MOL   H350  350   1.942   6.637   6.167  0.2206  0.1823  0.0756
    1MOL   H351  351   2.039   6.494   6.557 -0.9579 -0.1792  0.8518
    1MOL   H352  352   1.963   6.388   6.451  0.0679  1.3932 -1.3383
    1MOL   C353  353   1.144   6.104   6.296  0.0326 -0.0922  0.3783
    1MOL   C354  354   1.234   6.178   6.399 -0.0131 -0.2017 -0.5753
    1MOL   C355  355   1.371   6.207   6.327 -0.0080  0.2152 -0.4054
    1MOL   C356  356   1.474   6.273   6.425  0.7488 -0.3615  0.1216
    1MOL   C357  357   1.611   6.315   6.360  0.1599  0.0314  0.3097
    1MOL   O358  358   1.699   6.367   6.448 -0.2334 -0.3391 -0.3458
    1MOL   C359  359   1.705   6.493   6.480  0.0699 -0.2958 -0.5260
    1MOL   O360  360   1.617   6.574   6.447  0.3870  0.5055 -0.2591
    1MOL   C361  361   1.827   6.530   6.560 -0.3270 -0.2345  0.5576
    1MOL   C362  362   1.822   6.686   6.575 -0.7131 -0.1338 -0.6735
    1MOL   C363  363   1.828   6.453   6.697  0.5935 -0.7261  0.2826
    1MOL   H364  364   1.117   6.156   6.204 -4.2350 -0.8740  1.1094
    1MOL   H365  365   1.047   6.094   6.346 -1.0310 -2.1979 -2.0019
    1MOL   H366  366   1.184   6.006   6.271  0.9980  0.7492 -1.4522
    1MOL   H367  367   1.178   6.266   6.432  0.6464 -0.6818  1.9155
    1MOL   H368  368   1.244   6.110   6.484 -0.5097  0.0476 -0.3167
    1MOL   H369  369   1.359   6.270   6.239  1.2570 -0.1300 -0.8408
    1MOL   H370  370   1.407   6.110   6.293 -0.0226 -0.6718  1.9490
    1MOL   H371  371   1.487   6.212   6.514  0.2863 -1.6777 -0.6980
    1MOL   H372  372   1.429   6.361   6.471  4.0190  0.2601  2.3571
    1MOL   H373  373   1.650   6.226   6.310 -1.2996 -0.4102 -0.0571
    1MOL   H374  374   1.587   6.389   6.284  0.5797  1.4414  1.5269
    1MOL   H375  375   1.914   6.711   6.627 -0.3196 -1.4057 -0.7607
    1MOL   H376  376   1.824   6.745   6.483  0.5737 -1.0344 -1.2335
    1MOL   H377  377   1.747   6.722   6.645 -1.5673 -2.5182 -0.3243
    1MOL   H378  378   1.821   6.348   6.667 -0.0684 -0.8698  0.9408
    1MOL   H379  379   1.928   6.476   6.735  1.3562  0.0515 -2.0983
    1MOL   C380  380   1.978   7.279   6.877  0.2711  0.2454  0.2281
    1MOL   C381  381   2.022   7.134   6.873 -0.2771 -0.2799  0.1048
    1MOL   C382  382   1.899   7.039   6.902  0.4158 -0.4774  0.0750
    1MOL   C383  383   1.917   6.893   6.869  0.2952  0.3872 -0.1978
    1MOL   C384  384   1.778   6.824   6.893  0.2396  0.0280 -0.5429
    1MOL   O385  385   1.796   6.682   6.884  0.1741 -0.7468 -0.3878
    1MOL   C386  386   1.696   6.602   6.866  0.0640 -0.0179  0.2110
    1MOL   O387  387   1.584   6.636   6.886  0.1509 -0.0305 -0.3764
    1MOL   C388  388   1.730   6.458   6.818  0.1262 -0.4020  0.7853
    1MOL   C389  389   1.595   6.395   6.795  0.0918  0.0205 -0.6395
    1MOL   C390  390   1.789   6.393   6.944  0.4955 -0.7954  0.5801
    1MOL   H391  391   2.060   7.350   6.865  0.4247 -0.0640 -0.5340
    1MOL   H392  392   1.903   7.303   6.802  1.7418 -1.2139 -1.7523
    1MOL   H393  393   1.926   7.317   6.965 -0.6541  0.9068 -0.5933
    1MOL   H394  394   2.104   7.126   6.945  0.0948 -0.0616 -0.2946
    1MOL   H395  395   2.062   7.114   6.774 -0.5121  1.6069 -0.3886
    1MOL   H396  396   1.880   7.054   7.009  0.6682  1.1324 -0.0864
    1MOL   H397  397   1.804   7.069   6.858 -0.9114 -2.1926  1.6733
    1MOL   H398  398   1.942   6.887   6.763 -1.8574 -3.1999 -0.6019
    1MOL   H399  399   2.002   6.851   6.922  1.0557  1.9219 -0.1744
    1MOL   H400  400   1.704   6.851   6.819  2.4035  0.7351 -2.5093
    1MOL   H401  401   1.737   6.853   6.990 -0.0764 -1.8342 -0.0997
    1MOL   H402  402   1.540   6.371   6.887  1.0996 -0.3670 -0.1394
    1MOL   H403  403   1.599   6.304   6.735 -0.7953 -0.5271  0.1168
    1MOL   H404  404   1.522   6.458   6.744  1.3512  0.8020 -1.5101
    1MOL   H405  405   1.717   6.391   7.026 -1.2872  0.2933 -0.9181
    1MOL   H406  406   1.871   6.459   6.973  0.1145 -0.2269  0.3919
    1MOL   C407  407   2.593   6.396   6.682  0.2090  0.2902 -0.1538
    1MOL   C408  408   2.449   6.439   6.698  0.8108  0.4139 -0.4603
    1MOL   C409  409   2.419   6.463   6.846  0.5906 -0.1807 -0.0100
    1MOL   C410  410   2.268   6.459   6.884  0.0174 -0.2602  0.0931
    1MOL   C411  411   2.214   6.317   6.890 -0.2096  0.5832 -0.4224
    1MOL   O412  412   2.083   6.315   6.929  0.6437 -0.1386  0.0305
    1MOL   C413  413   1.984   6.235   6.876  0.0861  0.0518 -0.0327
    1MOL   O414  414   1.998   6.164   6.775  0.4591 -0.4996  0.0940
    1MOL   C415  415   1.852   6.247   6.959 -0.1872 -0.4862 -0.1915
    1MOL   C416  416   1.878   6.239   7.112  0.3614 -0.2339  0.2301
    1MOL   C417  417   1.747   6.142   6.903 -0.4941 -0.1107 -0.1648
    1MOL   H418  418   2.621   6.390   6.577 -1.4005 -2.5508 -0.4699
    1MOL   H419  419   2.656   6.470   6.732  0.6076  0.8960 -1.5242
    1MOL   H420  420   2.599   6.295   6.722  0.7455 -0.3141 -1.7208
    1MOL   H421  421   2.373   6.377   6.651  1.0015 -0.8432  0.8795
    1MOL   H422  422   2.449   6.534   6.643 -0.2903  0.2780 -0.7100
    1MOL   H423  423   2.468   6.387   6.907  0.5782 -0.2582 -0.0977
    1MOL   H424  424   2.468   6.546   6.897 -1.9419  0.1729  1.9518
    1MOL   H425  425   2.209   6.514   6.811  1.2240 -0.4138 -1.0220
    1MOL   H426  426   2.255   6.495   6.986  0.0845  0.3122 -0.0992
    1MOL   H427  427   2.211   6.264   6.795  2.6286 -0.5643  0.0511
    1MOL   H428  428   2.280   6.247   6.942 -0.3572 -1.2899 -2.6873
    1MOL   H429  429   1.945   6.157   7.135  1.3147  1.1866  2.6024
    1MOL   H430  430   1.784   6.229   7.165  0.2013  0.6742  0.1349
    1MOL   H431  431   1.921   6.327   7.159 -1.2037 -0.6430  2.4846
    1MOL   H432  432   1.735   6.166   6.797  0.6651 -2.3931 -0.8382
    1MOL   H433  433   1.643   6.164   6.926 -1.1590 -0.5806 -2.5685
    1MOL   C434  434   1.884   5.821   7.782 -0.2956 -0.1278  0.1489
    1MOL   C435  435   1.916   5.826   7.630  0.8667 -0.1102  0.6382
    1MOL   C436  436   1.799   5.866   7.543 -0.3774 -0.4307 -0.0081
    1MOL   C437  437   1.831   5.866   7.395  0.6013 -0.3844 -0.3722
    1MOL   C438  438   1.737   5.957   7.311 -0.1787  0.0422  0.8020
    1MOL   O439  439   1.779   5.971   7.175  0.3775 -0.2513  0.5265
    1MOL   C440  440   1.686   5.960   7.072  0.0860 -0.2006  0.8089
    1MOL   O441  441   1.567   5.942   7.092 -0.2231 -0.8600  0.0622
    1MOL   C442  442   1.754   5.986   6.930 -0.3622  0.1260 -0.6026
    1MOL   C443  443   1.901   5.924   6.925  0.1977  0.2468  0.5704
    1MOL   C444  444   1.650   5.905   6.832 -0.6233 -0.6670 -0.5000
    1MOL   H445  445   1.806   5.745   7.794 -2.2449  1.5198 -1.5966
    1MOL   H446  446   1.967   5.781   0.026  1.7606 -0.2895 -2.7696
    1MOL   H447  447   1.849   5.917   0.006 -1.4550 -0.2863 -0.4894
    1MOL   H448  448   1.998   5.898   7.622  0.2801  0.5684  0.7400
    1MOL   H449  449   1.950   5.732   7.586  1.9193 -0.0027  1.1888
    1MOL   H450  450   1.706   5.820   7.577 -1.3505  2.5283  1.5533
    1MOL   H451  451   1.792   5.971   7.575  2.5978 -0.2298  0.1165
    1MOL   H452  452   1.805   5.768   7.352 -1.2311 -0.4451  0.8147
    1MOL   H453  453   1.936   5.880   7.372 -0.1278  0.9649 -3.0456
    1MOL   H454  454   1.725   6.055   7.357 -1.9047  0.8282 -1.2493
    1MOL   H455  455   1.636   5.915   7.316 -0.7462  1.4187  1.0564
    1MOL   H456  456   1.949   5.929   6.827 -1.5648  0.8493 -0.2827
    1MOL   H457  457   1.971   5.963   6.999 -1.9360  1.8333  1.8201
    1MOL   H458  458   1.898   5.820   6.958 -0.8840  0.9160  2.6830
    1MOL   H459  459   1.557   5.960   6.822 -1.8146 -2.5055  0.1249
    1MOL   H460  460   1.631   5.805   6.873  0.5646 -0.1619  1.3125
    1MOL   C461  461   2.330   5.923   6.747 -0.5233  0.5720 -0.0864
    1MOL   C462  462   2.226   5.797   6.734 -0.2467  0.1259 -0.6196
    1MOL   C463  463   2.149   5.780   6.604 -0.1640  0.1281  0.3045
    1MOL   C464  464   2.065   5.653   6.618 -0.0783 -0.2429  0.3719
    1MOL   C465  465   1.938   5.650   6.525 -0.1734 -0.1046 -0.5267
    1MOL   O466  466   1.847   5.757   6.560 -0.0389 -0.7767  0.3730
    1MOL   C467  467   1.779   5.763   6.677 -0.6076  0.1513  0.1730
    1MOL   O468  468   1.782   5.676   6.764 -0.1629 -0.4428 -0.0042
    1MOL   C469  469   1.679   5.879   6.673  0.0617  0.2208 -0.2616
    1MOL   C470  470   1.739   6.000   6.603 -0.0551  0.4994 -0.5848
    1MOL   C471  471   1.536   5.843   6.614 -0.0099  0.3173  0.6258
    1MOL   H472  472   2.281   6.018   6.725 -0.4397  1.1007  1.9374
    1MOL   H473  473   2.428   5.910   6.701 -0.7769  1.2969 -0.8610
    1MOL   H474  474   2.356   5.925   6.853 -0.3032 -0.0276 -0.1294
    1MOL   H475  475   2.161   5.809   6.820 -1.0184  1.4242 -1.3613
    1MOL   H476  476   2.290   5.710   6.749 -1.5564 -0.5584  1.0721
    1MOL   H477  477   2.212   5.761   6.517  0.6820 -0.5954  1.0666
    1MOL   H478  478   2.085   5.867   6.588 -0.0429  0.3032  0.7544
    1MOL   H479  479   2.037   5.645   6.723  0.8503 -0.0287  0.6434
    1MOL   H480  480   2.132   5.569   6.599 -2.2806 -2.1509  0.7403
    1MOL   H481  481   1.968   5.668   6.422  2.2053 -1.3218 -0.0771
    1MOL   H482  482   1.896   5.550   6.522  0.2465 -0.2474 -2.1527
    1MOL   H483  483   1.831   6.036   6.648 -0.0441 -0.6271  0.3467
    1MOL   H484  484   1.679   6.090   6.601  0.4151  0.8408  0.5989
    1MOL   H485  485   1.783   5.971   6.507 -0.6627  1.6547 -1.2223
    1MOL   H486  486   1.491   5.941   6.596 -1.3262 -0.1136  1.4772
    1MOL   H487  487   1.484   5.787   6.691 -0.1517  0.5995  0.7375
    1MOL   C488  488   1.791   5.041   6.260 -0.3931  0.1028  0.3643
    1MOL   C489  489   1.705   5.128   6.353  0.4898  0.7603  0.1395
    1MOL   C490  490   1.586   5.199   6.275  0.0695  0.1999 -0.0253
    1MOL   C491  491   1.534   5.334   6.346  0.5562  0.1478 -0.0063
    1MOL   C492  492   1.639   5.446   6.356  0.5084  0.1475 -0.9131
    1MOL   O493  493   1.578   5.574   6.360  0.1398 -0.1280  0.4310
    1MOL   C494  494   1.544   5.625   6.478 -0.2595  0.3540 -0.1692
    1MOL   O495  495   1.544   5.567   6.584 -0.0845 -0.3685  0.1798
    1MOL   C496  496   1.517   5.775   6.472  0.8846 -0.0472 -0.2522
    1MOL   C497  497   1.599   5.856   6.370  0.0668  0.0404 -0.4675
    1MOL   C498  498   1.361   5.791   6.425 -0.3011 -0.4178 -0.4151
    1MOL   H499  499   1.832   5.085   6.169 -0.4307 -0.0617  0.2672
    1MOL   H500  500   1.885   5.002   6.299  0.6728  1.6929 -0.5367
    1MOL   H501  501   1.719   4.973   6.214 -0.3232 -1.5555  2.6340
    1MOL   H502  502   1.775   5.200   6.396  1.3500 -0.5148  0.8768
    1MOL   H503  503   1.665   5.060   6.427 -0.8370  0.4394 -0.8471
    1MOL   H504  504   1.621   5.221   6.174  1.0024  0.8614  0.4432
    1MOL   H505  505   1.500   5.133   6.265  0.1090  0.3179 -1.1945
    1MOL   H506  506   1.505   5.296   6.444  1.8036 -3.5780 -0.9874
    1MOL   H507  507   1.443   5.360   6.294  0.8277  1.5549  0.2194
    1MOL   H508  508   1.723   5.427   6.423 -0.8891 -2.4230  0.1848
    1MOL   H509  509   1.696   5.436   6.264  2.7991  1.2986  0.3269
    1MOL   H510  510   1.705   5.828   6.375 -0.5402 -2.1215  1.1721
    1MOL   H511  511   1.566   5.959   6.385 -2.0913 -0.7535  0.4273
    1MOL   H512  512   1.571   5.838   6.267 -1.0693 -0.2097 -0.1220
    1MOL   H513  513   1.346   5.760   6.322 -3.3472 -1.5604  0.3276
    1MOL   H514  514   1.346   5.899   6.427 -1.7244 -0.6256  1.0699
    1MOL   C515  515   1.278   6.390   6.938 -0.1158 -0.4469  0.1011
    1MOL   C516  516   1.171   6.291   6.968 -0.0170 -0.0676 -0.5684
    1MOL   C517  517   1.209   6.146   6.968  0.4130  0.1669  0.1890
    1MOL   C518  518   1.233   6.095   6.824 -0.2631 -0.4530  0.8129
    1MOL   C519  519   1.247   5.945   6.810  0.0171 -0.2124 -0.2193
    1MOL   O520  520   1.238   5.900   6.680 -0.4091  0.2241 -0.0960
    1MOL   C521  521   1.228   5.767   6.661 -0.5560  0.6277 -0.0697
    1MOL   O522  522   1.199   5.681   6.744  0.6591  0.6783 -0.1879
    1MOL   C523  523   1.245   5.732   6.510  0.0230  0.3423  0.0920
    1MOL   C524  524   1.232   5.577   6.499 -0.0701 -0.9732 -0.1295
    1MOL   C525  525   1.117   5.792   6.445  0.2066 -0.7187  0.0696
    1MOL   H526  526   1.304   6.375   6.833 -1.8272  2.1588 -0.7499
    1MOL   H527  527   1.220   6.482   6.948  0.2450 -0.3264  1.1353
    1MOL   H528  528   1.366   6.398   7.002 -0.7000 -2.0326  1.1152
    1MOL   H529  529   1.129   6.312   7.066  1.9289 -0.2201  0.3042
    1MOL   H530  530   1.085   6.310   6.903 -0.7617 -0.1998  0.3735
    1MOL   H531  531   1.299   6.146   7.029 -0.7825  2.4976  2.0435
    1MOL   H532  532   1.130   6.094   7.023 -0.2732  1.1033  0.1025
    1MOL   H533  533   1.322   6.147   6.789 -0.8773  0.7140  0.9596
    1MOL   H534  534   1.150   6.110   6.755  2.1934  0.2141 -2.0700
    1MOL   H535  535   1.348   5.923   6.846 -0.1474  1.8672  1.6552
    1MOL   H536  536   1.172   5.890   6.867  0.5385 -0.1180  0.5636
    1MOL   H537  537   1.148   5.536   6.556  0.2170 -0.3414  0.7519
    1MOL   H538  538   1.312   5.512   6.536 -0.6059 -0.9402  1.1121
    1MOL   H539  539   1.209   5.541   6.398 -2.1324 -2.3819  0.7852
    1MOL   H540  540   1.025   5.745   6.479 -1.5056  2.3760 -0.1141
    1MOL   H541  541   1.116   5.804   6.337  0.2102  0.3110  0.1777
    1MOL   H542  542   1.109   5.892   6.486 -2.9101 -1.1579  0.6410
    2MOL     C1  543   3.074   4.259   1.273  0.6407  0.3634  0.0136
    2MOL     C2  544   2.925   4.244   1.306  0.3363 -0.8912  0.0413
    2MOL     C3  545   2.858   4.126   1.227  0.2663  0.4571 -0.0418
    2MOL     C4  546   2.705   4.135   1.219 -0.7865 -0.0598 -0.0062
    2MOL     C5  547   2.653   4.018   1.139  0.0608  0.3259  0.3938
    2MOL     O6  548   2.694   3.898   1.199  0.0115 -0.0638 -0.5705
    2MOL     C7  549   2.701   3.786   1.130 -0.5311 -0.5356 -0.3042
    2MOL     O8  550   2.682   3.782   1.010  0.4756 -0.1371  0.4087
    2MOL     C9  551   2.746   3.669   1.216 -0.1875  0.1129  0.4378
    2MOL    C10  552   2.876   3.700   1.284 -0.3514  0.1037 -0.6028
    2MOL    C11  553   2.753   3.532   1.141 -0.4070  0.3856 -0.2101
    2MOL    H12  554   3.087   4.266   1.164 -0.6805 -0.2381 -0.1846
    2MOL    H13  555   3.126   4.167   1.301  1.0946  0.5457 -0.2261
    2MOL    H14  556   3.130   4.333   1.329 -1.2417  0.4234  1.8519
    2MOL    H15  557   2.906   4.227   1.412 -0.1544  1.7007  0.4010
    2MOL    H16  558   2.875   4.339   1.287  3.2774  0.2750 -2.3002
    2MOL    H17  559   2.894   4.128   1.124 -0.0667  1.3217 -0.1530
    2MOL    H18  560   2.901   4.032   1.260 -4.3281 -1.3941  1.0134
    2MOL    H19  561   2.681   4.230   1.170  0.8275 -1.1155 -3.0025
    2MOL    H20  562   2.652   4.122   1.313  1.6669 -0.9200  1.2933
    2MOL    H21  563   2.548   4.026   1.109  0.1729 -1.7721 -0.6294
    2MOL    H22  564   2.704   4.048   1.048 -0.3739  0.4245  0.1802
    2MOL    H23  565   2.888   3.804   1.315  2.4184 -0.8643  1.8417
    2MOL    H24  566   2.962   3.681   1.220  0.0211 -1.5968  0.3445
    2MOL    H25  567   2.891   3.647   1.379  0.8929  0.9514 -0.3119
    2MOL    H26  568   2.854   3.510   1.105 -0.7388 -1.3322 -0.1469
    2MOL    H27  569   2.700   3.539   1.046  1.9949  0.0166 -1.6331
    2MOL    H28  570   2.673   3.666   1.297  0.5479  0.1456  1.1073
    2MOL    C29  571   2.114   3.202   0.816  0.1418 -0.3379 -0.1699
    2MOL    C30  572   2.076   3.351   0.836  0.0178  0.7266  0.4304
    2MOL    C31  573   2.133   3.394   0.975  0.1583 -0.0934 -0.7380
    2MOL    C32  574   2.286   3.409   0.969 -0.0200 -0.1904  0.2235
    2MOL    C33  575   2.339   3.429   1.107  0.1757 -0.0534 -0.1109
    2MOL    O34  576   2.480   3.441   1.103 -0.0119  0.2047 -0.1848
    2MOL    C35  577   2.540   3.435   1.222 -0.5949  0.3723  0.5864
    2MOL    O36  578   2.485   3.468   1.332 -1.2967  0.6602  0.3270
    2MOL    C37  579   2.693   3.412   1.216  0.0236  0.7003  0.4159
    2MOL    C38  580   2.745   3.405   1.365 -0.4372 -0.6192  0.1361
    2MOL    C39  581   2.729   3.281   1.136  0.2260  0.4906  0.0715
    2MOL    H40  582   2.083   3.138   0.898 -1.9274 -1.5765 -1.8440
    2MOL    H41  583   2.064   3.173   0.723  1.2543 -1.3856 -0.4495
    2MOL    H42  584   2.219   3.191   0.787  0.7092 -0.2093  1.8002
    2MOL    H43  585   1.968   3.363   0.828 -0.0273 -0.6143 -1.2619
    2MOL    H44  586   2.131   3.416   0.768  1.0205  0.7785  1.2582
    2MOL    H45  587   2.119   3.329   1.062  1.1842 -1.0361 -1.2687
    2MOL    H46  588   2.088   3.488   1.007  0.8367  0.1167 -0.3875
    2MOL    H47  589   2.329   3.318   0.928  0.9264 -1.6051  4.1894
    2MOL    H48  590   2.317   3.493   0.906  2.5668 -1.7269 -0.6670
    2MOL    H49  591   2.304   3.347   1.167 -0.9072  1.1927  0.9830
    2MOL    H50  592   2.292   3.520   1.144  1.6506  0.6527  0.0920
    2MOL    H51  593   2.724   3.488   1.432  0.8852  2.3045 -2.9092
    2MOL    H52  594   2.852   3.385   1.357 -0.9907 -3.6678 -0.2302
    2MOL    H53  595   2.704   3.317   1.415  1.3905 -0.6930  1.5581
    2MOL    H54  596   2.833   3.281   1.101 -0.7470 -0.2817 -2.9566
    2MOL    H55  597   2.685   3.286   1.037  2.9649  0.6703 -1.1805
    2MOL    C56  598   3.301   2.668   1.510  0.1221  0.1545 -0.3047
    2MOL    C57  599   3.193   2.728   1.422 -0.6283 -0.0166 -0.1466
    2MOL    C58  600   3.144   2.868   1.473 -0.3749 -0.1879 -0.4356
    2MOL    C59  601   3.034   2.919   1.378 -0.7037  0.3304  0.0198
    2MOL    C60  602   2.991   3.064   1.407  0.6571  0.5181  0.6332
    2MOL    O61  603   2.908   3.106   1.297  0.7084 -0.0701  0.0217
    2MOL    C62  604   2.772   3.088   1.305  0.2885 -0.6473 -0.5386
    2MOL    O63  605   2.724   3.035   1.403  0.0642  0.6177 -0.4291
    2MOL    C64  606   2.686   3.131   1.184 -0.1907  0.2066 -0.1183
    2MOL    C65  607   2.738   3.037   1.079 -0.6095 -0.8369 -0.1267
    2MOL    C66  608   2.534   3.121   1.208 -0.0478 -0.6085  0.9235
    2MOL    H67  609   3.367   2.748   1.542 -0.6109  0.6306  0.0476
    2MOL    H68  610   3.371   2.593   1.473  1.2405  1.5857 -1.0915
    2MOL    H69  611   3.254   2.621   1.597  0.3562  0.9477  0.2531
    2MOL    H70  612   3.228   2.738   1.319  2.0762 -0.5705  0.6953
    2MOL    H71  613   3.102   2.668   1.421 -0.5040 -0.2494  1.4514
    2MOL    H72  614   3.103   2.860   1.573 -1.8082 -0.0293 -0.9993
    2MOL    H73  615   3.236   2.927   1.475  0.0706 -0.7013 -2.9537
    2MOL    H74  616   2.944   2.860   1.397  0.7303 -1.8573  0.2612
    2MOL    H75  617   3.069   2.906   1.275  0.1186  0.2951  0.3022
    2MOL    H76  618   2.944   3.076   1.505  0.3302  1.0867  0.4089
    2MOL    H77  619   3.075   3.134   1.412  1.7189 -0.8170  2.0522
    2MOL    H78  620   2.731   2.934   1.115 -0.4155 -2.2102 -3.7980
    2MOL    H79  621   2.841   3.053   1.047 -1.0295  1.4761 -0.3908
    2MOL    H80  622   2.688   3.044   0.982  1.7077  2.1658 -1.1937
    2MOL    H81  623   2.488   3.188   1.136  2.4712  1.5950  1.2823
    2MOL    H82  624   2.527   3.160   1.309 -1.4023 -2.3909  1.5437
    2MOL    C83  625   2.214   3.036   1.849  0.2286 -0.1088 -0.6857
    2MOL    C84  626   2.120   3.047   1.728 -0.3236 -0.4405 -0.9332
    2MOL    C85  627   2.175   3.139   1.608 -0.9785 -1.1950  0.1583
    2MOL    C86  628   2.090   3.130   1.486 -0.3248  0.2171  0.3192
    2MOL    C87  629   2.156   3.193   1.359 -0.7034  0.5766 -0.1180
    2MOL    O88  630   2.284   3.122   1.336 -0.5045  0.6015 -0.3274
    2MOL    C89  631   2.298   3.023   1.239 -0.4943 -0.2390 -0.6738
    2MOL    O90  632   2.198   2.978   1.183  0.2286 -0.8889 -0.3926
    2MOL    C91  633   2.449   2.989   1.207  0.2352 -0.4391 -0.1356
    2MOL    C92  634   2.456   2.933   1.069  0.0625  0.5444 -0.5441
    2MOL    C93  635   2.500   2.887   1.321  0.9868 -0.1671  0.1389
    2MOL    H94  636   2.315   3.015   1.814  1.1017  2.9958 -0.2178
    2MOL    H95  637   2.226   3.130   1.904  1.6894 -1.4534  1.3553
    2MOL    H96  638   2.180   2.954   1.912 -0.6601 -0.2504 -1.3327
    2MOL    H97  639   2.021   3.086   1.753  0.8636  1.0558  1.6280
    2MOL    H98  640   2.095   2.945   1.697 -0.9279 -0.6179  0.1197
    2MOL    H99  641   2.276   3.106   1.583 -1.1383 -3.6677  2.6052
    2MOL   H100  642   2.193   3.243   1.636  1.6422 -1.0558 -1.8013
    2MOL   H101  643   1.987   3.163   1.496 -0.7869 -0.4182 -1.9723
    2MOL   H102  644   2.076   3.022   1.477  2.1436 -0.1329  0.3225
    2MOL   H103  645   2.186   3.296   1.377 -0.6894  0.4285  0.7328
    2MOL   H104  646   2.092   3.194   1.271 -1.2088 -0.3143  0.2326
    2MOL   H105  647   2.447   3.015   0.998  1.3581 -0.7080 -2.1799
    2MOL   H106  648   2.375   2.866   1.040  0.5150  0.7635 -2.3694
    2MOL   H107  649   2.540   2.871   1.040 -1.4036 -0.4230 -2.8699
    2MOL   H108  650   2.602   2.865   1.290  0.5549  0.2818 -1.6815
    2MOL   H109  651   2.492   2.945   1.413 -2.9268  0.8533 -0.7385
    2MOL   C110  652   2.161   2.748   0.650  0.0236  0.4481 -0.3626
    2MOL   C111  653   2.214   2.811   0.781 -0.3075  0.0913 -1.0942
    2MOL   C112  654   2.160   2.754   0.913 -0.7256 -0.5865  0.3210
    2MOL   C113  655   2.237   2.634   0.964  0.1350 -0.4343 -0.2788
    2MOL   C114  656   2.208   2.566   1.100 -0.5666 -0.4875 -0.7761
    2MOL   O115  657   2.257   2.651   1.208  0.0938 -0.1690 -0.2655
    2MOL   C116  658   2.393   2.663   1.241  0.0960  0.1542 -0.5512
    2MOL   O117  659   2.486   2.615   1.177 -0.2146  0.1795  0.2362
    2MOL   C118  660   2.422   2.757   1.366  0.2037  0.1071  0.5606
    2MOL   C119  661   2.289   2.805   1.434 -0.1042  0.1808 -0.1470
    2MOL   C120  662   2.516   2.687   1.476 -0.1424  0.2679 -0.1563
    2MOL   H121  663   2.167   2.639   0.648  0.0102  0.3990  1.5677
    2MOL   H122  664   2.055   2.774   0.650  0.0519  0.5656  0.6342
    2MOL   H123  665   2.192   2.805   0.563 -2.8289  1.9827 -0.4566
    2MOL   H124  666   2.323   2.813   0.785 -0.3851  1.0615  1.5371
    2MOL   H125  667   2.180   2.914   0.776 -0.8523  0.0483  1.2130
    2MOL   H126  668   2.173   2.840   0.979  1.4497 -1.1295  0.6421
    2MOL   H127  669   2.051   2.750   0.915 -0.8647  0.4560 -2.9385
    2MOL   H128  670   2.341   2.657   0.942  0.5233 -1.0946  0.8409
    2MOL   H129  671   2.220   2.565   0.881 -2.2841 -0.7296  0.4095
    2MOL   H130  672   2.103   2.541   1.112 -0.4521 -0.2242  0.8940
    2MOL   H131  673   2.258   2.469   1.096 -0.1539 -0.2134 -5.1948
    2MOL   H132  674   2.248   2.745   1.515  1.9301 -2.2358 -0.8512
    2MOL   H133  675   2.316   2.901   1.479 -2.1181  0.9735 -0.5748
    2MOL   H134  676   2.212   2.817   1.358 -0.6277 -2.5689 -0.1043
    2MOL   H135  677   2.621   2.689   1.448 -0.0440 -1.8785 -0.0252
    2MOL   H136  678   2.509   2.758   1.558 -0.9902 -0.7523  0.6674
    2MOL   C137  679   2.024   2.354   2.192 -0.1924 -0.0167 -0.0838
    2MOL   C138  680   2.136   2.380   2.089 -0.0681 -0.5982 -0.0960
    2MOL   C139  681   2.112   2.486   1.984  0.9549 -0.5143  0.4853
    2MOL   C140  682   2.235   2.509   1.901 -0.1116  0.1963  0.4900
    2MOL   C141  683   2.226   2.608   1.786  0.1060 -0.3663 -0.3806
    2MOL   O142  684   2.346   2.615   1.709 -0.0535 -0.3799 -0.4035
    2MOL   C143  685   2.355   2.535   1.600  0.6170 -0.5563  1.1206
    2MOL   O144  686   2.273   2.456   1.561 -0.1865 -0.7748 -0.2092
    2MOL   C145  687   2.495   2.543   1.535  0.0919  0.7225  0.2858
    2MOL   C146  688   2.498   2.428   1.426  0.1529  0.0391 -0.1718
    2MOL   C147  689   2.596   2.500   1.656 -0.3503 -0.2836 -0.0434
    2MOL   H148  690   2.064   2.301   2.279  1.6974  0.0831 -0.8785
    2MOL   H149  691   1.933   2.300   2.164 -1.3406  3.0517 -2.5120
    2MOL   H150  692   1.996   2.449   2.237  1.7135  1.4826 -1.9960
    2MOL   H151  693   2.177   2.290   2.044 -0.6387 -0.5240 -0.7752
    2MOL   H152  694   2.215   2.410   2.157  0.0961 -0.9521 -0.1272
    2MOL   H153  695   2.033   2.440   1.924  1.1843 -0.1910 -0.0763
    2MOL   H154  696   2.075   2.573   2.037  1.3945  0.1770 -0.3318
    2MOL   H155  697   2.319   2.542   1.963  2.6828 -2.7957 -1.5909
    2MOL   H156  698   2.262   2.411   1.864  1.3111  0.8538 -0.2632
    2MOL   H157  699   2.215   2.710   1.825 -1.6170 -1.2522  1.5434
    2MOL   H158  700   2.137   2.581   1.730 -1.6803  1.2181  1.6176
    2MOL   H159  701   2.578   2.438   1.352 -0.2973 -1.8541 -0.9447
    2MOL   H160  702   2.417   2.417   1.353 -0.8755  2.3617  0.5900
    2MOL   H161  703   2.513   2.331   1.473 -1.8223 -1.4236 -2.4691
    2MOL   H162  704   2.580   2.556   1.748  1.3779 -0.9930  0.7146
    2MOL   H163  705   2.565   2.399   1.680 -0.3874 -0.8786 -2.4687
    2MOL   C164  706   2.659   3.380   1.793 -0.0332  0.1260  0.2630
    2MOL   C165  707   2.601   3.230   1.780 -0.0530 -0.3283 -0.7771
    2MOL   C166  708   2.704   3.134   1.723 -0.0407 -1.1305  0.2080
    2MOL   C167  709   2.643   2.991   1.732 -0.8256 -0.2263 -0.3153
    2MOL   C168  710   2.758   2.893   1.712  0.6127  0.1876 -0.3392
    2MOL   O169  711   2.712   2.760   1.700 -0.0944  0.1001  0.2985
    2MOL   C170  712   2.799   2.661   1.671  0.4641 -0.4075  0.4330
    2MOL   O171  713   2.920   2.683   1.663 -0.0514  0.2153  0.2549
    2MOL   C172  714   2.747   2.511   1.646  0.3282  0.2290 -0.6860
    2MOL   C173  715   2.801   2.475   1.507 -0.6660  0.7424  0.1560
    2MOL   C174  716   2.812   2.417   1.756  0.3290 -0.2507 -0.3541
    2MOL   H175  717   2.592   3.443   1.850  0.3858  0.0905  0.7974
    2MOL   H176  718   2.675   3.417   1.691  0.2717 -2.4632 -0.6889
    2MOL   H177  719   2.750   3.378   1.853  0.0669  0.8868  0.1359
    2MOL   H178  720   2.513   3.241   1.716 -0.0564 -1.0504 -0.9056
    2MOL   H179  721   2.562   3.189   1.873 -0.0475 -3.1533 -1.9725
    2MOL   H180  722   2.724   3.167   1.621 -0.3965  2.7942  1.3453
    2MOL   H181  723   2.798   3.153   1.775  0.8183 -1.7714 -1.0959
    2MOL   H182  724   2.566   2.981   1.656  0.2540  1.8324 -1.7204
    2MOL   H183  725   2.606   2.976   1.834 -0.8070  2.7418  0.1746
    2MOL   H184  726   2.827   2.895   1.797  0.0817 -2.1309  0.1886
    2MOL   H185  727   2.811   2.914   1.619  0.6038 -2.0482 -0.8745
    2MOL   H186  728   2.910   2.472   1.504 -0.6510  2.5476 -1.5329
    2MOL   H187  729   2.773   2.546   1.430 -2.1671  0.6188  0.5757
    2MOL   H188  730   2.772   2.374   1.477  0.2806  0.1239  1.2456
    2MOL   H189  731   2.773   2.316   1.739  1.3224 -0.3402 -2.1668
    2MOL   H190  732   2.915   2.409   1.722  0.7846  1.9155  0.4950
    2MOL   C191  733   2.255   2.071   2.459 -0.3287 -0.7306  0.1421
    2MOL   C192  734   2.379   2.082   2.363  0.4798  0.1653 -0.1033
    2MOL   C193  735   2.379   2.215   2.290 -0.1389  0.0068 -0.0731
    2MOL   C194  736   2.522   2.250   2.229  0.4142  0.3545  0.6010
    2MOL   C195  737   2.509   2.371   2.143  0.2115  0.4338 -0.6560
    2MOL   O196  738   2.643   2.401   2.094  0.1075 -0.3915  0.4226
    2MOL   C197  739   2.667   2.380   1.963 -0.4551  0.5486 -0.5399
    2MOL   O198  740   2.584   2.331   1.892  0.0222 -0.6042  0.4170
    2MOL   C199  741   2.801   2.435   1.914  0.1204 -0.3587  0.3825
    2MOL   C200  742   2.810   2.586   1.967 -0.0845 -0.0060 -0.5674
    2MOL   C201  743   2.923   2.354   1.972  0.7600 -0.3260  0.0408
    2MOL   H202  744   2.272   2.142   2.540  0.7482 -0.2889 -0.4532
    2MOL   H203  745   2.162   2.099   2.411  0.3943  0.6988 -0.4596
    2MOL   H204  746   2.252   1.971   2.501  2.1176 -1.7113 -1.8736
    2MOL   H205  747   2.386   1.996   2.296 -0.1919 -0.2474  0.3446
    2MOL   H206  748   2.466   2.077   2.430  2.1144 -1.7610 -2.2875
    2MOL   H207  749   2.355   2.300   2.354  0.6380  1.4016 -1.5906
    2MOL   H208  750   2.301   2.217   2.214  1.2643 -0.8654 -1.5702
    2MOL   H209  751   2.582   2.284   2.314  2.2829 -2.6909  0.5694
    2MOL   H210  752   2.573   2.174   2.171  0.2758 -1.1536  2.4161
    2MOL   H211  753   2.425   2.381   2.074  0.2135  1.5664 -0.5039
    2MOL   H212  754   2.484   2.460   2.201  0.5734  0.2749 -0.2585
    2MOL   H213  755   2.842   2.599   2.071  0.9034  2.2208 -1.0982
    2MOL   H214  756   2.718   2.642   1.952  1.2280  1.7548 -2.4419
    2MOL   H215  757   2.886   2.646   1.916  2.2746 -4.6984 -2.8543
    2MOL   H216  758   2.918   2.370   2.080 -1.3293 -0.3550 -0.0238
    2MOL   H217  759   3.008   2.416   1.943  0.3574 -0.5297 -1.5801
    2MOL   C218  760   3.480   2.157   1.495  0.4074  0.5686  0.8030
    2MOL   C219  761   3.362   2.168   1.394 -0.9046 -0.1745 -0.1595
    2MOL   C220  762   3.269   2.294   1.406 -0.7577 -0.2368  0.0004
    2MOL   C221  763   3.216   2.338   1.550 -0.4465  0.0800  0.5372
    2MOL   C222  764   3.167   2.220   1.627 -0.5093  0.6475 -0.3086
    2MOL   O223  765   3.117   2.247   1.758 -0.0276  0.0927  0.3126
    2MOL   C224  766   3.014   2.175   1.800  0.7669  0.3376  0.0666
    2MOL   O225  767   2.966   2.085   1.740 -0.0593 -0.3698  0.7510
    2MOL   C226  768   2.956   2.203   1.944 -0.2211 -0.2588  0.1727
    2MOL   C227  769   2.840   2.104   1.976 -0.7389  0.2702  0.3965
    2MOL   C228  770   3.071   2.178   2.053  0.1855  0.1517 -0.2909
    2MOL   H229  771   3.540   2.248   1.498  3.0581 -1.0976  0.1671
    2MOL   H230  772   3.459   2.111   1.592 -1.3290 -0.6582 -0.1292
    2MOL   H231  773   3.545   2.086   1.444  1.1315  0.7986  1.3885
    2MOL   H232  774   3.299   2.079   1.393 -0.2000 -0.6774 -0.1224
    2MOL   H233  775   3.413   2.171   1.298  1.3851  0.8417  1.0547
    2MOL   H234  776   3.186   2.283   1.338 -3.3614 -1.0886  3.1850
    2MOL   H235  777   3.329   2.380   1.376 -1.5063 -0.8066 -3.2386
    2MOL   H236  778   3.291   2.383   1.614 -0.3451 -0.1763  0.6007
    2MOL   H237  779   3.138   2.413   1.537  0.2172  0.5591 -0.7145
    2MOL   H238  780   3.249   2.147   1.627 -0.8666  0.2461 -0.2846
    2MOL   H239  781   3.089   2.182   1.562  1.4445 -2.1913 -1.0948
    2MOL   H240  782   2.752   2.104   1.912  1.5150  1.3798 -2.8398
    2MOL   H241  783   2.793   2.128   2.072 -2.9737 -1.0309 -0.3362
    2MOL   H242  784   2.872   2.001   1.969 -3.3752 -0.6366  0.9224
    2MOL   H243  785   3.032   2.207   2.151  1.5993 -2.3518  1.0588
    2MOL   H244  786   3.159   2.233   2.020  0.2403 -0.4108 -1.0956
    2MOL   C245  787   3.085   1.838   2.722  0.1953 -0.2121 -1.4811
    2MOL   C246  788   2.932   1.815   2.688  0.0173  0.0417  0.4559
    2MOL   C247  789   2.862   1.939   2.631  0.2139  0.4221  0.1522
    2MOL   C248  790   2.937   2.017   2.519  0.8753 -0.1159 -0.2273
    2MOL   C249  791   2.941   1.944   2.384 -0.1768  0.4970  0.3285
    2MOL   O250  792   3.014   2.014   2.286  0.4858 -0.7449 -0.6687
    2MOL   C251  793   3.041   1.954   2.173 -0.2369  0.2610  0.1811
    2MOL   O252  794   2.992   1.850   2.138 -0.3141  0.4932 -0.2655
    2MOL   C253  795   3.141   2.035   2.087  0.1727 -0.1749 -0.0395
    2MOL   C254  796   3.255   2.063   2.186 -0.7899  0.0297 -0.3234
    2MOL   C255  797   3.184   1.965   1.955  0.3205  0.7668  0.3736
    2MOL   H256  798   3.098   1.929   2.780 -2.4025 -0.6058 -0.2348
    2MOL   H257  799   3.123   1.755   2.781 -0.2786 -0.0175 -0.8932
    2MOL   H258  800   3.144   1.848   2.631  0.2829  0.3940 -1.3613
    2MOL   H259  801   2.928   1.729   2.621  0.9207  1.3230 -1.3103
    2MOL   H260  802   2.871   1.791   2.774  0.4231 -1.0847  0.4331
    2MOL   H261  803   2.842   2.004   2.717  1.9796  0.0861  0.8372
    2MOL   H262  804   2.766   1.914   2.585 -0.0507  0.7792  0.5010
    2MOL   H263  805   2.895   2.117   2.506  0.2961 -0.2247  0.7542
    2MOL   H264  806   3.039   2.035   2.552  1.0364  0.5724 -1.0874
    2MOL   H265  807   2.982   1.843   2.392 -0.2679  0.3164 -1.4214
    2MOL   H266  808   2.839   1.938   2.346 -0.2662  0.1113  0.6322
    2MOL   H267  809   3.294   1.972   2.231 -0.8376  0.0997 -0.1396
    2MOL   H268  810   3.343   2.100   2.133  1.6369 -1.1735  2.7002
    2MOL   H269  811   3.230   2.135   2.265  1.7101  0.5913 -0.0050
    2MOL   H270  812   3.101   1.919   1.901  1.0332 -1.0082  0.7770
    2MOL   H271  813   3.219   2.037   1.881  0.5323  1.2453  0.9403
    2MOL   C272  814   3.901   2.493   1.960  0.1213  0.3093  0.0373
    2MOL   C273  815   3.768   2.430   1.918 -0.2854 -0.9085  0.0281
    2MOL   C274  816   3.752   2.277   1.935  0.3631  0.0708  0.2930
    2MOL   C275  817   3.616   2.226   1.883  0.1703  0.2150 -0.1605
    2MOL   C276  818   3.612   2.073   1.914 -0.1948  0.4534  0.3969
    2MOL   O277  819   3.482   2.017   1.899 -0.1547 -0.1496  0.1344
    2MOL   C278  820   3.435   1.920   1.985 -0.5304 -0.8549  0.0578
    2MOL   O279  821   3.498   1.878   2.080 -0.3652  0.6073 -0.0196
    2MOL   C280  822   3.301   1.856   1.943 -0.2187  0.2366  0.5670
    2MOL   C281  823   3.258   1.730   2.025 -0.3409  0.0836  0.1632
    2MOL   C282  824   3.320   1.820   1.782  0.4752  0.3588 -0.4148
    2MOL   H283  825   3.888   2.595   1.922 -0.9450  0.3966  0.6059
    2MOL   H284  826   3.934   2.489   2.063 -0.5447  1.7861  0.3292
    2MOL   H285  827   3.977   2.442   1.902  0.3712 -0.9966  1.4838
    2MOL   H286  828   3.686   2.478   1.973  0.0533  0.6785 -0.8399
    2MOL   H287  829   3.736   2.454   1.817 -1.5127 -2.9268 -0.1086
    2MOL   H288  830   3.835   2.218   1.896  1.9304  2.2420  0.2359
    2MOL   H289  831   3.769   2.258   2.041 -1.1650 -0.5473  0.4260
    2MOL   H290  832   3.532   2.278   1.928 -0.4621 -0.7251 -0.2511
    2MOL   H291  833   3.627   2.248   1.777  0.4070  1.1103  0.0502
    2MOL   H292  834   3.635   2.062   2.020 -0.6203 -1.0870  0.3443
    2MOL   H293  835   3.692   2.011   1.874 -1.5514  0.8956 -3.1574
    2MOL   H294  836   3.337   1.656   2.036 -1.5708 -1.2243  0.4507
    2MOL   H295  837   3.237   1.758   2.128 -0.4561  0.9770 -0.0978
    2MOL   H296  838   3.171   1.679   1.982 -1.3983 -0.4584  2.8274
    2MOL   H297  839   3.218   1.816   1.744  0.2940  1.0934  0.0026
    2MOL   H298  840   3.359   1.903   1.724 -0.8925  0.7857 -0.7467
    2MOL   C299  841   2.647   1.613   1.679  0.2422  1.1699 -0.8059
    2MOL   C300  842   2.762   1.691   1.630 -0.1052  0.4322 -0.6446
    2MOL   C301  843   2.891   1.657   1.700  0.1886  0.6232  0.0791
    2MOL   C302  844   2.947   1.525   1.681 -0.4162 -0.6893 -0.0914
    2MOL   C303  845   3.082   1.501   1.750  0.5401  0.0376  0.6881
    2MOL   O304  846   3.192   1.568   1.687  0.2912 -0.4773 -0.4392
    2MOL   C305  847   3.310   1.572   1.751 -1.0311  0.8972 -0.5091
    2MOL   O306  848   3.342   1.488   1.836  0.1292 -0.0513 -0.3736
    2MOL   C307  849   3.397   1.698   1.718  0.0157 -0.3164  0.0286
    2MOL   C308  850   3.396   1.717   1.558  0.0430  0.0754 -0.4039
    2MOL   C309  851   3.542   1.688   1.774 -0.1159  0.3538 -0.0541
    2MOL   H310  852   2.626   1.649   1.779  1.8400 -0.6907  0.2452
    2MOL   H311  853   2.667   1.506   1.680 -1.0678  0.9220  0.3100
    2MOL   H312  854   2.552   1.625   1.628 -0.0998 -0.6233 -0.6357
    2MOL   H313  855   2.731   1.793   1.651 -0.6844 -0.1063  1.2361
    2MOL   H314  856   2.761   1.672   1.523 -0.2779  0.8417 -0.7145
    2MOL   H315  857   2.879   1.673   1.807  1.2603  0.3560  0.2462
    2MOL   H316  858   2.978   1.718   1.673  1.0849 -0.2597  0.9245
    2MOL   H317  859   2.951   1.513   1.573  0.7823  1.1586 -0.2696
    2MOL   H318  860   2.878   1.456   1.728 -0.6881  0.4799  1.2453
    2MOL   H319  861   3.073   1.534   1.853  0.9735 -1.6305  1.2753
    2MOL   H320  862   3.099   1.393   1.746  0.7102  0.1025 -0.5901
    2MOL   H321  863   3.295   1.734   1.520  0.1451 -1.3059 -1.3580
    2MOL   H322  864   3.454   1.803   1.525 -0.8313  0.7793 -0.1323
    2MOL   H323  865   3.434   1.628   1.507  2.2365 -1.0576  3.0381
    2MOL   H324  866   3.532   1.665   1.880  0.7740  0.2927  0.0229
    2MOL   H325  867   3.572   1.793   1.764 -0.6019  0.6352  1.3321
    2MOL   C326  868   3.683   0.907   2.042 -0.5596 -0.0897  0.4484
    2MOL   C327  869   3.541   0.924   1.991 -0.5524 -0.2901  0.3501
    2MOL   C328  870   3.525   1.023   1.866 -0.7983  0.4053 -0.2447
    2MOL   C329  871   3.572   1.164   1.892  0.6890 -0.3697 -0.3289
    2MOL   C330  872   3.557   1.245   1.760 -0.2988  0.1467 -0.1461
    2MOL   O331  873   3.585   1.376   1.783 -0.4121 -0.8370 -0.3739
    2MOL   C332  874   3.623   1.454   1.681  0.2135  0.6744  0.6843
    2MOL   O333  875   3.625   1.429   1.562 -0.2190 -0.0338 -0.1908
    2MOL   C334  876   3.659   1.598   1.728 -0.3268  0.5130 -0.3438
    2MOL   C335  877   3.723   1.678   1.605  0.6556  0.8691 -0.3721
    2MOL   C336  878   3.763   1.603   1.850 -0.2850  0.4472  0.1911
    2MOL   H337  879   3.738   0.851   1.967 -0.7623 -1.1768  1.1060
    2MOL   H338  880   3.670   0.844   2.130  3.1066 -2.1341 -0.3796
    2MOL   H339  881   3.729   1.001   2.072 -0.2399 -0.4677  1.1608
    2MOL   H340  882   3.488   0.961   2.078 -1.6630 -0.3261 -0.2938
    2MOL   H341  883   3.516   0.821   1.963 -0.8108 -0.4730  1.2370
    2MOL   H342  884   3.420   1.025   1.837 -1.6002  0.4088  2.5449
    2MOL   H343  885   3.574   0.982   1.778 -0.7299 -1.3436  0.5946
    2MOL   H344  886   3.679   1.166   1.913  0.7669  0.6261 -0.8046
    2MOL   H345  887   3.517   1.201   1.978  0.8431 -0.1323 -0.3309
    2MOL   H346  888   3.461   1.228   1.710 -0.4530 -1.5000  0.6562
    2MOL   H347  889   3.635   1.205   1.696 -0.4310  0.1276 -0.2975
    2MOL   H348  890   3.659   1.690   1.517  0.7793 -0.2558 -0.6178
    2MOL   H349  891   3.813   1.622   1.581  1.2250  0.6549  2.0841
    2MOL   H350  892   3.762   1.775   1.634  0.4854  0.7237  0.3500
    2MOL   H351  893   3.712   1.549   1.930  0.4484 -1.2480 -0.4689
    2MOL   H352  894   3.764   1.706   1.887  0.2227 -0.2899  2.3080
    2MOL   C353  895   4.262   2.012   2.174 -0.1860  0.2316 -0.1701
    2MOL   C354  896   4.220   2.048   2.032 -0.4789 -0.7926 -0.5427
    2MOL   C355  897   4.079   2.008   2.003 -0.5072  0.1702 -1.0269
    2MOL   C356  898   4.042   2.002   1.853 -0.5022  0.4968  0.2930
    2MOL   C357  899   4.084   1.876   1.780 -0.0740  0.7386 -0.8032
    2MOL   O358  900   4.011   1.765   1.838 -0.3357 -0.1355 -0.2570
    2MOL   C359  901   4.001   1.646   1.769 -0.2426  0.2545 -0.2703
    2MOL   O360  902   4.060   1.625   1.664 -0.4330 -0.3112  0.7457
    2MOL   C361  903   3.907   1.543   1.839  0.4866 -0.4821 -0.5022
    2MOL   C362  904   3.915   1.411   1.774 -0.1036 -0.0460  0.8918
    2MOL   C363  905   3.934   1.510   1.999  1.0790 -0.5215  0.6964
    2MOL   H364  906   4.236   1.909   2.198  1.1088 -0.5210 -1.8671
    2MOL   H365  907   4.218   2.067   2.258  1.1485 -0.5357  1.0422
    2MOL   H366  908   4.369   2.032   2.169  0.1787 -1.3567  1.2304
    2MOL   H367  909   4.226   2.154   2.005 -1.4864 -0.6375 -0.1912
    2MOL   H368  910   4.288   2.003   1.960  0.5108  0.1027 -0.1699
    2MOL   H369  911   4.008   2.073   2.054  1.0304  1.9180 -1.0315
    2MOL   H370  912   4.082   1.906   2.042  4.1220 -1.0024 -4.0504
    2MOL   H371  913   4.075   2.089   1.796  1.5500  1.4776  2.8842
    2MOL   H372  914   3.934   2.016   1.840 -0.5655 -1.4493 -1.4876
    2MOL   H373  915   4.055   1.886   1.675  0.3626  0.1185 -0.9851
    2MOL   H374  916   4.192   1.863   1.779 -0.3252 -1.6227 -0.0214
    2MOL   H375  917   3.852   1.336   1.822  2.7006 -2.6035  0.7315
    2MOL   H376  918   3.896   1.412   1.667  2.8311  1.0323  0.3332
    2MOL   H377  919   4.016   1.369   1.769  0.2304  0.8132  0.2990
    2MOL   H378  920   3.923   1.603   2.056  0.1072 -0.2801  0.1411
    2MOL   H379  921   3.843   1.458   2.031  0.1468  1.5948  1.6205
    2MOL   C380  922   4.707   1.625   2.322 -0.3252  0.3041 -0.0202
    2MOL   C381  923   4.648   1.690   2.193  0.1375 -0.1171  0.5468
    2MOL   C382  924   4.507   1.647   2.157 -0.0593  0.2642  0.4864
    2MOL   C383  925   4.475   1.668   2.005 -0.0584  0.0889  0.0562
    2MOL   C384  926   4.322   1.686   1.970  0.1489 -0.5691  0.3965
    2MOL   O385  927   4.231   1.606   2.037 -0.1899  0.1122  0.1735
    2MOL   C386  928   4.193   1.491   1.984 -0.3435  0.1949  0.5341
    2MOL   O387  929   4.246   1.445   1.881  0.3330 -0.0754 -0.0366
    2MOL   C388  930   4.060   1.441   2.052 -0.6155  0.6864 -0.4412
    2MOL   C389  931   4.076   1.481   2.204 -0.4251 -0.2679 -0.2011
    2MOL   C390  932   4.054   1.283   2.039  0.0333  0.1210  0.2283
    2MOL   H391  933   4.733   1.519   2.315  1.7566  0.8270 -0.5618
    2MOL   H392  934   4.807   1.666   2.334 -0.4530  0.5693  0.1511
    2MOL   H393  935   4.641   1.652   2.404 -0.7783 -2.2631  0.5058
    2MOL   H394  936   4.716   1.661   2.113 -0.6492  0.7816 -0.4546
    2MOL   H395  937   4.656   1.799   2.192 -0.4069 -0.0697  0.9922
    2MOL   H396  938   4.465   1.554   2.195  1.3033 -0.4089  0.3624
    2MOL   H397  939   4.448   1.718   2.216 -0.9221  0.5103 -0.6731
    2MOL   H398  940   4.540   1.748   1.970 -0.1671  0.2551  0.2274
    2MOL   H399  941   4.495   1.576   1.950  1.0465  1.5448 -2.0537
    2MOL   H400  942   4.299   1.670   1.864 -1.0791  0.2033  0.5338
    2MOL   H401  943   4.291   1.791   1.977 -2.4701 -1.3662  1.6706
    2MOL   H402  944   4.017   1.421   2.275  0.5214  0.5746  1.3253
    2MOL   H403  945   4.065   1.587   2.226  1.0230  0.5762 -3.3128
    2MOL   H404  946   4.176   1.447   2.230 -0.2110  1.8163  1.8287
    2MOL   H405  947   4.066   1.256   1.934 -1.9178  1.0077 -0.2580
    2MOL   H406  948   3.950   1.251   2.042 -0.6544  2.0645 -1.4039
    2MOL   C407  949   3.481   1.265   2.236 -0.0527 -0.0591 -0.3191
    2MOL   C408  950   3.561   1.161   2.306  0.3153  0.8371 -0.0498
    2MOL   C409  951   3.700   1.210   2.345  0.0249  0.3343  0.5378
    2MOL   C410  952   3.784   1.105   2.413 -0.3601  0.3763 -0.2792
    2MOL   C411  953   3.931   1.131   2.416 -0.5506  0.6836 -0.1206
    2MOL   O412  954   3.985   1.137   2.282  0.3359  0.4005 -0.3732
    2MOL   C413  955   4.114   1.174   2.264  0.0168  0.8698 -0.1838
    2MOL   O414  956   4.192   1.216   2.351  0.4952 -0.5513 -0.0828
    2MOL   C415  957   4.151   1.176   2.109  0.2807 -0.3086 -0.1412
    2MOL   C416  958   4.101   1.034   2.062  0.3311 -0.2885 -0.4071
    2MOL   C417  959   4.303   1.207   2.070  0.6987 -0.8726 -0.5858
    2MOL   H418  960   3.391   1.223   2.190  0.7182 -0.9898 -1.0082
    2MOL   H419  961   3.448   1.336   2.312  0.6211 -1.7090  1.5606
    2MOL   H420  962   3.546   1.315   2.165  0.8521  1.1677  1.3523
    2MOL   H421  963   3.573   1.073   2.243  0.0467 -0.8904  2.2315
    2MOL   H422  964   3.505   1.120   2.390  0.3413  2.7863  0.9536
    2MOL   H423  965   3.749   1.260   2.262 -0.7203 -0.0501 -0.1540
    2MOL   H424  966   3.695   1.278   2.430 -1.0667 -1.0977  1.6529
    2MOL   H425  967   3.763   1.008   2.368 -0.2529  0.1657  0.1258
    2MOL   H426  968   3.746   1.108   2.515 -1.7086  2.1103 -0.8000
    2MOL   H427  969   3.962   1.210   2.484 -2.2885 -0.1162  1.6406
    2MOL   H428  970   3.975   1.046   2.469  1.7797  1.1355 -1.2294
    2MOL   H429  971   3.993   1.025   2.076  0.4937 -1.8249 -0.1115
    2MOL   H430  972   4.156   0.955   2.114 -0.3557 -0.6946 -0.2943
    2MOL   H431  973   4.124   1.024   1.956 -1.6661 -2.8928 -0.6499
    2MOL   H432  974   4.329   1.296   2.127 -1.4870 -0.2948 -0.4304
    2MOL   H433  975   4.299   1.241   1.966 -3.9639 -0.1479 -0.2874
    2MOL   C434  976   3.954   1.010   1.729 -0.1476  0.1793  0.3078
    2MOL   C435  977   4.084   0.960   1.657  0.4760  0.1365 -0.1037
    2MOL   C436  978   4.187   1.074   1.641 -0.5963  0.1029  0.5944
    2MOL   C437  979   4.331   1.018   1.618 -1.3244 -0.7029  0.5071
    2MOL   C438  980   4.380   0.946   1.742 -0.2276 -0.1281  0.1295
    2MOL   O439  981   4.382   1.039   1.845  0.3004  0.1673 -0.2185
    2MOL   C440  982   4.405   0.996   1.975  0.2031 -1.0280 -0.1889
    2MOL   O441  983   4.411   0.876   2.010 -0.6096 -0.0761 -0.1283
    2MOL   C442  984   4.420   1.109   2.078  0.4400 -0.0761 -0.7271
    2MOL   C443  985   4.426   1.058   2.226  0.3860  0.5209 -0.0328
    2MOL   C444  986   4.545   1.198   2.052 -0.4658 -0.0318 -0.0715
    2MOL   H445  987   3.958   1.021   1.837 -0.6341  1.1424  0.2297
    2MOL   H446  988   3.908   1.102   1.695 -0.8279  0.2260  1.3198
    2MOL   H447  989   3.875   0.937   1.710 -1.4075  1.0998  1.9392
    2MOL   H448  990   4.119   0.865   1.699 -0.0928  1.2557  3.0499
    2MOL   H449  991   4.059   0.943   1.552 -0.4233  4.3182 -0.6245
    2MOL   H450  992   4.156   1.130   1.553 -0.1983  2.1365  1.7054
    2MOL   H451  993   4.181   1.136   1.731 -2.0636  0.2229  0.4153
    2MOL   H452  994   4.390   1.106   1.593 -1.4793 -0.8518 -0.4203
    2MOL   H453  995   4.336   0.961   1.525 -1.0588  1.3898 -0.7894
    2MOL   H454  996   4.472   0.888   1.729 -1.3667 -1.6748 -1.3651
    2MOL   H455  997   4.315   0.860   1.761 -0.7360  0.0878 -0.6242
    2MOL   H456  998   4.341   1.000   2.261  1.2780 -3.0923 -3.4471
    2MOL   H457  999   4.509   0.990   2.246 -0.7547 -0.5069  1.2517
    2MOL   H458 1000   4.431   1.145   2.291 -0.5167  0.3122  0.3135
    2MOL   H459 1001   4.554   1.269   2.133  1.4887  0.8438 -1.0310
    2MOL   H460 1002   4.515   1.264   1.970 -0.4927  0.3602  0.2547
    2MOL   C461 1003   4.913   1.641   1.690  0.0008 -0.1770  0.0566
    2MOL   C462 1004   4.821   1.519   1.714  0.0477 -0.0442  0.3700
    2MOL   C463 1005   4.795   1.443   1.586  0.6686 -0.1334  0.1361
    2MOL   C464 1006   4.691   1.342   1.585  0.6825  0.4351 -0.4259
    2MOL   C465 1007   4.728   1.215   1.658 -0.2404 -0.4276 -0.3676
    2MOL   O466 1008   4.707   1.223   1.797  0.3068 -0.0473  0.0680
    2MOL   C467 1009   4.702   1.118   1.875  0.3002  0.1959 -0.1457
    2MOL   O468 1010   4.710   1.000   1.839 -0.0126  0.1290 -0.0631
    2MOL   C469 1011   4.689   1.140   2.027  0.2152  0.0034 -0.0594
    2MOL   C470 1012   4.716   1.009   2.111 -0.3276  0.1144  0.7557
    2MOL   C471 1013   4.782   1.264   2.066 -0.5114 -0.1081  0.2269
    2MOL   H472 1014   4.862   1.716   1.630  0.1337 -0.7540 -0.7870
    2MOL   H473 1015   4.999   1.606   1.633  0.1893  1.5082 -0.7357
    2MOL   H474 1016   4.962   1.688   1.776  2.0754  0.7259 -1.5575
    2MOL   H475 1017   4.729   1.557   1.757  0.3928  0.7268  0.4217
    2MOL   H476 1018   4.873   1.452   1.783 -1.6732 -3.3136 -1.3389
    2MOL   H477 1019   4.886   1.403   1.541 -0.5523  0.1400 -2.6156
    2MOL   H478 1020   4.752   1.521   1.523  1.2330 -0.8759 -1.1780
    2MOL   H479 1021   4.682   1.320   1.479  2.3102 -0.8387 -0.3272
    2MOL   H480 1022   4.601   1.382   1.632  0.2008 -2.4003  1.2007
    2MOL   H481 1023   4.664   1.136   1.616 -0.8467  0.4879 -1.1861
    2MOL   H482 1024   4.830   1.187   1.634  0.0194  0.7082 -0.6157
    2MOL   H483 1025   4.704   1.023   2.219  0.1057 -0.6720  0.9089
    2MOL   H484 1026   4.812   0.966   2.084  0.1478  1.5771  0.0764
    2MOL   H485 1027   4.651   0.924   2.092  0.5311 -0.1617 -0.9353
    2MOL   H486 1028   4.739   1.308   2.156 -0.7516 -0.2981  0.2053
    2MOL   H487 1029   4.776   1.340   1.988  0.4544  0.7307  0.9728
    2MOL   C488 1030   4.423   1.380   2.555 -0.2132 -1.0011  0.0590
    2MOL   C489 1031   4.508   1.256   2.563  0.5235 -0.1003  0.7735
    2MOL   C490 1032   4.644   1.280   2.501  0.3253  0.1712 -0.6186
    2MOL   C491 1033   4.753   1.175   2.491 -0.2129 -0.2117  0.0809
    2MOL   C492 1034   4.892   1.220   2.464 -0.1092  0.2535 -0.3283
    2MOL   O493 1035   4.903   1.263   2.330  0.3589 -0.2940  0.3449
    2MOL   C494 1036   4.945   1.186   2.229  0.1267  0.4201  0.4501
    2MOL   O495 1037   4.978   1.066   2.238  0.1773  0.1236  0.0066
    2MOL   C496 1038   4.933   1.246   2.092  0.0346  0.2597  0.3341
    2MOL   C497 1039   4.997   1.392   2.103  0.2947  0.2293 -0.0299
    2MOL   C498 1040   5.008   1.159   1.984 -0.5712 -1.0163 -0.3642
    2MOL   H499 1041   4.465   1.459   2.619  0.2593 -1.3008  0.1228
    2MOL   H500 1042   4.423   1.419   2.454 -2.2361  1.2429  0.8777
    2MOL   H501 1043   4.321   1.355   2.585 -0.1896 -1.6672 -0.4093
    2MOL   H502 1044   4.455   1.191   2.494  1.7184 -0.1390 -0.1257
    2MOL   H503 1045   4.526   1.217   2.663  1.4383 -0.6470  0.4084
    2MOL   H504 1046   4.625   1.326   2.404  0.7166  2.1902  0.2488
    2MOL   H505 1047   4.690   1.358   2.561  0.9994  0.3071 -1.3030
    2MOL   H506 1048   4.723   1.107   2.411 -1.0105  0.6004 -0.3164
    2MOL   H507 1049   4.739   1.124   2.586 -3.1348  1.7626  0.8043
    2MOL   H508 1050   4.927   1.297   2.533  0.5152  0.7965 -1.2470
    2MOL   H509 1051   4.960   1.136   2.478 -1.5194 -0.5665  1.8219
    2MOL   H510 1052   4.932   1.453   2.165  0.7308  1.0825 -0.4086
    2MOL   H511 1053   5.019   1.437   2.006  1.9068  1.9667  1.0989
    2MOL   H512 1054   5.097   1.390   2.145  0.4639  0.2438 -0.4308
    2MOL   H513 1055   4.974   1.186   1.885  0.3484 -2.5665 -1.1331
    2MOL   H514 1056   4.976   1.055   1.987 -0.5838 -1.0734 -2.3709
    2MOL   C515 1057   5.393   1.519   1.275 -0.3947  0.5349 -0.0663
    2MOL   C516 1058   5.296   1.471   1.387 -0.3234 -0.7539  0.3731
    2MOL   C517 1059   5.359   1.357   1.473  0.1301 -0.2907  0.3610
    2MOL   C518 1060   5.269   1.305   1.582  0.1739  0.0021 -0.5181
    2MOL   C519 1061   5.256   1.381   1.714 -0.0474 -0.7317 -0.7630
    2MOL   O520 1062   5.184   1.308   1.805  0.0081 -0.3758 -0.1095
    2MOL   C521 1063   5.241   1.276   1.920  0.1722 -0.1404  0.9824
    2MOL   O522 1064   5.341   1.325   1.970  0.1018 -0.0241  0.3531
    2MOL   C523 1065   5.166   1.154   1.978  1.0045 -0.6293  0.2798
    2MOL   C524 1066   5.201   1.037   1.879 -0.5525  0.0112  0.7209
    2MOL   C525 1067   5.224   1.128   2.124 -0.1636 -0.3693  0.4906
    2MOL   H526 1068   5.348   1.598   1.214 -0.5738  1.9329  1.8564
    2MOL   H527 1069   5.487   1.554   1.317 -0.6816 -0.6433  1.5938
    2MOL   H528 1070   5.409   1.433   1.209 -0.5476  0.6138 -0.2077
    2MOL   H529 1071   5.256   1.557   1.441 -0.4672 -1.1197  0.8559
    2MOL   H530 1072   5.211   1.427   1.335 -0.3246  2.3181 -2.3650
    2MOL   H531 1073   5.399   1.275   1.413  2.6563  0.7079  0.6094
    2MOL   H532 1074   5.438   1.407   1.529 -0.1923  0.6553 -0.0291
    2MOL   H533 1075   5.315   1.210   1.610  0.1881  0.2370  0.2865
    2MOL   H534 1076   5.168   1.280   1.548 -0.5428  2.8869 -0.7037
    2MOL   H535 1077   5.359   1.391   1.750 -0.9184 -1.0020  1.8799
    2MOL   H536 1078   5.222   1.484   1.712 -1.0114 -1.0069  1.1322
    2MOL   H537 1079   5.179   1.054   1.773  2.4110  0.9423  0.2024
    2MOL   H538 1080   5.153   0.947   1.916 -1.3724  1.5993  3.7314
    2MOL   H539 1081   5.309   1.036   1.885 -0.5940 -0.4394  1.3733
    2MOL   H540 1082   5.331   1.119   2.111 -0.1443  0.7112 -0.1757
    2MOL   H541 1083   5.187   1.032   2.160 -2.8674  1.5694  3.1101
    2MOL   H542 1084   5.202   1.210   2.192  0.5223  1.6708 -1.6836
    3MOL     C1 1085   5.887   7.083   3.499 -0.2608  0.2488  0.1752
    3MOL     C2 1086   5.825   7.137   3.366 -0.8652 -0.2329  0.2716
    3MOL     C3 1087   5.676   7.112   3.356  0.0173 -0.5611  0.0084
    3MOL     C4 1088   5.639   6.960   3.332 -0.0569 -0.6578 -0.0401
    3MOL     C5 1089   5.494   6.941   3.294  0.7696 -0.7501 -0.0762
    3MOL     O6 1090   5.410   6.977   3.410  0.9962 -0.1051  0.2419
    3MOL     C7 1091   5.338   6.894   3.478  0.4132  0.5167 -0.5829
    3MOL     O8 1092   5.301   6.790   3.431 -0.2850  0.2692 -0.5589
    3MOL     C9 1093   5.293   6.945   3.619  0.6422  0.3993 -1.0425
    3MOL    C10 1094   5.420   6.965   3.703  0.3451 -0.4694 -0.3613
    3MOL    C11 1095   5.185   6.858   3.694  0.4289  0.6806  0.9122
    3MOL    H12 1096   5.995   7.094   3.509 -0.1045  1.0061 -2.0290
    3MOL    H13 1097   5.874   6.977   3.521 -0.4291 -0.0037 -1.0497
    3MOL    H14 1098   5.823   7.124   3.577  0.2620 -1.4550  1.5047
    3MOL    H15 1099   5.828   7.245   3.359 -0.3056 -0.3771 -1.9738
    3MOL    H16 1100   5.877   7.112   3.274 -0.8708  3.3175 -0.7530
    3MOL    H17 1101   5.633   7.154   3.446  0.1650  1.0271 -0.6451
    3MOL    H18 1102   5.631   7.165   3.271 -1.7291  0.5018  1.5636
    3MOL    H19 1103   5.658   6.901   3.421 -1.6260 -1.9972 -0.5552
    3MOL    H20 1104   5.703   6.922   3.252 -0.0041  0.2026 -0.4164
    3MOL    H21 1105   5.472   7.000   3.205  1.0903  0.6507  0.7652
    3MOL    H22 1106   5.470   6.842   3.257 -0.0616 -0.6067  0.0752
    3MOL    H23 1107   5.506   7.004   3.649 -0.8691  2.1221 -0.4866
    3MOL    H24 1108   5.454   6.879   3.761  0.7683 -1.1072 -1.5556
    3MOL    H25 1109   5.393   7.047   3.769 -0.1266 -0.5113 -0.5042
    3MOL    H26 1110   5.200   6.900   3.793  0.3940  0.5203  0.9849
    3MOL    H27 1111   5.222   6.755   3.695 -0.6453  0.2828  0.3935
    3MOL    H28 1112   5.244   7.041   3.600  2.3140  1.9170  1.8558
    3MOL    C29 1113   4.347   6.896   3.763 -0.4197 -0.6750  0.1698
    3MOL    C30 1114   4.388   6.773   3.688 -0.1221  0.1550  0.2436
    3MOL    C31 1115   4.537   6.743   3.661  0.1163 -0.5957  0.0370
    3MOL    C32 1116   4.623   6.731   3.783 -0.5807 -0.8211 -0.1514
    3MOL    C33 1117   4.752   6.653   3.751 -0.4268  0.0961  0.2450
    3MOL    O34 1118   4.840   6.741   3.681 -0.1293  0.0592  0.7404
    3MOL    C35 1119   4.968   6.746   3.713  0.2360  0.0041 -1.1007
    3MOL    O36 1120   5.026   6.667   3.788 -0.4017 -0.0297  0.2603
    3MOL    C37 1121   5.040   6.862   3.650  0.1152 -0.5827  0.5729
    3MOL    C38 1122   5.017   6.840   3.497 -0.5607 -0.2303  0.3177
    3MOL    C39 1123   4.967   6.996   3.685 -0.0354  0.4847 -0.4725
    3MOL    H40 1124   4.386   6.991   3.728 -2.9783  0.2113 -0.4070
    3MOL    H41 1125   4.239   6.914   3.759 -0.1295  0.7681 -2.8828
    3MOL    H42 1126   4.366   6.878   3.869  2.4508  0.8350 -0.0506
    3MOL    H43 1127   4.340   6.769   3.590 -1.2699 -0.1014  0.8001
    3MOL    H44 1128   4.347   6.687   3.742 -0.6044  1.4014  1.9234
    3MOL    H45 1129   4.586   6.816   3.595  0.7892  1.1477  2.3919
    3MOL    H46 1130   4.540   6.654   3.598  0.6980 -0.8125  0.3704
    3MOL    H47 1131   4.654   6.826   3.826 -0.8567 -1.5786  1.7336
    3MOL    H48 1132   4.588   6.670   3.866  2.0696  0.5801  2.0692
    3MOL    H49 1133   4.734   6.561   3.695 -0.3949 -0.0960  0.5495
    3MOL    H50 1134   4.797   6.614   3.842  0.6053  0.0527 -0.2750
    3MOL    H51 1135   5.054   6.748   3.451  1.1292  1.0466 -0.9304
    3MOL    H52 1136   5.073   6.914   3.441  1.4078 -3.5357 -2.3063
    3MOL    H53 1137   4.919   6.862   3.455 -0.5921 -1.1172 -0.0845
    3MOL    H54 1138   4.859   6.984   3.680 -0.0729  0.8864 -0.7169
    3MOL    H55 1139   4.979   7.062   3.599 -1.2763  0.8611 -0.3723
    3MOL    C56 1140   5.040   7.712   3.482  0.1582 -0.0390 -0.2273
    3MOL    C57 1141   5.146   7.603   3.473 -0.2554  0.3121 -0.0052
    3MOL    C58 1142   5.139   7.491   3.577  0.4627 -0.3141 -0.1456
    3MOL    C59 1143   5.258   7.400   3.572 -0.3365 -0.6419  0.3390
    3MOL    C60 1144   5.266   7.312   3.704  0.1428  0.1771 -1.1141
    3MOL    O61 1145   5.146   7.235   3.725 -0.1415 -0.4195  0.3689
    3MOL    C62 1146   5.125   7.155   3.828 -0.5376  0.2903 -0.3893
    3MOL    O63 1147   5.209   7.136   3.920  0.3060  0.3754  0.4189
    3MOL    C64 1148   4.988   7.079   3.827 -0.1358  0.7738  0.5420
    3MOL    C65 1149   4.969   6.986   3.947 -0.1725 -0.5209 -0.4368
    3MOL    C66 1150   4.874   7.196   3.822  0.2245 -0.9331 -0.1155
    3MOL    H67 1151   5.052   7.789   3.405  0.4404  1.0009  0.8529
    3MOL    H68 1152   5.063   7.769   3.571  3.1314  0.9096 -1.5599
    3MOL    H69 1153   4.938   7.672   3.483  0.1092 -0.1291 -3.0762
    3MOL    H70 1154   5.156   7.566   3.370 -2.4331  1.9041 -0.8134
    3MOL    H71 1155   5.237   7.661   3.488  0.2254  0.4655 -3.0403
    3MOL    H72 1156   5.143   7.526   3.680  1.1830 -0.3790 -0.1456
    3MOL    H73 1157   5.040   7.447   3.562 -0.4185  2.1956 -2.1498
    3MOL    H74 1158   5.353   7.437   3.535 -0.9972  0.3806 -0.3851
    3MOL    H75 1159   5.227   7.329   3.495 -1.9719  0.8455 -0.4025
    3MOL    H76 1160   5.339   7.235   3.680 -0.6117 -0.6691 -0.7084
    3MOL    H77 1161   5.298   7.365   3.794 -1.5825  0.2381 -0.5244
    3MOL    H78 1162   5.054   6.921   3.968 -0.9011 -1.1226  0.7035
    3MOL    H79 1163   4.885   6.920   3.926  0.1927 -0.5466 -1.8188
    3MOL    H80 1164   4.946   7.034   4.042 -0.9234 -1.6676 -0.0299
    3MOL    H81 1165   4.786   7.143   3.787 -1.3205  0.6364  1.2878
    3MOL    H82 1166   4.896   7.262   3.738 -1.2645  1.1396  1.0897
    3MOL    C83 1167   4.560   7.306   4.683 -0.4431 -0.1914  0.5075
    3MOL    C84 1168   4.462   7.356   4.568 -0.3429 -0.7490  0.1500
    3MOL    C85 1169   4.474   7.284   4.440 -0.3798 -0.0172  0.0006
    3MOL    C86 1170   4.605   7.322   4.362  1.0760 -0.2851 -0.1904
    3MOL    C87 1171   4.634   7.230   4.236 -0.1570 -0.3744  0.0418
    3MOL    O88 1172   4.720   7.294   4.145 -0.0086 -0.4202 -0.3325
    3MOL    C89 1173   4.752   7.218   4.043  0.1938 -0.0499 -0.0840
    3MOL    O90 1174   4.711   7.104   4.019  0.2325  0.2639 -0.2137
    3MOL    C91 1175   4.839   7.290   3.938  0.0036 -0.4209  0.2113
    3MOL    C92 1176   4.964   7.338   4.012 -0.6360 -0.5439 -0.2950
    3MOL    C93 1177   4.768   7.419   3.873 -0.2885 -0.5942 -0.4557
    3MOL    H94 1178   4.666   7.319   4.659 -0.5915 -1.2647 -0.7755
    3MOL    H95 1179   4.536   7.355   4.777 -0.5440 -0.3874  0.5803
    3MOL    H96 1180   4.557   7.198   4.697  1.6053 -0.8145 -3.1274
    3MOL    H97 1181   4.456   7.464   4.561 -1.0334 -0.8136 -0.2712
    3MOL    H98 1182   4.365   7.325   4.606 -0.9361 -1.6515 -2.0308
    3MOL    H99 1183   4.386   7.300   4.377  0.0675 -0.6187 -0.7934
    3MOL   H100 1184   4.481   7.176   4.448 -0.9882 -0.0907 -0.4446
    3MOL   H101 1185   4.688   7.324   4.433  0.2400  2.8266  0.7407
    3MOL   H102 1186   4.610   7.426   4.331 -0.0115 -0.4856 -1.0947
    3MOL   H103 1187   4.532   7.214   4.200 -0.8593 -0.0426  1.8626
    3MOL   H104 1188   4.679   7.137   4.268 -1.9295 -1.4473 -0.4928
    3MOL   H105 1189   4.945   7.405   4.096 -0.6134  0.3471 -0.9930
    3MOL   H106 1190   5.020   7.399   3.941  0.0675 -0.1866  0.5629
    3MOL   H107 1191   5.027   7.259   4.050  3.1085  1.9041 -1.1202
    3MOL   H108 1192   4.786   7.503   3.940 -1.0553  0.9000 -2.0886
    3MOL   H109 1193   4.832   7.455   3.793  0.5328  2.9186  1.6733
    3MOL   C110 1194   4.198   7.749   4.431  1.1016  0.4301  0.7010
    3MOL   C111 1195   4.267   7.739   4.298  0.4554  0.9279 -0.5671
    3MOL   C112 1196   4.417   7.733   4.320  0.3874 -0.0755  0.5585
    3MOL   C113 1197   4.492   7.717   4.188  0.2782 -0.4610  0.4615
    3MOL   C114 1198   4.466   7.579   4.117  0.3598 -0.1803  0.1755
    3MOL   O115 1199   4.547   7.560   4.007 -0.2102 -0.0616 -0.5507
    3MOL   C116 1200   4.526   7.447   3.934  0.0424  0.4100  0.3485
    3MOL   O117 1201   4.431   7.366   3.955  0.2119  0.5301  0.2229
    3MOL   C118 1202   4.623   7.419   3.816 -0.0690 -0.5713  0.3604
    3MOL   C119 1203   4.590   7.286   3.756 -0.8090 -0.2682  0.4047
    3MOL   C120 1204   4.621   7.525   3.701 -0.0977  0.5510 -0.6189
    3MOL   H121 1205   4.254   7.681   4.495  0.6988 -0.7424 -0.1783
    3MOL   H122 1206   4.204   0.037   4.471 -0.5487  1.1658 -0.8478
    3MOL   H123 1207   4.094   7.720   4.422  1.2442 -0.4274  1.7008
    3MOL   H124 1208   4.243   7.644   4.251  0.7005 -0.1412  1.4280
    3MOL   H125 1209   4.237   0.003   4.228 -1.4573  2.6777  2.1211
    3MOL   H126 1210   4.445   0.019   4.354 -0.1148  0.0181  0.7085
    3MOL   H127 1211   4.449   7.662   4.396 -1.7427 -1.4379  0.2339
    3MOL   H128 1212   4.599   7.723   4.207  0.4721 -0.0297 -0.7658
    3MOL   H129 1213   4.472   7.795   4.115  2.0816 -0.6636 -0.2589
    3MOL   H130 1214   4.477   7.499   4.189 -0.9063 -1.0260 -0.5391
    3MOL   H131 1215   4.361   7.585   4.086  0.3743 -0.8889 -0.0147
    3MOL   H132 1216   4.487   7.288   3.719 -0.5151 -1.1356 -0.4838
    3MOL   H133 1217   4.650   7.259   3.669 -0.8293  1.7838 -0.2747
    3MOL   H134 1218   4.589   7.202   3.826 -3.7610 -0.9717 -0.4229
    3MOL   H135 1219   4.688   7.606   3.730  0.4968  0.2672 -1.1669
    3MOL   H136 1220   4.677   7.477   3.621 -0.9537 -2.4961  0.5214
    3MOL   C137 1221   4.147   0.193   3.506 -0.5151  0.5574 -0.3023
    3MOL   C138 1222   4.208   0.202   3.644 -0.4290  0.3882  0.0042
    3MOL   C139 1223   4.360   0.208   3.620  0.3930  0.3245  0.0210
    3MOL   C140 1224   4.442   0.235   3.749 -0.3168  0.1523 -0.2735
    3MOL   C141 1225   4.460   0.108   3.846  0.0794  0.0161  0.1127
    3MOL   O142 1226   4.498   7.811   3.761  0.1082 -0.0608  0.0983
    3MOL   C143 1227   4.425   7.698   3.752  0.3424  0.0927 -0.8369
    3MOL   O144 1228   4.321   7.678   3.811 -0.3674  0.1890  0.2475
    3MOL   C145 1229   4.487   7.598   3.651  0.3178  1.3883 -0.0210
    3MOL   C146 1230   4.527   7.687   3.527  0.0244  0.2829  0.5061
    3MOL   C147 1231   4.386   7.487   3.613 -0.2471 -0.5169 -0.3826
    3MOL   H148 1232   4.045   0.154   3.505  0.1558 -1.2764  0.7379
    3MOL   H149 1233   4.200   0.145   3.423 -0.6178  1.2564 -0.7789
    3MOL   H150 1234   4.121   0.291   3.466 -1.1080  1.2380  1.7259
    3MOL   H151 1235   4.167   0.114   3.694  0.6356  0.3448  0.8314
    3MOL   H152 1236   4.165   0.298   3.674 -1.1227 -0.2173  0.9796
    3MOL   H153 1237   4.389   0.110   3.581 -4.1980 -1.8007  1.6397
    3MOL   H154 1238   4.395   0.277   3.543 -0.0071  1.4498  0.8493
    3MOL   H155 1239   4.546   0.251   3.717  0.1431  0.4002  1.3090
    3MOL   H156 1240   4.399   0.318   3.806 -1.4004 -0.8779  0.4163
    3MOL   H157 1241   4.368   0.096   3.902 -0.6004  0.6577 -0.8550
    3MOL   H158 1242   4.538   0.134   3.917 -0.3124  0.7143  0.2871
    3MOL   H159 1243   4.545   7.623   3.440 -0.5493  0.1028  0.5182
    3MOL   H160 1244   4.623   7.737   3.540  0.9120 -1.9128  2.7111
    3MOL   H161 1245   4.448   7.755   3.496  0.7995  1.6703  1.5072
    3MOL   H162 1246   4.452   7.418   3.560  3.4036  2.4494  0.0321
    3MOL   H163 1247   4.359   7.438   3.706 -1.4429  1.2534  0.2337
    3MOL   C164 1248   4.814   7.187   3.342 -0.2809 -0.2349 -0.4197
    3MOL   C165 1249   4.814   7.330   3.288 -0.3287  0.3355 -0.2976
    3MOL   C166 1250   4.666   7.385   3.299  0.4945 -0.0703  0.2231
    3MOL   C167 1251   4.562   7.336   3.199 -0.0447 -0.2604 -0.4521
    3MOL   C168 1252   4.435   7.414   3.207  0.7488 -0.3005  0.1495
    3MOL   O169 1253   4.379   7.407   3.333  0.7628  0.4840 -0.3081
    3MOL   C170 1254   4.298   7.506   3.372 -0.0874  0.0147  0.1749
    3MOL   O171 1255   4.277   7.596   3.293  0.2572 -0.9793 -0.1397
    3MOL   C172 1256   4.260   7.503   3.520 -0.3939 -0.0996  0.0176
    3MOL   C173 1257   4.179   7.632   3.549  0.2944  0.1628  0.9852
    3MOL   C174 1258   4.175   7.370   3.536 -0.1467  0.3430 -0.0980
    3MOL   H175 1259   4.772   7.115   3.271 -1.3468 -0.3324  0.2976
    3MOL   H176 1260   4.763   7.183   3.439 -0.1823  1.4928 -0.2874
    3MOL   H177 1261   4.916   7.156   3.365 -1.4832 -3.1564  1.3535
    3MOL   H178 1262   4.855   7.351   3.190  3.0470  1.3807  1.2756
    3MOL   H179 1263   4.873   7.387   3.359 -2.1336 -1.4008  2.7494
    3MOL   H180 1264   4.632   7.373   3.402  0.6034 -2.9122 -0.0404
    3MOL   H181 1265   4.677   7.492   3.279  1.4952 -0.1534  0.3290
    3MOL   H182 1266   4.535   7.235   3.229 -0.5687  0.2185  0.7413
    3MOL   H183 1267   4.593   7.325   3.095  1.1537 -0.4994 -0.0784
    3MOL   H184 1268   4.361   7.370   3.140  1.0969  1.0519 -1.1381
    3MOL   H185 1269   4.457   7.515   3.174  0.6325 -0.0236  0.9088
    3MOL   H186 1270   4.130   7.645   3.646 -1.9385  2.9011 -0.4262
    3MOL   H187 1271   4.101   7.643   3.474  1.5066  1.9460 -0.0508
    3MOL   H188 1272   4.241   7.721   3.538 -0.4784  0.5106 -0.5905
    3MOL   H189 1273   4.114   7.361   3.446 -0.5620 -0.9970  0.3093
    3MOL   H190 1274   4.251   7.292   3.527 -0.3481 -0.1528  2.1644
    3MOL   C191 1275   3.999   0.049   3.945  0.2918 -0.2582 -0.0979
    3MOL   C192 1276   3.858   0.002   3.899  0.3883 -0.3561 -0.0773
    3MOL   C193 1277   3.859   7.708   3.793 -0.2426  0.4425 -0.0134
    3MOL   C194 1278   3.737   7.608   3.802 -0.0197  0.7622  0.4379
    3MOL   C195 1279   3.731   7.506   3.689 -0.4419  0.4110 -0.7826
    3MOL   O196 1280   3.848   7.420   3.702  0.4052 -0.9612 -0.0516
    3MOL   C197 1281   3.937   7.423   3.605 -0.7298 -0.7773  0.0534
    3MOL   O198 1282   3.913   7.485   3.500 -0.2504  0.3478  0.1606
    3MOL   C199 1283   4.062   7.343   3.639  0.0366  0.1912  0.1659
    3MOL   C200 1284   4.110   7.377   3.788  0.6117  0.0768  0.3401
    3MOL   C201 1285   4.033   7.189   3.637  0.4175 -0.2710  0.5065
    3MOL   H202 1286   3.988   0.128   4.020 -2.1816  1.0479 -1.7760
    3MOL   H203 1287   4.060   7.783   3.987  1.2962  0.2189 -0.6301
    3MOL   H204 1288   4.048   0.097   3.861  0.6007  0.9577  0.7530
    3MOL   H205 1289   3.806   0.088   3.857 -0.9957 -0.2636  1.7645
    3MOL   H206 1290   3.809   7.794   3.994  0.8051  0.3354  0.3063
    3MOL   H207 1291   3.956   7.659   3.788 -0.0435  0.7263  1.0040
    3MOL   H208 1292   3.849   7.764   3.700 -3.6834  0.8683  0.5594
    3MOL   H209 1293   3.754   7.546   3.889  0.3788  0.0535 -0.1406
    3MOL   H210 1294   3.642   7.662   3.803 -0.7661 -0.5476  1.1815
    3MOL   H211 1295   3.641   7.445   3.692 -0.3212  0.2825  0.3664
    3MOL   H212 1296   3.716   7.556   3.593 -2.0035 -1.0799 -1.3506
    3MOL   H213 1297   4.189   7.316   3.831  0.4633  0.2769  0.8929
    3MOL   H214 1298   4.026   7.355   3.854 -2.0438 -0.6375 -3.0875
    3MOL   H215 1299   4.135   7.482   3.796 -0.6011  0.2871  1.5923
    3MOL   H216 1300   3.964   7.173   3.719  0.6343 -1.3112  0.4985
    3MOL   H217 1301   4.117   7.126   3.666  0.2821 -1.3097 -1.2401
    3MOL   C218 1302   4.118   7.332   2.796 -0.8263  0.4193  0.3131
    3MOL   C219 1303   4.022   7.347   2.919  0.4672  0.1384  0.1885
    3MOL   C220 1304   4.080   7.296   3.051  0.1322 -0.0957  0.2635
    3MOL   C221 1305   4.111   7.145   3.044 -0.3555  0.2241 -0.5761
    3MOL   C222 1306   4.167   7.095   3.177 -0.2022 -0.3538 -0.2442
    3MOL   O223 1307   4.080   7.123   3.284  0.0317  0.4465 -0.5463
    3MOL   C224 1308   4.098   7.090   3.412 -0.1201  1.2468  0.6610
    3MOL   O225 1309   4.205   7.051   3.453 -0.0707  0.1242  0.2282
    3MOL   C226 1310   3.975   7.108   3.505 -0.2507  0.1742 -0.2332
    3MOL   C227 1311   3.852   7.183   3.439 -0.1111  0.1296  0.3914
    3MOL   C228 1312   3.944   6.961   3.546 -0.3244  0.2243  0.1060
    3MOL   H229 1313   4.156   7.230   2.787  0.5978  1.0109 -0.5782
    3MOL   H230 1314   4.071   7.358   2.701  0.8385 -2.4672 -1.3614
    3MOL   H231 1315   4.201   7.402   2.806 -2.2031  1.9938  0.8993
    3MOL   H232 1316   3.934   7.286   2.898 -0.9721  1.7228  1.4849
    3MOL   H233 1317   3.987   7.450   2.926  0.8439  0.5039 -2.5571
    3MOL   H234 1318   4.027   7.331   3.140 -4.2883 -1.2097 -1.8025
    3MOL   H235 1319   4.176   7.347   3.061  1.4780 -1.6898 -3.6578
    3MOL   H236 1320   4.027   7.084   3.009 -2.1293  1.5795  1.1604
    3MOL   H237 1321   4.187   7.121   2.970  0.6133 -0.9369  0.7891
    3MOL   H238 1322   4.263   7.142   3.196  2.4529 -6.1364  2.0223
    3MOL   H239 1323   4.179   6.987   3.169 -0.0090 -0.4968  1.6927
    3MOL   H240 1324   3.775   7.207   3.512 -0.4217 -0.8818  0.4128
    3MOL   H241 1325   3.805   7.124   3.360  1.4997  0.1851 -0.6352
    3MOL   H242 1326   3.891   7.267   3.382  2.6987 -2.5739 -1.9145
    3MOL   H243 1327   4.026   6.934   3.612  0.5618  0.7417 -0.7781
    3MOL   H244 1328   3.967   6.890   3.467 -1.3247  0.3887 -0.3451
    3MOL   C245 1329   4.039   6.653   3.200 -0.0270  0.1148  0.4267
    3MOL   C246 1330   3.970   6.783   3.170 -0.3508  0.3504  0.4897
    3MOL   C247 1331   3.826   6.751   3.121 -0.7275 -0.0570  0.7950
    3MOL   C248 1332   3.728   6.866   3.149 -0.2454 -0.3548  0.7302
    3MOL   C249 1333   3.647   6.860   3.276 -0.4706 -0.2290  0.1911
    3MOL   O250 1334   3.732   6.853   3.393  0.1465 -0.6204 -0.1804
    3MOL   C251 1335   3.699   6.918   3.502  0.1397  0.1519 -0.3372
    3MOL   O252 1336   3.590   6.973   3.526  0.0612 -0.0820 -0.1104
    3MOL   C253 1337   3.808   6.915   3.609 -0.1485 -0.1692 -0.3671
    3MOL   C254 1338   3.768   7.006   3.732 -0.3013  0.2138  0.0127
    3MOL   C255 1339   3.841   6.767   3.660 -0.8759 -0.2771 -0.3766
    3MOL   H256 1340   3.983   6.598   3.276  1.3160  1.4414  2.4280
    3MOL   H257 1341   4.050   6.597   3.108  1.1554 -0.5741  0.9733
    3MOL   H258 1342   4.136   6.672   3.247  0.5894 -0.3173 -0.6703
    3MOL   H259 1343   3.965   6.847   3.258  0.0939 -0.2257  0.9388
    3MOL   H260 1344   4.029   6.837   3.096  0.1099  0.2365  0.7719
    3MOL   H261 1345   3.785   6.655   3.153 -0.2986  0.0721  1.7414
    3MOL   H262 1346   3.833   6.732   3.014 -0.2169  3.0087  0.2219
    3MOL   H263 1347   3.789   6.957   3.141  2.0646 -1.7050  2.2796
    3MOL   H264 1348   3.660   6.870   3.065  0.2266 -1.6458  0.2718
    3MOL   H265 1349   3.579   6.945   3.281  2.1482  1.8318  1.9059
    3MOL   H266 1350   3.594   6.766   3.290  1.1993 -0.8278  2.9075
    3MOL   H267 1351   3.768   7.106   3.689 -2.7406 -0.5407 -1.8501
    3MOL   H268 1352   3.670   6.978   3.772 -1.3034  2.1416 -1.0241
    3MOL   H269 1353   3.842   6.993   3.811 -1.9747 -2.7203  1.2057
    3MOL   H270 1354   3.837   6.705   3.570  0.0425 -0.6447 -0.1692
    3MOL   H271 1355   3.944   6.766   3.694 -1.1728  0.3058  0.5378
    3MOL   C272 1356   4.306   6.919   4.174  0.2739  0.1953  0.4280
    3MOL   C273 1357   4.194   7.020   4.149 -0.4241 -0.6205  0.8698
    3MOL   C274 1358   4.072   6.975   4.072 -0.1754  0.1798 -0.1524
    3MOL   C275 1359   3.998   6.853   4.131  0.3904 -0.3025 -0.6763
    3MOL   C276 1360   3.857   6.828   4.075  0.3943  0.4068 -1.0321
    3MOL   O277 1361   3.855   6.771   3.953 -0.3044 -0.5023 -0.0495
    3MOL   C278 1362   3.744   6.715   3.902  0.2865  0.2736  0.6710
    3MOL   O279 1363   3.646   6.688   3.970  0.7890 -0.6136 -0.1653
    3MOL   C280 1364   3.750   6.669   3.753  0.1435 -0.0970  0.6807
    3MOL   C281 1365   3.605   6.672   3.692  0.8432 -0.4232 -0.0316
    3MOL   C282 1366   3.805   6.521   3.751 -0.4432  0.3383  0.0603
    3MOL   H283 1367   4.343   6.879   4.079 -2.0136 -3.1393  0.8585
    3MOL   H284 1368   4.394   6.972   4.212 -0.5777  0.6693  1.7747
    3MOL   H285 1369   4.270   6.836   4.235  0.1941  0.7994  1.2042
    3MOL   H286 1370   4.166   7.052   4.249  0.3924 -1.0071  1.2264
    3MOL   H287 1371   4.237   7.101   4.091  0.1380 -2.6686 -1.6608
    3MOL   H288 1372   4.002   7.057   4.058 -0.7438  0.0935  2.0065
    3MOL   H289 1373   4.103   6.942   3.973 -3.0507  0.0608 -1.0646
    3MOL   H290 1374   4.064   6.767   4.130  0.5145 -0.2136 -0.2908
    3MOL   H291 1375   3.991   6.876   4.238 -1.9966  1.2502 -1.1276
    3MOL   H292 1376   3.797   6.919   4.081 -0.4174 -0.2477  2.1980
    3MOL   H293 1377   3.809   6.761   4.147  2.0130 -0.6347 -0.8983
    3MOL   H294 1378   3.521   6.618   3.737 -0.9047  1.9607 -0.3335
    3MOL   H295 1379   3.567   6.774   3.690  2.7889  0.3031 -1.1333
    3MOL   H296 1380   3.614   6.642   3.588 -0.8299  0.7192 -0.5209
    3MOL   H297 1381   3.742   6.463   3.818 -1.9844 -0.7451 -2.2717
    3MOL   H298 1382   3.780   6.484   3.651  1.6413 -1.8462  0.2989
    3MOL   C299 1383   4.549   6.083   3.538 -0.6602  0.4679 -0.5888
    3MOL   C300 1384   4.417   6.140   3.482 -0.4789 -0.2347 -0.3254
    3MOL   C301 1385   4.403   6.282   3.533 -0.0904 -0.7833 -0.0723
    3MOL   C302 1386   4.294   6.360   3.449  0.5934 -0.1592  0.2151
    3MOL   C303 1387   4.244   6.496   3.494  0.2716 -0.4728 -0.5824
    3MOL   O304 1388   4.159   6.484   3.614  0.1453 -0.5568  0.5224
    3MOL   C305 1389   4.022   6.488   3.609  0.7626 -0.1521  0.5241
    3MOL   O306 1390   3.955   6.498   3.507  0.0232 -0.1187 -0.4698
    3MOL   C307 1391   3.959   6.474   3.746  0.0579  0.3854 -0.0133
    3MOL   C308 1392   4.038   6.564   3.846 -0.5713  0.2649  0.2904
    3MOL   C309 1393   3.965   6.329   3.805  0.0173 -0.4746 -1.0021
    3MOL   H310 1394   4.580   5.983   3.507 -0.5011  0.5803 -0.7903
    3MOL   H311 1395   4.540   6.073   3.646  3.4312  1.3033 -0.0840
    3MOL   H312 1396   4.638   6.145   3.525  0.4678 -1.1643 -0.8095
    3MOL   H313 1397   4.329   6.083   3.510 -0.8522  0.3118 -0.3973
    3MOL   H314 1398   4.421   6.135   3.373 -0.1645 -1.8838 -0.2573
    3MOL   H315 1399   4.499   6.332   3.515 -0.8976 -0.0656 -2.4943
    3MOL   H316 1400   4.379   6.279   3.639 -0.0874 -0.7262 -0.0696
    3MOL   H317 1401   4.209   6.292   3.443  0.5799 -0.2756  1.5166
    3MOL   H318 1402   4.332   6.376   3.349 -0.5862  0.6301 -0.1172
    3MOL   H319 1403   4.331   6.557   3.518 -0.7678 -0.5313  3.7840
    3MOL   H320 1404   4.185   6.540   3.413 -0.5449 -1.5364 -0.5734
    3MOL   H321 1405   4.035   6.672   3.834 -2.2705 -0.0371 -2.1830
    3MOL   H322 1406   4.000   6.554   3.948  0.5411  3.2794  1.0444
    3MOL   H323 1407   4.143   6.535   3.853 -0.7792 -1.7621 -3.8715
    3MOL   H324 1408   3.923   6.337   3.905  0.1991  0.8131 -1.0167
    3MOL   H325 1409   4.069   6.304   3.823  0.6145  2.0471 -0.7054
    3MOL   C326 1410   3.583   6.426   3.058  0.2295  0.4138  0.3039
    3MOL   C327 1411   3.711   6.381   3.120  0.0062  0.4918 -0.1051
    3MOL   C328 1412   3.711   6.369   3.276 -0.2563 -0.0748  0.0765
    3MOL   C329 1413   3.631   6.252   3.339 -0.5345  0.2498  0.2133
    3MOL   C330 1414   3.620   6.261   3.491 -0.2458  0.5773 -0.0850
    3MOL   O331 1415   3.752   6.244   3.546 -0.2926 -0.5930  0.1923
    3MOL   C332 1416   3.763   6.230   3.683  0.1258 -0.2630 -0.7459
    3MOL   O333 1417   3.667   6.224   3.764 -0.2599  0.1728 -0.1452
    3MOL   C334 1418   3.907   6.202   3.732 -0.0405 -0.0721 -0.0633
    3MOL   C335 1419   3.993   6.157   3.618 -0.4702 -0.9606 -0.6347
    3MOL   C336 1420   3.905   6.096   3.853 -0.6151  0.5031 -0.5028
    3MOL   H337 1421   3.554   6.529   3.077 -0.5446  0.1023  0.8079
    3MOL   H338 1422   3.501   6.363   3.091 -0.0286  1.7062  2.2314
    3MOL   H339 1423   3.587   6.409   2.951  1.6942  0.2244  0.3745
    3MOL   H340 1424   3.792   6.445   3.086 -0.5568  1.6522  0.6775
    3MOL   H341 1425   3.730   6.278   3.089  3.9017  1.2611 -0.4709
    3MOL   H342 1426   3.664   6.458   3.319  1.4696  0.8032  0.2209
    3MOL   H343 1427   3.813   6.373   3.315 -0.1680 -0.4893 -0.1108
    3MOL   H344 1428   3.682   6.160   3.311  0.6773  1.1032 -0.4881
    3MOL   H345 1429   3.535   6.247   3.288  0.0944  0.7853 -1.0726
    3MOL   H346 1430   3.550   6.185   3.527  0.2489  0.4486  0.6122
    3MOL   H347 1431   3.594   6.363   3.520  1.4259  0.5895  1.4567
    3MOL   H348 1432   3.932   6.093   3.555  0.9266 -1.9250 -1.0375
    3MOL   H349 1433   4.081   6.107   3.659 -0.9862  2.3371  4.9622
    3MOL   H350 1434   4.022   6.237   3.549  1.7471 -0.4250  0.8722
    3MOL   H351 1435   3.843   6.145   3.928 -1.8638  0.5236 -1.5296
    3MOL   H352 1436   4.004   6.096   3.897 -0.1478  1.3394 -1.5515
    3MOL   C353 1437   3.762   5.536   3.090 -0.2647 -0.5002  0.0140
    3MOL   C354 1438   3.716   5.614   3.214 -0.2079 -0.1523 -0.5061
    3MOL   C355 1439   3.841   5.657   3.298  0.0650 -0.2518  0.2706
    3MOL   C356 1440   3.804   5.752   3.411 -0.4088  0.8297 -0.8362
    3MOL   C357 1441   3.914   5.784   3.519 -0.3555 -0.0341 -0.4022
    3MOL   O358 1442   3.861   5.843   3.634  0.1255  0.2818  0.2343
    3MOL   C359 1443   3.936   5.878   3.738 -0.3207 -0.0027  0.3355
    3MOL   O360 1444   4.062   5.862   3.737  0.3087  0.2876  0.0998
    3MOL   C361 1445   3.867   5.942   3.864  0.3193 -0.2685 -0.2279
    3MOL   C362 1446   3.716   5.929   3.849  0.0341  0.4038  0.2476
    3MOL   C363 1447   3.927   5.903   4.005  0.3136  0.3340  0.4992
    3MOL   H364 1448   3.801   5.445   3.137 -2.8816  0.1234  3.6643
    3MOL   H365 1449   3.837   5.598   3.041 -0.8105  0.1454 -0.0061
    3MOL   H366 1450   3.683   5.515   3.018  0.2785 -1.1946 -0.3855
    3MOL   H367 1451   3.670   5.709   3.187 -0.2020  0.5758  1.8735
    3MOL   H368 1452   3.644   5.565   3.279  0.2123  0.6733  0.6014
    3MOL   H369 1453   3.916   5.706   3.237 -0.3014  1.3066  1.0416
    3MOL   H370 1454   3.886   5.570   3.347  2.5351  1.3080  0.8271
    3MOL   H371 1455   3.722   5.705   3.465  0.3585 -0.8848 -1.1282
    3MOL   H372 1456   3.767   5.851   3.382 -2.0416  1.1983  2.2255
    3MOL   H373 1457   3.972   5.695   3.543  1.7167  1.8113  1.8135
    3MOL   H374 1458   3.992   5.856   3.493  0.2626 -0.8550 -0.8238
    3MOL   H375 1459   3.667   5.978   3.934 -0.8738  0.2463 -0.1810
    3MOL   H376 1460   3.664   5.955   3.757 -0.5163 -0.7190  0.2381
    3MOL   H377 1461   3.688   5.824   3.852  0.3609  0.3488  2.1347
    3MOL   H378 1462   4.035   5.897   3.994  0.2204 -1.4204  0.3439
    3MOL   H379 1463   3.898   5.985   4.070  0.3830 -0.2985  1.3317
    3MOL   C380 1464   3.348   6.132   4.650 -0.2963  0.5897 -0.3771
    3MOL   C381 1465   3.479   6.102   4.564 -0.1078 -0.3326  0.4453
    3MOL   C382 1466   3.449   6.013   4.437 -0.1495  0.2316 -0.0729
    3MOL   C383 1467   3.569   6.026   4.352  0.7455  0.4700 -0.0175
    3MOL   C384 1468   3.578   5.906   4.260 -0.2764  0.3553  0.6403
    3MOL   O385 1469   3.699   5.902   4.187 -0.1604 -0.3378  0.1003
    3MOL   C386 1470   3.743   5.782   4.131 -1.4503 -0.0262  0.2084
    3MOL   O387 1471   3.674   5.683   4.137  0.0936 -0.0430  0.4356
    3MOL   C388 1472   3.888   5.769   4.083  0.8898 -0.5532  0.4488
    3MOL   C389 1473   3.915   5.647   3.985 -0.1881  0.1728 -0.1152
    3MOL   C390 1474   3.990   5.760   4.199 -0.4391 -0.3763 -0.3616
    3MOL   H391 1475   3.269   6.181   4.593 -0.9050 -0.1802 -0.2044
    3MOL   H392 1476   3.298   6.043   4.688 -2.3179  2.3974  1.3482
    3MOL   H393 1477   3.366   6.202   4.732 -0.3938 -0.5091  0.5988
    3MOL   H394 1478   3.554   6.042   4.615  2.1766 -0.7045 -3.1866
    3MOL   H395 1479   3.522   6.198   4.534  2.1134 -1.7840 -1.2131
    3MOL   H396 1480   3.430   5.914   4.477 -2.5975  1.4093  1.8234
    3MOL   H397 1481   3.360   6.040   4.381  0.4179 -1.0128 -1.5998
    3MOL   H398 1482   3.570   6.120   4.297  2.2240  1.3639  1.4753
    3MOL   H399 1483   3.666   6.024   4.402  0.4188  4.6568  0.9813
    3MOL   H400 1484   3.497   5.896   4.188 -0.2284 -1.2037  0.7904
    3MOL   H401 1485   3.575   5.811   4.313 -1.5944  1.3563  2.4328
    3MOL   H402 1486   3.984   5.672   3.905  0.0488  3.2249  0.9974
    3MOL   H403 1487   3.826   5.612   3.933 -0.1697  0.0672 -0.0752
    3MOL   H404 1488   3.975   5.565   4.025  1.2317  0.5738 -1.3795
    3MOL   H405 1489   4.025   5.860   4.227 -1.5052  0.0805 -0.6557
    3MOL   H406 1490   4.083   5.725   4.155 -0.6785 -0.1562 -1.0425
    3MOL   C407 1491   3.376   5.404   4.390  0.1883  0.0013 -0.1685
    3MOL   C408 1492   3.415   5.479   4.514  0.1694  0.5307  0.2998
    3MOL   C409 1493   3.543   5.559   4.492  0.6646  0.6220 -0.1546
    3MOL   C410 1494   3.595   5.629   4.618 -0.5574  0.0900 -0.3566
    3MOL   C411 1495   3.710   5.725   4.584 -0.4104 -0.1638  0.6308
    3MOL   O412 1496   3.809   5.674   4.510 -0.3630 -0.1481 -1.1157
    3MOL   C413 1497   3.877   5.758   4.431 -0.4698  0.4310 -0.2407
    3MOL   O414 1498   3.870   5.880   4.436 -0.1715 -0.2952 -0.1245
    3MOL   C415 1499   3.974   5.688   4.337 -0.2535  0.1269 -0.0054
    3MOL   C416 1500   3.917   5.546   4.314  0.4073 -0.5233 -0.0974
    3MOL   C417 1501   4.120   5.660   4.392 -0.1324 -0.1027  0.0863
    3MOL   H418 1502   3.299   5.330   4.410 -1.3360  1.4614 -0.5171
    3MOL   H419 1503   3.324   5.474   4.324 -0.2190  1.2130  1.4136
    3MOL   H420 1504   3.455   5.343   4.345 -0.4909 -1.5137  0.6570
    3MOL   H421 1505   3.431   5.394   4.580 -2.4515 -1.1629 -1.1355
    3MOL   H422 1506   3.328   5.533   4.553 -2.1493 -1.8302 -1.3902
    3MOL   H423 1507   3.614   5.492   4.444  0.1897  0.6820 -0.9497
    3MOL   H424 1508   3.531   5.630   4.410 -3.0214 -1.1336 -1.2303
    3MOL   H425 1509   3.627   5.562   4.698 -0.9568 -0.2246 -0.4554
    3MOL   H426 1510   3.518   5.690   4.665 -0.4024 -0.7626  1.0406
    3MOL   H427 1511   3.664   5.814   4.539  1.9544  0.8150  0.0463
    3MOL   H428 1512   3.766   5.750   4.674 -0.6955 -1.9932  1.3329
    3MOL   H429 1513   3.927   5.481   4.400 -0.9927 -0.0911  0.4024
    3MOL   H430 1514   3.969   5.489   4.237  0.0426 -1.3613  0.2704
    3MOL   H431 1515   3.810   5.540   4.291  0.2519 -1.5801  0.8761
    3MOL   H432 1516   4.179   5.610   4.316  1.5613 -0.3533  1.5265
    3MOL   H433 1517   4.110   5.575   4.460 -1.0409 -0.7880 -0.8874
    3MOL   C434 1518   4.282   5.203   4.544  0.6731 -0.2492  0.2061
    3MOL   C435 1519   4.376   5.210   4.429  0.1721 -0.3273  0.4560
    3MOL   C436 1520   4.410   5.347   4.372 -0.8853  0.8250  0.8093
    3MOL   C437 1521   4.500   5.437   4.455 -0.0292  0.7616 -0.1682
    3MOL   C438 1522   4.528   5.576   4.396  0.4673 -1.0297 -0.1622
    3MOL   O439 1523   4.403   5.639   4.380  0.4133 -0.2124  0.0725
    3MOL   C440 1524   4.343   5.697   4.489 -0.0787  0.1152 -0.6713
    3MOL   O441 1525   4.384   5.685   4.603  0.0099  0.4058 -0.6122
    3MOL   C442 1526   4.204   5.767   4.471 -0.7226 -0.1372 -0.3317
    3MOL   C443 1527   4.132   5.800   4.606 -0.2737  0.0776 -0.5454
    3MOL   C444 1528   4.232   5.901   4.388 -0.2823  0.1683  0.2629
    3MOL   H445 1529   4.255   5.101   4.572 -0.2820 -0.9602 -3.0948
    3MOL   H446 1530   4.324   5.248   4.634  1.4010  0.4604 -0.4779
    3MOL   H447 1531   4.185   5.244   4.516  0.4206 -1.2328 -0.3939
    3MOL   H448 1532   4.466   5.154   4.454  0.2683 -1.4189 -2.1589
    3MOL   H449 1533   4.325   5.158   4.349  1.1816  0.5000 -0.7418
    3MOL   H450 1534   4.463   5.329   4.278 -1.6028  0.0841  0.5366
    3MOL   H451 1535   4.324   5.399   4.330 -1.0389  0.1030  0.2148
    3MOL   H452 1536   4.595   5.393   4.487 -0.0721  0.9948  0.2835
    3MOL   H453 1537   4.453   5.462   4.550  2.4883  1.7518  0.8671
    3MOL   H454 1538   4.586   5.564   4.305  0.7648 -1.4059  0.0770
    3MOL   H455 1539   4.601   5.632   4.456 -1.4383  0.3538  0.9257
    3MOL   H456 1540   4.199   5.846   4.679 -0.8423 -0.6915  0.4616
    3MOL   H457 1541   4.065   5.886   4.598 -1.5622 -0.9787 -1.2369
    3MOL   H458 1542   4.079   5.719   4.655  0.4022  1.4502  2.5592
    3MOL   H459 1543   4.134   5.951   4.388 -0.7789 -0.7659 -1.1287
    3MOL   H460 1544   4.250   5.875   4.284 -1.0004 -0.3569  0.2681
    3MOL   C461 1545   4.839   5.650   4.666 -0.7355  0.1111 -0.3486
    3MOL   C462 1546   4.882   5.795   4.617  0.4447 -0.1115 -0.4216
    3MOL   C463 1547   4.777   5.852   4.525  0.9654  0.7176  0.1825
    3MOL   C464 1548   4.807   6.001   4.478  0.7152  0.3578 -0.2357
    3MOL   C465 1549   4.710   6.049   4.365  0.0559 -0.5341  0.8838
    3MOL   O466 1550   4.577   6.065   4.413  0.1055  0.0148  0.1211
    3MOL   C467 1551   4.484   5.979   4.367 -0.4634  0.6999 -0.6894
    3MOL   O468 1552   4.499   5.899   4.279 -0.1209 -0.0727  0.3544
    3MOL   C469 1553   4.342   6.012   4.427  0.0774 -0.8280 -0.4341
    3MOL   C470 1554   4.348   6.033   4.582  0.0587 -0.1990 -0.3566
    3MOL   C471 1555   4.302   6.150   4.369 -0.3686 -0.0928  0.2919
    3MOL   H472 1556   4.818   5.572   4.593 -0.6046  0.1055 -0.3816
    3MOL   H473 1557   4.753   5.656   4.733  0.8696  0.8040  1.7233
    3MOL   H474 1558   4.911   5.615   4.741 -0.7459  1.0654  0.1180
    3MOL   H475 1559   4.983   5.792   4.576  0.8074  0.1059  0.4422
    3MOL   H476 1560   4.892   5.858   4.705 -1.5969 -2.1845  1.3553
    3MOL   H477 1561   4.679   5.847   4.573  0.2728  0.4860 -1.2432
    3MOL   H478 1562   4.757   5.791   4.437  2.6192  1.5723 -0.8011
    3MOL   H479 1563   4.913   6.007   4.455  0.8489  0.8702  0.4755
    3MOL   H480 1564   4.792   6.064   4.566 -1.5178  1.0507 -1.0574
    3MOL   H481 1565   4.755   6.145   4.339  1.9351 -1.6662 -0.1752
    3MOL   H482 1566   4.721   5.975   4.286 -0.7225  1.7072 -1.3719
    3MOL   H483 1567   4.392   5.954   4.643 -0.2640 -0.8639 -0.9798
    3MOL   H484 1568   4.251   6.056   4.626 -1.2570 -0.9157 -2.7942
    3MOL   H485 1569   4.413   6.114   4.616 -1.8707  0.9634  0.6813
    3MOL   H486 1570   4.370   6.218   4.421 -0.9904 -0.2593  1.3471
    3MOL   H487 1571   4.214   6.175   4.429  0.1623 -1.0474  1.4950
    3MOL   C488 1572   4.343   6.955   4.565 -0.3562 -0.2886  0.1615
    3MOL   C489 1573   4.360   6.807   4.528  0.3564  0.6979  0.0136
    3MOL   C490 1574   4.231   6.731   4.515  0.1171  0.5550 -0.7108
    3MOL   C491 1575   4.233   6.581   4.482 -0.4798 -0.4224 -0.1594
    3MOL   C492 1576   4.270   6.564   4.335  0.1715  0.0491  0.8422
    3MOL   O493 1577   4.304   6.432   4.306 -0.6545 -0.4408  0.1439
    3MOL   C494 1578   4.225   6.346   4.237  0.3853 -0.7476 -0.3616
    3MOL   O495 1579   4.107   6.372   4.212 -0.8127  0.5473 -0.0411
    3MOL   C496 1580   4.287   6.204   4.222  0.0923  0.3622 -0.1861
    3MOL   C497 1581   4.185   6.118   4.146  0.1393 -0.4925 -0.5162
    3MOL   C498 1582   4.426   6.214   4.142 -0.4411 -0.6637 -0.3440
    3MOL   H499 1583   4.428   6.992   4.621  1.9545 -2.9192 -1.4822
    3MOL   H500 1584   4.330   7.012   4.472  0.3533  0.9568  0.8265
    3MOL   H501 1585   4.255   6.963   4.628 -0.3966  0.3791  0.0232
    3MOL   H502 1586   4.421   6.767   4.609  0.9061 -0.7597 -1.0805
    3MOL   H503 1587   4.429   6.786   4.446 -1.3274  0.5405 -1.3956
    3MOL   H504 1588   4.183   6.742   4.612 -0.1403  0.7288 -0.8580
    3MOL   H505 1589   4.165   6.778   4.443 -1.8402  0.6806  1.1326
    3MOL   H506 1590   4.134   6.545   4.511 -0.1913  0.3919  1.9530
    3MOL   H507 1591   4.300   6.532   4.553 -2.0686 -3.3165 -0.5393
    3MOL   H508 1592   4.185   6.595   4.275  0.5367 -1.8041 -0.6739
    3MOL   H509 1593   4.346   6.630   4.294 -1.9862  1.0122 -1.7175
    3MOL   H510 1594   4.094   6.108   4.205  0.1162 -0.4852 -0.5522
    3MOL   H511 1595   4.201   6.012   4.128 -1.4370 -0.6933 -0.8318
    3MOL   H512 1596   4.153   6.173   4.057 -1.0600  1.9883  1.3803
    3MOL   H513 1597   4.486   6.127   4.172 -1.5438 -0.8983  1.2408
    3MOL   H514 1598   4.484   6.292   4.191 -0.8884  0.0738 -0.9887
    3MOL   C515 1599   4.334   5.382   3.985 -0.1385  0.1420  0.7433
    3MOL   C516 1600   4.386   5.519   4.038 -0.5805 -0.1388 -0.4420
    3MOL   C517 1601   4.375   5.627   3.932  0.5008  0.0575 -0.5185
    3MOL   C518 1602   4.416   5.756   4.000 -0.2134  0.3689 -0.2785
    3MOL   C519 1603   4.381   5.873   3.904 -0.4009 -0.2501 -0.1239
    3MOL   O520 1604   4.433   5.993   3.959  0.0681 -0.3212 -0.4325
    3MOL   C521 1605   4.379   6.102   3.913  0.1124 -0.5224 -0.3645
    3MOL   O522 1606   4.298   6.109   3.822 -0.2251 -0.1050 -0.1776
    3MOL   C523 1607   4.430   6.229   3.985 -0.2200  0.0327  0.9375
    3MOL   C524 1608   4.584   6.233   3.941 -0.2388 -0.4532  0.9464
    3MOL   C525 1609   4.356   6.366   3.949 -0.3021 -0.0525 -1.0757
    3MOL   H526 1610   4.412   5.351   3.916  1.0647  3.2045  0.6697
    3MOL   H527 1611   4.316   5.304   4.059 -0.3788  1.1872  1.7951
    3MOL   H528 1612   4.240   5.391   3.931  0.8927 -1.1356 -1.3045
    3MOL   H529 1613   4.323   5.552   4.121  1.0265  0.4077  0.5983
    3MOL   H530 1614   4.490   5.512   4.071 -0.1716  0.5965 -1.5574
    3MOL   H531 1615   4.429   5.600   3.841 -0.5082 -1.7995 -0.5831
    3MOL   H532 1616   4.273   5.640   3.896  0.3091 -1.2226 -0.4587
    3MOL   H533 1617   4.520   5.760   4.033 -0.3402 -0.3043  0.2118
    3MOL   H534 1618   4.358   5.764   4.091  1.7044 -0.7364  1.0700
    3MOL   H535 1619   4.429   5.860   3.807  0.1921  0.1586  0.1111
    3MOL   H536 1620   4.272   5.874   3.894 -0.5593  2.4870  1.4571
    3MOL   H537 1621   4.628   6.325   3.980  0.1551 -0.3125  0.1829
    3MOL   H538 1622   4.599   6.224   3.833 -2.5691  0.3070  0.5303
    3MOL   H539 1623   4.642   6.164   4.001 -3.3322 -1.1460  3.2585
    3MOL   H540 1624   4.353   6.443   4.025  0.8554  0.1383 -1.2208
    3MOL   H541 1625   4.252   6.344   3.925 -0.5905 -0.1599  0.2396
    3MOL   H542 1626   4.406   6.411   3.863  0.4104  0.2040 -0.5252
    4MOL     C1 1627   0.498   4.286   3.263  0.2813  0.1194  0.3723
    4MOL     C2 1628   0.371   4.264   3.180 -0.2653 -0.2147 -0.1600
    4MOL     C3 1629   0.308   4.123   3.194  0.0720 -0.3251 -0.5909
    4MOL     C4 1630   0.399   4.004   3.156 -0.2112 -0.6312 -0.3758
    4MOL     C5 1631   0.344   3.869   3.134  0.1677  0.6646  0.1140
    4MOL     O6 1632   0.278   3.837   3.253  0.1157 -0.3361 -0.0933
    4MOL     C7 1633   0.332   3.768   3.349  0.1400  0.2169 -0.0327
    4MOL     O8 1634   0.443   3.714   3.344 -0.6037  0.1655 -0.0722
    4MOL     C9 1635   0.240   3.748   3.464  0.4613  0.1402  0.0863
    4MOL    C10 1636   0.129   3.648   3.437  1.1670  0.3836  0.0098
    4MOL    C11 1637   0.171   3.882   3.513 -0.5060 -0.3059  0.0218
    4MOL    H12 1638   0.573   4.213   3.231 -1.6442 -1.6671 -0.1618
    4MOL    H13 1639   0.466   4.267   3.365  0.4146  0.7617  0.5310
    4MOL    H14 1640   0.532   4.389   3.259  1.8407 -0.3236  1.7557
    4MOL    H15 1641   0.306   4.345   3.210  1.5932  1.1399  0.2928
    4MOL    H16 1642   0.395   4.282   3.075 -1.3391  1.1845 -0.1701
    4MOL    H17 1643   0.280   4.120   3.299  2.1281  0.3062  0.0048
    4MOL    H18 1644   0.217   4.127   3.134 -0.4527  1.2519  0.2681
    4MOL    H19 1645   0.469   4.006   3.239  0.3265  2.6505 -0.8444
    4MOL    H20 1646   0.456   4.023   3.065 -1.7035  2.5450 -0.7084
    4MOL    H21 1647   0.278   3.855   3.049  0.7780 -1.4897 -0.0369
    4MOL    H22 1648   0.431   3.806   3.119 -1.4853 -1.2931 -1.5997
    4MOL    H23 1649   0.070   3.631   3.528  0.6574 -1.9698 -0.7197
    4MOL    H24 1650   0.177   3.555   3.408  0.4060 -0.2125  0.6172
    4MOL    H25 1651   0.066   3.686   3.357  0.6208  3.6211  1.9059
    4MOL    H26 1652   0.066   3.862   3.534 -1.1317  1.6420 -1.1287
    4MOL    H27 1653   0.184   3.962   3.441  0.0089 -0.2413  0.1775
    4MOL    H28 1654   0.300   3.709   3.546 -0.6672 -0.2867  0.7214
    4MOL    C29 1655   7.766   4.629   3.710  0.1473  0.0081 -0.7127
    4MOL    C30 1656   7.703   4.489   3.724  0.1973  0.0256  0.3909
    4MOL    C31 1657   7.697   4.413   3.590  0.1188 -0.0032  0.1887
    4MOL    C32 1658   7.765   4.275   3.582 -0.1908 -0.2548 -0.5180
    4MOL    C33 1659   0.104   4.288   3.603 -0.4536 -0.0016 -0.0656
    4MOL    O34 1660   0.168   4.166   3.581  0.1709 -0.3223  0.1751
    4MOL    C35 1661   0.179   4.078   3.681 -0.0601 -0.4438  0.1666
    4MOL    O36 1662   0.132   4.101   3.790  0.6884  0.3251  0.1014
    4MOL    C37 1663   0.242   3.944   3.642  0.2474  0.1020 -0.6019
    4MOL    C38 1664   0.389   3.976   3.620 -0.4644  0.3856 -0.1239
    4MOL    C39 1665   0.199   3.835   3.759 -0.1539 -0.0657 -0.3550
    4MOL    H40 1666   7.725   4.690   3.630 -0.1176  2.3723  1.1506
    4MOL    H41 1667   7.749   4.678   3.806 -1.1890  0.4148 -1.1538
    4MOL    H42 1668   0.059   4.615   3.696  0.4641 -0.1417  1.5989
    4MOL    H43 1669   7.603   4.500   3.765  1.0656  1.9424  2.1088
    4MOL    H44 1670   7.756   4.438   3.805  1.6803  2.0615  0.7484
    4MOL    H45 1671   7.732   4.486   3.517 -3.2318 -0.0421 -1.5815
    4MOL    H46 1672   7.593   4.396   3.562  0.3540 -1.7273  0.2967
    4MOL    H47 1673   7.717   4.222   3.665 -2.6678 -1.0296 -2.3926
    4MOL    H48 1674   7.747   4.228   3.486  1.3889 -0.8519 -0.5408
    4MOL    H49 1675   0.128   4.318   3.705 -2.1058  0.6421  0.1592
    4MOL    H50 1676   0.158   4.360   3.542  0.0032 -0.6121 -0.3768
    4MOL    H51 1677   0.437   4.006   3.713 -0.3895  1.7668 -0.6044
    4MOL    H52 1678   0.405   4.059   3.551 -0.4949 -0.1540 -0.7848
    4MOL    H53 1679   0.453   3.896   3.582 -0.9723  0.1726 -0.5386
    4MOL    H54 1680   0.154   3.746   3.716 -0.3033  0.9555 -2.3681
    4MOL    H55 1681   0.102   3.872   3.794 -0.4429  1.0064 -2.1803
    4MOL    C56 1682   0.200   3.115   3.807 -0.1796 -0.3225  0.6295
    4MOL    C57 1683   0.252   3.197   3.680  0.6709 -1.1464 -0.0267
    4MOL    C58 1684   0.339   3.314   3.730  0.1701  0.1364  0.5113
    4MOL    C59 1685   0.374   3.409   3.620 -0.0186  0.2235 -0.3427
    4MOL    C60 1686   0.454   3.526   3.668  0.0771 -0.0428  0.3470
    4MOL    O61 1687   0.368   3.592   3.759 -0.2007  0.1034 -0.1138
    4MOL    C62 1688   0.407   3.712   3.809  0.5490  0.4632 -0.2231
    4MOL    O63 1689   0.513   3.768   3.797  0.3429 -0.3269  0.1935
    4MOL    C64 1690   0.293   3.796   3.875  0.9454  0.2799  0.4294
    4MOL    C65 1691   0.205   3.701   3.959 -0.6881 -0.2231 -0.0875
    4MOL    C66 1692   0.355   3.920   3.966  0.1488  0.2905  0.5513
    4MOL    H67 1693   0.123   3.041   3.787 -0.1401 -0.0902 -0.4174
    4MOL    H68 1694   0.168   3.183   3.885  1.0017  1.2319 -0.2156
    4MOL    H69 1695   0.286   3.065   3.851  0.4029 -1.2982 -1.5086
    4MOL    H70 1696   0.313   3.130   3.619 -0.0264 -0.8234 -1.0888
    4MOL    H71 1697   0.170   3.245   3.626  0.8275  1.1911  1.7363
    4MOL    H72 1698   0.272   3.357   3.804 -0.2372 -0.3799  0.4483
    4MOL    H73 1699   0.428   3.278   3.781 -0.5474 -0.6433  1.2395
    4MOL    H74 1700   0.284   3.447   3.571 -0.3984 -0.2478 -0.0255
    4MOL    H75 1701   0.423   3.353   3.541 -0.2965 -1.2874  0.5287
    4MOL    H76 1702   0.548   3.487   3.708  0.1357 -0.2274  0.0368
    4MOL    H77 1703   0.481   3.590   3.584 -0.6308 -0.4204 -0.1677
    4MOL    H78 1704   0.266   3.664   4.041 -0.6976 -0.5019 -0.2027
    4MOL    H79 1705   0.149   3.623   3.907  0.0073  0.0087 -1.2117
    4MOL    H80 1706   0.138   3.772   4.007 -0.4693 -0.6789  0.9020
    4MOL    H81 1707   0.281   4.000   3.965  0.3622  0.4848 -0.0283
    4MOL    H82 1708   0.435   3.961   3.904  0.3013 -2.5707 -1.2494
    4MOL    C83 1709   7.601   4.192   4.017 -0.4540  0.7341  0.3439
    4MOL    C84 1710   7.587   4.040   3.987  0.0742  0.0628  0.3885
    4MOL    C85 1711   7.714   3.969   4.037  0.3225 -0.2980  0.1836
    4MOL    C86 1712   7.753   3.996   4.188  0.0417  0.3255 -0.1751
    4MOL    C87 1713   0.053   3.908   4.240 -0.3631 -0.1505 -0.3834
    4MOL    O88 1714   0.184   3.945   4.196 -0.3113  0.1004 -0.1562
    4MOL    C89 1715   0.292   3.872   4.205 -0.2343  0.3714 -0.1927
    4MOL    O90 1716   0.309   3.782   4.282  0.1161  0.9502 -0.2429
    4MOL    C91 1717   0.408   3.927   4.120 -0.0430 -0.1957  0.2077
    4MOL    C92 1718   0.538   3.841   4.135  0.5785  0.0038 -0.1807
    4MOL    C93 1719   0.435   4.075   4.154 -0.1291 -0.0665  0.5413
    4MOL    H94 1720   7.703   4.227   4.003  0.6029 -1.8917  1.1896
    4MOL    H95 1721   7.527   4.259   3.972  1.2562  1.2299 -1.7637
    4MOL    H96 1722   7.585   4.215   4.123 -1.7545  1.3095  0.0317
    4MOL    H97 1723   7.585   4.040   3.878 -0.8745 -1.8989  0.3912
    4MOL    H98 1724   7.493   4.008   4.032  0.2502 -1.0728 -0.0346
    4MOL    H99 1725   7.793   3.994   3.966 -0.2507  3.4567  0.7765
    4MOL   H100 1726   7.709   3.860   4.032  2.9512 -0.3315 -3.1154
    4MOL   H101 1727   7.669   3.960   4.247 -0.4988  0.8225 -0.6353
    4MOL   H102 1728   7.772   4.102   4.204  1.4902  0.3299 -1.7604
    4MOL   H103 1729   0.038   3.805   4.207  1.2892 -0.5389  0.0146
    4MOL   H104 1730   0.043   3.906   4.349 -0.1598  0.0882 -0.3605
    4MOL   H105 1731   0.526   3.737   4.108 -0.7197 -0.0095  0.4140
    4MOL   H106 1732   0.579   3.824   4.235  0.6888 -0.5821 -0.3277
    4MOL   H107 1733   0.620   3.877   4.072  1.1216 -0.4917  0.2337
    4MOL   H108 1734   0.500   4.106   4.072 -0.0064 -2.9008 -0.4964
    4MOL   H109 1735   0.346   4.130   4.124  0.7866  0.2012 -1.7995
    4MOL   C110 1736   1.033   4.482   4.074 -0.0687  0.3186 -0.0091
    4MOL   C111 1737   1.030   4.334   4.093  0.7620  0.1438  0.0003
    4MOL   C112 1738   0.952   4.299   4.222 -0.4975 -0.4398 -0.3889
    4MOL   C113 1739   0.951   4.150   4.253 -0.1181 -0.3917 -0.4331
    4MOL   C114 1740   0.836   4.074   4.183 -0.5447 -0.9667 -0.1816
    4MOL   O115 1741   0.715   4.137   4.213  0.1752  0.3823  0.4707
    4MOL   C116 1742   0.640   4.093   4.313 -0.3779  0.1402  0.3852
    4MOL   O117 1743   0.676   4.028   4.411  1.2514 -0.1176  0.0240
    4MOL   C118 1744   0.489   4.134   4.293  0.4908 -0.3714  0.3852
    4MOL   C119 1745   0.408   4.079   4.423  0.0992 -0.5535 -0.2751
    4MOL   C120 1746   0.476   4.289   4.276  0.3526 -0.2496  0.1916
    4MOL   H121 1747   1.049   4.533   4.169 -1.2462 -1.6751  1.2802
    4MOL   H122 1748   1.112   4.499   4.000  0.8247 -2.5618  0.2032
    4MOL   H123 1749   0.933   4.508   4.041  0.0655 -0.5667 -1.1411
    4MOL   H124 1750   1.009   4.282   4.000  2.2744 -1.8474  0.7287
    4MOL   H125 1751   1.134   4.305   4.108  1.5532  2.4487 -0.7534
    4MOL   H126 1752   0.995   4.352   4.307 -1.1764 -2.7884  1.5115
    4MOL   H127 1753   0.852   4.339   4.210  0.2254  2.2468  1.8946
    4MOL   H128 1754   0.946   4.143   4.362  1.4826 -2.2229 -0.4441
    4MOL   H129 1755   1.043   4.098   4.227 -0.6734 -1.2550 -0.7048
    4MOL   H130 1756   0.840   4.055   4.076  0.6288 -3.8398  0.3264
    4MOL   H131 1757   0.834   3.972   4.223 -1.2027 -0.8463  0.0984
    4MOL   H132 1758   0.459   4.122   4.509 -0.1211 -0.1148 -0.3662
    4MOL   H133 1759   0.302   4.102   4.419  0.5014  1.5533  0.7102
    4MOL   H134 1760   0.408   3.970   4.429 -0.0319 -0.5251  0.2063
    4MOL   H135 1761   0.546   4.309   4.195  0.4504  0.7103  0.5096
    4MOL   H136 1762   0.380   4.312   4.231  1.8105  0.3033 -2.8239
    4MOL   C137 1763   0.938   5.004   4.081 -0.1704  0.2971 -0.2704
    4MOL   C138 1764   0.883   4.900   3.983  0.2666  0.1758 -0.3682
    4MOL   C139 1765   0.737   4.851   4.026  0.0363 -0.5090  0.0991
    4MOL   C140 1766   0.734   4.730   4.117  0.2269 -0.4094  0.8328
    4MOL   C141 1767   0.600   4.682   4.154  0.0912 -0.3224  0.6445
    4MOL   O142 1768   0.600   4.561   4.222 -0.0205 -0.2388 -0.2577
    4MOL   C143 1769   0.493   4.529   4.295  0.1536 -1.0508  0.0236
    4MOL   O144 1770   0.393   4.595   4.309 -0.1648 -0.2132  0.0815
    4MOL   C145 1771   0.505   4.401   4.379  0.5314  0.6755  0.4714
    4MOL   C146 1772   0.379   4.405   4.483  0.5911 -0.6286 -0.6477
    4MOL   C147 1773   0.643   4.385   4.446  0.3536  0.2655 -0.0911
    4MOL   H148 1774   0.903   5.105   4.063  1.3531  0.5898 -1.7671
    4MOL   H149 1775   1.047   4.993   4.075 -0.3541 -1.3559 -0.7872
    4MOL   H150 1776   0.920   4.968   4.183 -1.3539  2.6484  0.3752
    4MOL   H151 1777   0.954   4.817   3.986 -0.0474 -0.0665  0.7833
    4MOL   H152 1778   0.884   4.932   3.879  0.3324  1.0994 -0.0826
    4MOL   H153 1779   0.682   4.933   4.073  1.1836  0.4033 -0.1331
    4MOL   H154 1780   0.681   4.813   3.940 -0.0942 -0.1039  0.0042
    4MOL   H155 1781   0.788   4.650   4.066 -1.1795 -0.7809 -0.0965
    4MOL   H156 1782   0.788   4.745   4.210  1.6380  1.5514 -0.2691
    4MOL   H157 1783   0.532   4.663   4.071  0.8054 -0.0375 -0.0093
    4MOL   H158 1784   0.549   4.750   4.222 -0.7221 -1.4928  1.2222
    4MOL   H159 1785   0.287   4.395   4.426 -0.2005 -1.9328  0.8380
    4MOL   H160 1786   0.383   4.497   4.542 -1.1936 -1.1860  0.3545
    4MOL   H161 1787   0.391   4.318   4.547  3.4348  1.0710  1.2634
    4MOL   H162 1788   0.649   4.286   4.492 -0.2830 -0.6987 -2.0068
    4MOL   H163 1789   0.717   4.376   4.366  1.1527 -0.7230  0.7472
    4MOL   C164 1790   0.158   3.989   5.000 -0.1157  0.7026 -0.1845
    4MOL   C165 1791   0.294   4.002   4.937  0.8725  0.8647 -0.3776
    4MOL   C166 1792   0.345   4.143   4.949  0.7382  0.0550  0.1068
    4MOL   C167 1793   0.445   4.175   4.834  0.0184 -0.0704 -0.1885
    4MOL   C168 1794   0.476   4.320   4.826  0.2194  0.2131 -0.4556
    4MOL   O169 1795   0.580   4.340   4.725  0.5291 -0.3673 -0.3395
    4MOL   C170 1796   0.603   4.464   4.692 -0.0056 -0.3006  0.0283
    4MOL   O171 1797   0.550   4.564   4.737 -0.3732  0.7220  0.0776
    4MOL   C172 1798   0.691   4.479   4.566  0.3479  0.1569  0.4099
    4MOL   C173 1799   0.702   4.628   4.515  0.3605 -0.9160 -0.2202
    4MOL   C174 1800   0.828   4.423   4.606 -0.0253  0.2957 -0.5938
    4MOL   H175 1801   0.098   4.073   4.965  0.5353  1.6803  0.9949
    4MOL   H176 1802   0.159   3.990   5.109  0.0721  0.5853 -0.1856
    4MOL   H177 1803   0.106   3.898   4.970  2.5946 -2.2236  3.5625
    4MOL   H178 1804   0.279   3.984   4.830  2.4885 -0.6834 -0.3442
    4MOL   H179 1805   0.370   3.934   4.972 -0.2948 -0.7099 -0.8600
    4MOL   H180 1806   0.266   4.218   4.940  0.9326  0.2177 -0.2923
    4MOL   H181 1807   0.401   4.152   5.042 -2.1108 -0.8023  1.9812
    4MOL   H182 1808   0.400   4.153   4.737 -0.4022  0.9071 -0.2176
    4MOL   H183 1809   0.535   4.115   4.844  0.0397 -0.5957 -3.0035
    4MOL   H184 1810   0.515   4.357   4.921 -2.6340  0.2674  0.7646
    4MOL   H185 1811   0.391   4.382   4.798  0.0735  0.3107  0.1838
    4MOL   H186 1812   0.766   4.641   4.427 -0.2218 -2.6134 -0.9256
    4MOL   H187 1813   0.713   4.702   4.593 -0.6229 -0.5349 -0.4379
    4MOL   H188 1814   0.602   4.657   4.483  0.0854 -2.5548 -0.9237
    4MOL   H189 1815   0.816   4.333   4.666 -0.2026  1.2165  0.7748
    4MOL   H190 1816   0.879   4.388   4.516 -2.0104 -2.7376 -0.6249
    4MOL   C191 1817   1.012   4.197   5.315 -0.3450 -0.2429 -0.4855
    4MOL   C192 1818   0.876   4.264   5.272  0.3035 -0.3352  0.0883
    4MOL   C193 1819   0.893   4.338   5.138  0.3238 -0.4762 -0.1584
    4MOL   C194 1820   0.772   4.430   5.102 -0.2667  0.2137  0.0911
    4MOL   C195 1821   0.803   4.546   5.011  0.1911 -0.2325 -0.5223
    4MOL   O196 1822   0.849   4.496   4.890  0.4048  0.1645 -0.6174
    4MOL   C197 1823   0.904   4.587   4.800  0.7073  0.4412  0.1446
    4MOL   O198 1824   0.908   4.710   4.813  0.2609 -0.6341  0.4191
    4MOL   C199 1825   0.942   4.510   4.669  0.0813 -0.0001 -0.0972
    4MOL   C200 1826   1.004   4.613   4.564  0.3865  0.3491  0.6347
    4MOL   C201 1827   1.049   4.405   4.703 -0.3516  0.6444  0.0589
    4MOL   H202 1828   1.087   4.274   5.334 -1.8948  0.9708  0.8922
    4MOL   H203 1829   0.992   4.138   5.404 -1.2465 -0.0945 -0.5868
    4MOL   H204 1830   1.058   4.130   5.243  0.6200  0.6507 -0.7105
    4MOL   H205 1831   0.844   4.333   5.350 -1.3822 -1.0646  0.0604
    4MOL   H206 1832   0.792   4.195   5.276 -0.3007  0.3531 -0.5808
    4MOL   H207 1833   0.919   4.262   5.064  1.5445 -2.1288  1.9321
    4MOL   H208 1834   0.974   4.411   5.148 -0.8301  0.8188 -0.0276
    4MOL   H209 1835   0.690   4.374   5.056 -1.5961  1.5192  0.7979
    4MOL   H210 1836   0.732   4.461   5.199  1.2645  1.3153  0.3847
    4MOL   H211 1837   0.702   4.581   4.992  0.0107 -0.2266  0.4023
    4MOL   H212 1838   0.855   4.629   5.059 -0.1923  0.5928 -1.5179
    4MOL   H213 1839   1.089   4.676   4.592  0.2082  1.2066 -0.6865
    4MOL   H214 1840   0.929   4.688   4.539 -1.1799 -1.1531  0.7261
    4MOL   H215 1841   1.036   4.563   4.472 -3.0431 -3.6387  1.4924
    4MOL   H216 1842   1.062   4.344   4.614 -0.6874  1.8233 -0.7987
    4MOL   H217 1843   1.008   4.335   4.777 -1.4525  0.2575 -0.9028
    4MOL   C218 1844   1.191   4.653   5.498 -0.6757 -0.6865 -0.7452
    4MOL   C219 1845   1.166   4.527   5.416  0.0083 -0.0079  0.2599
    4MOL   C220 1846   1.212   4.547   5.268  0.7838  0.0696 -0.7666
    4MOL   C221 1847   1.132   4.652   5.184 -0.6707 -0.0026  0.3469
    4MOL   C222 1848   1.184   4.665   5.045  0.1291  0.1411 -0.0895
    4MOL   O223 1849   1.179   4.549   4.964 -0.3409  0.2020  0.0522
    4MOL   C224 1850   1.219   4.557   4.834 -0.3424 -0.3690 -0.1149
    4MOL   O225 1851   1.267   4.656   4.786 -0.4035 -0.1137  0.0328
    4MOL   C226 1852   1.196   4.432   4.749 -0.1677  0.3230  0.5099
    4MOL   C227 1853   1.281   4.444   4.615 -0.4816 -0.1347 -0.5959
    4MOL   C228 1854   1.257   4.309   4.827  0.2694 -0.2991 -0.7605
    4MOL   H229 1855   1.289   4.695   5.472 -1.6689  1.4075 -1.1643
    4MOL   H230 1856   1.117   4.730   5.477 -2.7963 -2.4360  0.1191
    4MOL   H231 1857   1.183   4.624   5.603 -1.0822 -1.3446 -0.9549
    4MOL   H232 1858   1.059   4.507   5.426  0.1872 -1.5943 -0.8270
    4MOL   H233 1859   1.224   4.444   5.457  3.6659  2.4365  0.2397
    4MOL   H234 1860   1.221   4.452   5.215  0.8601  0.7427 -1.9886
    4MOL   H235 1861   1.315   4.583   5.267  0.3164  1.5413  1.0395
    4MOL   H236 1862   1.023   4.647   5.188 -0.6291 -1.3707  0.0079
    4MOL   H237 1863   1.144   4.751   5.229  1.3823 -0.5030  0.9208
    4MOL   H238 1864   1.288   4.699   5.047  0.1864  0.0793 -1.5984
    4MOL   H239 1865   1.134   4.751   5.000 -0.4660  0.7452  1.7068
    4MOL   H240 1866   1.386   4.469   4.630 -0.3457 -0.2576 -1.3332
    4MOL   H241 1867   1.237   4.521   4.551 -4.2870 -0.1991  1.7780
    4MOL   H242 1868   1.269   4.359   4.549  0.4645 -1.1059  0.4579
    4MOL   H243 1869   1.196   4.300   4.917 -0.1316 -0.1746 -1.0171
    4MOL   H244 1870   1.347   4.353   4.869  0.2206 -1.8187  0.9621
    4MOL   C245 1871   0.661   3.994   5.082  0.2150  0.5411 -0.7805
    4MOL   C246 1872   0.728   3.944   4.953 -0.4222 -0.3799  0.1867
    4MOL   C247 1873   0.827   4.046   4.883  0.3135  1.1000 -0.1714
    4MOL   C248 1874   0.851   3.997   4.746  0.3946  0.4500  1.1157
    4MOL   C249 1875   0.967   4.062   4.661 -0.1698  0.8410 -0.1297
    4MOL   O250 1876   1.084   4.078   4.738  0.2108  0.2670  0.0647
    4MOL   C251 1877   1.203   4.096   4.679  0.4082 -0.3655  0.6634
    4MOL   O252 1878   1.235   4.070   4.561 -0.3589 -0.1175  0.4354
    4MOL   C253 1879   1.306   4.163   4.779  0.0085 -0.1750  0.1125
    4MOL   C254 1880   1.309   4.080   4.907 -0.3651  0.3838 -0.5547
    4MOL   C255 1881   1.449   4.171   4.718  0.4932  0.1880  0.2170
    4MOL   H256 1882   0.584   3.924   5.115 -0.1717  1.8713  1.2460
    4MOL   H257 1883   0.736   4.010   5.160  0.8269 -0.5538 -1.1328
    4MOL   H258 1884   0.614   4.092   5.070 -1.4959 -0.0647  0.8980
    4MOL   H259 1885   0.779   3.849   4.972  0.8573  0.0729 -0.9471
    4MOL   H260 1886   0.639   3.925   4.892 -1.4045  2.7199  0.5993
    4MOL   H261 1887   0.918   4.049   4.942  0.3406 -0.7188 -0.1109
    4MOL   H262 1888   0.790   4.149   4.881  0.6758  1.2173 -0.6493
    4MOL   H263 1889   0.882   3.893   4.746 -2.3697 -0.4166  1.4371
    4MOL   H264 1890   0.759   3.994   4.688  0.2534  0.3137  1.3456
    4MOL   H265 1891   0.984   4.012   4.566 -1.6380  1.8313 -0.9444
    4MOL   H266 1892   0.939   4.162   4.627 -2.9667  0.2918  0.4199
    4MOL   H267 1893   1.361   3.985   4.897 -0.3659  0.3221  0.0042
    4MOL   H268 1894   1.363   4.140   4.980 -1.1664 -0.9453  1.1691
    4MOL   H269 1895   1.214   4.050   4.953  0.7779 -2.1118  0.2692
    4MOL   H270 1896   1.446   4.205   4.614 -0.0363  0.1951  0.2334
    4MOL   H271 1897   1.497   4.260   4.758 -1.2421  1.3104 -0.1037
    4MOL   C272 1898   1.786   3.385   4.790  0.0604  0.0745 -0.3669
    4MOL   C273 1899   1.730   3.469   4.907 -0.5406 -0.1217  0.3744
    4MOL   C274 1900   1.727   3.626   4.888 -0.4962 -0.6646 -0.0977
    4MOL   C275 1901   1.707   3.708   5.014 -0.8038  0.0339 -0.1976
    4MOL   C276 1902   1.723   3.861   5.003  0.0088  0.2649 -0.7150
    4MOL   O277 1903   1.625   3.901   4.910  0.0710 -0.1426  0.7458
    4MOL   C278 1904   1.619   4.029   4.858 -0.3367 -0.1338  0.7291
    4MOL   O279 1905   1.660   4.131   4.915 -0.0963  0.4791 -0.4691
    4MOL   C280 1906   1.553   4.050   4.715 -0.9467  0.2375 -0.1235
    4MOL   C281 1907   1.494   3.910   4.654 -0.2136 -0.1692  0.0450
    4MOL   C282 1908   1.665   4.094   4.613  0.3812 -0.0933 -0.1303
    4MOL   H283 1909   1.885   3.417   4.757  0.4924 -0.8305  0.0356
    4MOL   H284 1910   1.800   3.280   4.817  0.4291  0.3324  0.4652
    4MOL   H285 1911   1.710   3.393   4.713 -0.2029  0.5059 -0.0652
    4MOL   H286 1912   1.635   3.428   4.942 -1.8094  2.2537 -0.1532
    4MOL   H287 1913   1.807   3.457   4.983  3.4353  0.2984 -3.3837
    4MOL   H288 1914   1.824   3.656   4.846 -0.0188 -0.2337  1.3103
    4MOL   H289 1915   1.649   3.645   4.814 -2.9568 -0.9985  2.3578
    4MOL   H290 1916   1.611   3.685   5.060 -0.9186 -0.5750 -0.7364
    4MOL   H291 1917   1.774   3.669   5.091 -0.1010 -1.0027 -1.3221
    4MOL   H292 1918   1.822   3.888   4.967 -0.2629 -0.8726 -2.3817
    4MOL   H293 1919   1.708   3.896   5.105 -0.2849  2.4758 -1.4811
    4MOL   H294 1920   1.395   3.897   4.698 -1.2139 -2.9758 -2.8746
    4MOL   H295 1921   1.471   3.909   4.548  0.0942 -3.3180 -0.0307
    4MOL   H296 1922   1.556   3.827   4.687  3.0306  1.1893 -2.4390
    4MOL   H297 1923   1.615   4.077   4.518 -0.0570  1.4714 -0.2004
    4MOL   H298 1924   1.682   4.202   4.625  1.2060 -0.3121  0.7375
    4MOL   C299 1925   1.611   4.536   4.970 -0.0043  0.0785 -0.3818
    4MOL   C300 1926   1.728   4.439   5.009 -0.6224 -0.4497 -0.3466
    4MOL   C301 1927   1.813   4.409   4.885  0.3503  0.6387  0.1970
    4MOL   C302 1928   1.923   4.310   4.904  0.3000  0.2290  0.2806
    4MOL   C303 1929   2.008   4.283   4.776 -0.1945  0.3799 -0.5400
    4MOL   O304 1930   1.930   4.215   4.675 -0.0498  0.2506 -0.3507
    4MOL   C305 1931   1.907   4.083   4.682 -0.2092 -0.2707  0.1409
    4MOL   O306 1932   1.957   4.011   4.767 -0.2554 -0.0255  0.1151
    4MOL   C307 1933   1.806   4.029   4.580  0.2625 -0.3137  0.2494
    4MOL   C308 1934   1.810   3.879   4.586 -0.0504  0.5074  0.0645
    4MOL   C309 1935   1.843   4.079   4.437 -0.4182 -0.3664  0.3286
    4MOL   H310 1936   1.653   4.630   4.935  1.6021 -2.0239 -4.6443
    4MOL   H311 1937   1.549   4.560   5.055  2.4537 -0.1144  1.5262
    4MOL   H312 1938   1.556   4.488   4.889  1.6063 -2.0419 -0.2835
    4MOL   H313 1939   1.680   4.353   5.056  0.1895  0.1289  1.5693
    4MOL   H314 1940   1.796   4.463   5.090  0.3945  1.3862 -1.7186
    4MOL   H315 1941   1.862   4.500   4.849 -0.1318  0.4165 -1.0431
    4MOL   H316 1942   1.747   4.383   4.802  0.3312 -0.6204  0.6090
    4MOL   H317 1943   1.904   4.216   4.956  1.9590  0.6957  1.7902
    4MOL   H318 1944   1.983   4.348   4.986 -0.3494 -0.0791  0.8939
    4MOL   H319 1945   2.043   4.378   4.734 -0.5436  1.0012  0.5655
    4MOL   H320 1946   2.094   4.222   4.804  0.5086  1.6006 -0.0051
    4MOL   H321 1947   1.915   3.849   4.575  0.4362  1.5983  1.5349
    4MOL   H322 1948   1.778   3.840   4.682  0.6910  1.0138  0.5257
    4MOL   H323 1949   1.749   3.829   4.512  1.1824  0.1292 -0.7177
    4MOL   H324 1950   1.788   4.165   4.397 -0.4113 -1.3388 -1.8543
    4MOL   H325 1951   1.810   4.002   4.367  2.8716 -0.3603 -1.3342
    4MOL   C326 1952   1.615   4.666   4.566  0.2592 -0.0749  0.3821
    4MOL   C327 1953   1.753   4.685   4.509  0.4687 -0.2057  0.5258
    4MOL   C328 1954   1.836   4.554   4.474  0.0421 -0.3487 -0.4926
    4MOL   C329 1955   1.974   4.587   4.412  0.1874  0.0518  0.1967
    4MOL   C330 1956   2.066   4.465   4.427  0.0057  0.0921  0.0672
    4MOL   O331 1957   2.004   4.338   4.392  0.2709  0.2406  0.3839
    4MOL   C332 1958   2.065   4.213   4.416 -0.3681 -0.1393 -0.2216
    4MOL   O333 1959   2.167   4.198   4.473  0.6674  0.1232 -0.5528
    4MOL   C334 1960   1.983   4.095   4.364  0.4585 -0.5831  0.6954
    4MOL   C335 1961   2.076   3.966   4.381 -0.0078  0.1747 -0.0803
    4MOL   C336 1962   1.958   4.106   4.207 -0.3177  0.0450  0.5933
    4MOL   H337 1963   1.579   4.570   4.530  1.7359 -0.5156  0.0348
    4MOL   H338 1964   1.545   4.737   4.523  0.3869 -0.8957 -1.2350
    4MOL   H339 1965   1.619   4.672   4.675 -2.4625 -0.0649  0.5037
    4MOL   H340 1966   1.812   4.761   4.560  0.4353  2.0001 -2.6518
    4MOL   H341 1967   1.738   4.734   4.414  0.1244 -0.9735  0.1756
    4MOL   H342 1968   1.774   4.483   4.420  0.3205 -1.0295  0.0669
    4MOL   H343 1969   1.851   4.505   4.570  0.2675  1.0601  0.2170
    4MOL   H344 1970   2.022   4.677   4.451 -1.3907  0.8583  0.3115
    4MOL   H345 1971   1.968   4.606   4.304  2.2757 -1.9688 -0.3204
    4MOL   H346 1972   2.091   4.470   4.533 -0.8585 -0.6316  0.3134
    4MOL   H347 1973   2.164   4.478   4.380  0.1629 -0.1257  0.3317
    4MOL   H348 1974   2.096   3.927   4.481  0.2799  1.9738  0.5810
    4MOL   H349 1975   2.169   3.960   4.324  0.6603 -2.0585  1.1467
    4MOL   H350 1976   2.027   3.879   4.337 -0.6502  0.2121  0.5632
    4MOL   H351 1977   1.891   4.192   4.201 -2.3721 -1.6617 -2.2094
    4MOL   H352 1978   1.886   4.028   4.180  0.3203 -0.6286  0.8006
    4MOL   C353 1979   1.743   3.599   3.722  0.0999 -0.5229 -0.2857
    4MOL   C354 1980   1.872   3.596   3.812  0.8844 -0.0493 -0.1410
    4MOL   C355 1981   1.847   3.664   3.953  0.3469  0.0320 -0.5691
    4MOL   C356 1982   1.972   3.645   4.044 -0.8359 -0.2405 -0.3940
    4MOL   C357 1983   2.082   3.753   4.019 -0.1529  0.3466 -0.0629
    4MOL   O358 1984   2.037   3.885   4.050  0.1705  0.6040 -0.4376
    4MOL   C359 1985   2.131   3.983   4.066 -0.2198 -0.2957  0.2729
    4MOL   O360 1986   2.252   3.965   4.062  0.0183  0.2299 -0.1675
    4MOL   C361 1987   2.063   4.116   4.083 -0.0245  0.6459  0.1079
    4MOL   C362 1988   2.172   4.225   4.120  0.1605 -0.2277 -0.4668
    4MOL   C363 1989   1.997   4.147   3.942  0.0348 -0.1056 -0.7369
    4MOL   H364 1990   1.771   3.561   3.624  0.2486 -2.4834  0.5088
    4MOL   H365 1991   1.710   3.700   3.696  0.0839 -0.8848 -1.7221
    4MOL   H366 1992   1.659   3.539   3.759 -1.2577  2.3991  1.5590
    4MOL   H367 1993   1.903   3.492   3.801 -0.6305 -0.2010 -3.4614
    4MOL   H368 1994   1.951   3.651   3.761  0.7231 -0.2944 -0.6612
    4MOL   H369 1995   1.762   3.625   4.010  0.3967 -0.1277 -0.6057
    4MOL   H370 1996   1.825   3.771   3.946 -3.2470 -0.4553  1.7403
    4MOL   H371 1997   2.021   3.548   4.030  2.1119  1.0966  0.1957
    4MOL   H372 1998   1.955   3.657   4.151  0.4416  1.3477 -0.3459
    4MOL   H373 1999   2.171   3.736   4.080 -0.8220  3.7645  2.0548
    4MOL   H374 2000   2.131   3.750   3.922 -1.8080  0.9968 -0.9341
    4MOL   H375 2001   2.134   4.325   4.141  1.8172  0.6712 -1.6031
    4MOL   H376 2002   2.242   4.195   4.197 -1.3827  0.5345  1.2681
    4MOL   H377 2003   2.237   4.235   4.033 -0.9973 -1.6210 -1.5298
    4MOL   H378 2004   2.079   4.170   3.874 -0.2476  1.7887 -0.4537
    4MOL   H379 2005   1.950   4.056   3.905 -0.3421 -1.4183  2.7705
    4MOL   C380 2006   1.563   4.325   4.334  0.0409  0.3521 -0.3405
    4MOL   C381 2007   1.439   4.239   4.298 -0.0445  0.0225 -0.0028
    4MOL   C382 2008   1.456   4.083   4.270 -0.2050  0.0233 -0.0788
    4MOL   C383 2009   1.584   4.050   4.178 -0.0668 -0.0793  0.1548
    4MOL   C384 2010   1.579   4.094   4.034 -0.1787  0.0428 -0.2328
    4MOL   O385 2011   1.713   4.131   3.981  0.4042  0.4729 -0.2027
    4MOL   C386 2012   1.759   4.259   3.989  0.2759  0.3239  0.2561
    4MOL   O387 2013   1.692   4.355   4.022  0.1088 -0.4770 -0.0544
    4MOL   C388 2014   1.897   4.269   3.912  0.4678 -0.1474  0.2489
    4MOL   C389 2015   1.965   4.406   3.958 -0.2659 -0.3357 -0.5652
    4MOL   C390 2016   1.869   4.284   3.763  0.0484 -0.8292 -0.7697
    4MOL   H391 2017   1.597   4.310   4.436  1.3044 -1.6631 -1.0413
    4MOL   H392 2018   1.644   4.305   4.263 -0.7595 -0.0670 -1.1503
    4MOL   H393 2019   1.527   4.428   4.330  0.9957  0.6760 -1.0711
    4MOL   H394 2020   1.397   4.293   4.212 -1.4468 -1.5656 -0.3391
    4MOL   H395 2021   1.357   4.247   4.370 -1.3117 -0.4614 -1.3600
    4MOL   H396 2022   1.458   4.023   4.362 -1.3670 -0.2999 -0.2557
    4MOL   H397 2023   1.369   4.035   4.225 -0.3877 -0.8750  1.1776
    4MOL   H398 2024   1.673   4.098   4.219  1.2565 -2.2372 -0.1343
    4MOL   H399 2025   1.598   3.942   4.169  0.5387  0.1722 -2.0653
    4MOL   H400 2026   1.516   4.182   4.027 -0.6791 -0.3019 -0.1012
    4MOL   H401 2027   1.538   4.016   3.970 -0.3415 -0.2050  0.1730
    4MOL   H402 2028   1.968   4.420   4.067 -0.0206  2.1308 -0.8631
    4MOL   H403 2029   1.906   4.489   3.918 -0.4909  0.2765  0.9788
    4MOL   H404 2030   2.063   4.429   3.916 -0.5475 -0.4833 -1.3064
    4MOL   H405 2031   1.957   4.333   3.721 -0.3469 -0.6436 -1.3825
    4MOL   H406 2032   1.787   4.356   3.755  0.6539  0.1855  1.6161
    4MOL   C407 2033   2.324   3.843   3.763  0.6908 -0.1546 -0.0083
    4MOL   C408 2034   2.277   3.842   3.617 -0.5719  0.0980  0.0761
    4MOL   C409 2035   2.136   3.786   3.591 -0.1714 -0.7165  0.0050
    4MOL   C410 2036   2.087   3.810   3.445 -0.6748 -0.2585 -0.1283
    4MOL   C411 2037   2.044   3.956   3.413 -0.3054  0.1862  0.1207
    4MOL   O412 2038   1.942   3.999   3.509 -0.0343  0.5979  0.0008
    4MOL   C413 2039   1.971   4.104   3.599  0.1960  0.7029 -0.1343
    4MOL   O414 2040   2.088   4.133   3.621  0.1790  0.5562 -0.3461
    4MOL   C415 2041   1.839   4.173   3.657 -0.2766 -0.2934 -0.1770
    4MOL   C416 2042   1.741   4.064   3.703  0.9640 -0.9525  0.7097
    4MOL   C417 2043   1.765   4.248   3.540  0.1257  0.2986 -0.1359
    4MOL   H418 2044   2.431   3.847   3.782  0.4547  3.4419  0.9019
    4MOL   H419 2045   2.278   3.931   3.806  2.1337  0.6154 -0.0153
    4MOL   H420 2046   2.294   3.749   3.809  3.0465 -1.0307 -0.1808
    4MOL   H421 2047   2.346   3.795   3.547 -1.4176 -2.6736  1.0009
    4MOL   H422 2048   2.284   3.941   3.572 -1.3788  0.8849  1.6342
    4MOL   H423 2049   2.150   3.679   3.606 -1.2721 -1.2036 -2.2341
    4MOL   H424 2050   2.071   3.826   3.669  0.0824 -1.6675  0.7116
    4MOL   H425 2051   2.003   3.744   3.421 -0.2505 -1.4969  1.6671
    4MOL   H426 2052   2.170   3.771   3.386 -1.9934 -0.5712 -1.7893
    4MOL   H427 2053   2.128   4.025   3.407 -0.9863  1.0937  0.7885
    4MOL   H428 2054   1.985   3.960   3.322  1.6980  3.4361 -1.1548
    4MOL   H429 2055   1.791   3.991   3.766 -0.8066 -0.2053  3.0477
    4MOL   H430 2056   1.702   3.999   3.624 -2.4753  3.1926 -1.2336
    4MOL   H431 2057   1.658   4.110   3.756  1.3227 -0.6700  1.0335
    4MOL   H432 2058   1.665   4.269   3.577 -0.1252  0.3896 -0.8555
    4MOL   H433 2059   1.760   4.166   3.468 -0.4464  0.1173  0.1045
    4MOL   C434 2060   1.374   4.441   3.852 -0.6878 -0.1718  0.3910
    4MOL   C435 2061   1.337   4.585   3.809 -0.4723  0.1547 -0.2603
    4MOL   C436 2062   1.412   4.640   3.681 -0.6659 -0.1980  0.2222
    4MOL   C437 2063   1.559   4.682   3.716 -0.1350  0.7737 -0.2118
    4MOL   C438 2064   1.651   4.696   3.591  0.3090 -0.1112  0.4175
    4MOL   O439 2065   1.680   4.563   3.534  0.0417 -0.0717  0.0150
    4MOL   C440 2066   1.803   4.503   3.542 -1.0189  0.2885  0.5022
    4MOL   O441 2067   1.893   4.550   3.619 -0.3585 -0.0188  0.1359
    4MOL   C442 2068   1.819   4.364   3.460 -0.6128 -0.1730  0.3502
    4MOL   C443 2069   1.718   4.376   3.348 -0.3824  0.9143  0.2378
    4MOL   C444 2070   1.967   4.354   3.403 -0.5529 -0.9226 -0.3695
    4MOL   H445 2071   1.300   4.406   3.924 -0.1504 -2.9271 -0.3383
    4MOL   H446 2072   1.378   4.374   3.766  3.6500  0.2926  0.1213
    4MOL   H447 2073   1.474   4.432   3.896 -1.4475 -1.6103  1.8762
    4MOL   H448 2074   1.229   4.572   3.807 -0.5658  0.9337 -0.2517
    4MOL   H449 2075   1.354   4.646   3.898  1.4984  0.8162 -1.0467
    4MOL   H450 2076   1.414   4.596   3.582  1.8867  1.6610 -0.5999
    4MOL   H451 2077   1.360   4.734   3.661 -2.1389 -1.5401 -2.3926
    4MOL   H452 2078   1.604   4.597   3.767 -0.5949 -0.4752 -1.8245
    4MOL   H453 2079   1.554   4.773   3.776 -1.6082 -0.1320  1.0945
    4MOL   H454 2080   1.736   4.754   3.627  0.2858 -0.0613  0.3926
    4MOL   H455 2081   1.601   4.753   3.513 -0.5509 -0.5762  0.6295
    4MOL   H456 2082   1.716   4.283   3.289 -0.9465 -1.2926  3.6225
    4MOL   H457 2083   1.615   4.393   3.379 -0.4692 -0.5905  0.8365
    4MOL   H458 2084   1.722   4.467   3.289 -1.5180  1.5861  1.1937
    4MOL   H459 2085   1.983   4.248   3.380 -0.8264 -0.9820 -0.2952
    4MOL   H460 2086   2.033   4.373   3.487 -0.8481 -0.6157 -0.2080
    4MOL   C461 2087   1.764   3.761   3.229  0.0675 -0.2421  0.2365
    4MOL   C462 2088   1.704   3.855   3.124 -0.0249 -0.0570  0.0106
    4MOL   C463 2089   1.747   3.999   3.152  0.5197 -0.1393 -0.6049
    4MOL   C464 2090   1.873   4.041   3.070 -0.9155  0.5102  0.5923
    4MOL   C465 2091   1.868   4.189   3.042  0.0936  0.2638 -0.5656
    4MOL   O466 2092   1.951   4.255   3.130  0.4083  0.7184 -0.1678
    4MOL   C467 2093   1.944   4.389   3.152 -0.2983  0.0217 -0.3515
    4MOL   O468 2094   1.874   4.464   3.081 -0.0476 -0.1170  0.7147
    4MOL   C469 2095   2.017   4.439   3.280 -0.6817  0.1454 -0.3104
    4MOL   C470 2096   2.161   4.393   3.249  0.3443 -0.0813 -0.5435
    4MOL   C471 2097   1.998   4.592   3.306 -0.2631  0.2741  0.5882
    4MOL   H472 2098   1.871   3.755   3.208  0.1430  0.3313  0.4439
    4MOL   H473 2099   1.707   3.669   3.222  1.3401 -0.9289 -1.5092
    4MOL   H474 2100   1.757   3.808   3.327 -0.9012 -0.7598  0.4165
    4MOL   H475 2101   1.598   3.843   3.146  0.5081 -2.4194  1.3897
    4MOL   H476 2102   1.729   3.826   3.022  0.5857  0.7127 -0.0647
    4MOL   H477 2103   1.750   4.026   3.257 -2.3658  0.1853 -0.5531
    4MOL   H478 2104   1.665   4.054   3.105  1.3099  1.4908 -0.1210
    4MOL   H479 2105   1.855   3.997   2.972  2.3381 -0.6161  0.4505
    4MOL   H480 2106   1.969   4.023   3.118 -0.9735 -0.4050  0.3699
    4MOL   H481 2107   1.900   4.203   2.939  1.8208  1.9289  0.1602
    4MOL   H482 2108   1.766   4.227   3.048 -0.4824 -1.1833 -0.9237
    4MOL   H483 2109   2.179   4.414   3.144  0.9797  0.0424 -0.4149
    4MOL   H484 2110   2.181   4.287   3.263  0.6555  0.3913  3.0652
    4MOL   H485 2111   2.242   4.438   3.307 -0.3414  0.1121  0.2749
    4MOL   H486 2112   2.016   4.605   3.413  0.7878  2.7111  0.1441
    4MOL   H487 2113   1.893   4.605   3.282 -0.1801 -1.6334 -0.8919
    4MOL   C488 2114   2.010   4.818   2.406 -0.2522 -0.1929 -0.3055
    4MOL   C489 2115   2.051   4.836   2.557  0.3782  0.0662  0.0290
    4MOL   C490 2116   1.940   4.781   2.654 -0.5334  0.0427 -0.0563
    4MOL   C491 2117   1.966   4.816   2.801 -0.9402  0.5371  0.5342
    4MOL   C492 2118   1.907   4.712   2.899 -0.3979  0.2605 -0.4278
    4MOL   O493 2119   1.942   4.752   3.033 -0.2130 -0.1037  0.5405
    4MOL   C494 2120   2.054   4.715   3.089 -0.6933  1.1999  0.3347
    4MOL   O495 2121   2.147   4.671   3.021 -0.0916  0.3958 -0.5563
    4MOL   C496 2122   2.055   4.721   3.245 -1.5815  0.3900 -0.1229
    4MOL   C497 2123   2.200   4.737   3.285  0.4102 -0.4061 -0.3671
    4MOL   C498 2124   1.969   4.839   3.297  0.2534  0.0411 -0.8575
    4MOL   H499 2125   1.988   4.712   2.391 -0.2903 -0.6747  2.6970
    4MOL   H500 2126   1.920   4.870   2.374 -0.4482 -0.6540 -0.5102
    4MOL   H501 2127   2.089   4.851   2.340  0.2587  1.7259  1.2218
    4MOL   H502 2128   2.051   4.944   2.573 -1.0058  0.1219 -0.2309
    4MOL   H503 2129   2.153   4.802   2.572  0.8141  1.1867 -0.3336
    4MOL   H504 2130   1.841   4.822   2.631  0.4747  1.7399 -1.5129
    4MOL   H505 2131   1.933   4.673   2.640 -0.3712  0.2339 -1.7201
    4MOL   H506 2132   1.936   4.920   2.819 -1.3614  0.5299 -0.1081
    4MOL   H507 2133   2.074   4.812   2.816 -0.6299 -0.9115 -1.9832
    4MOL   H508 2134   1.800   4.708   2.882 -0.2349 -2.1988 -0.9903
    4MOL   H509 2135   1.942   4.612   2.876 -1.8742 -0.4928  0.5481
    4MOL   H510 2136   2.257   4.644   3.280  0.7102 -0.1445 -2.2765
    4MOL   H511 2137   2.204   4.750   3.393 -1.0457 -0.2506 -0.3152
    4MOL   H512 2138   2.245   4.820   3.232  0.7547 -0.8470 -0.7702
    4MOL   H513 2139   1.953   4.821   3.404 -1.1975 -0.4362 -1.1507
    4MOL   H514 2140   1.866   4.832   3.263 -0.1233  0.1933  0.2172
    4MOL   C515 2141   1.985   4.754   3.934 -0.1418 -0.5516  0.0553
    4MOL   C516 2142   2.067   4.862   3.860  0.4397  0.4516 -0.1546
    4MOL   C517 2143   2.098   4.814   3.715  0.0499 -0.1442 -0.2116
    4MOL   C518 2144   2.215   4.902   3.666 -0.6528  0.1020  0.5384
    4MOL   C519 2145   2.176   5.042   3.607  0.5922  0.2986  0.0783
    4MOL   O520 2146   2.077   5.025   3.503  0.0278  0.0159 -0.4493
    4MOL   C521 2147   2.120   5.033   3.379 -0.1871  0.3482 -0.4025
    4MOL   O522 2148   2.232   5.072   3.346  0.3280 -0.2568 -0.3056
    4MOL   C523 2149   2.005   4.989   3.276 -0.0914 -0.0264  0.1322
    4MOL   C524 2150   1.874   5.068   3.307 -0.3091 -0.1890 -0.1776
    4MOL   C525 2151   2.047   5.021   3.129  0.1180  0.2618 -1.0729
    4MOL   H526 2152   1.948   4.804   4.023  2.0778  1.8665 -0.3335
    4MOL   H527 2153   1.913   4.708   3.866  1.2936 -0.6645 -1.4143
    4MOL   H528 2154   2.055   4.676   3.965  0.1162 -0.2692  0.1854
    4MOL   H529 2155   2.014   4.957   3.858  0.3130  0.3789 -3.4116
    4MOL   H530 2156   2.158   4.894   3.910  1.2511  2.2917 -2.6625
    4MOL   H531 2157   2.126   4.709   3.721 -0.9456 -0.4224 -0.2230
    4MOL   H532 2158   2.012   4.819   3.648  0.5245  2.8422 -0.6809
    4MOL   H533 2159   2.263   4.847   3.584 -0.2168  0.9953  0.1888
    4MOL   H534 2160   2.290   4.913   3.744 -3.1983  1.1999  2.9065
    4MOL   H535 2161   2.145   5.097   3.695 -0.1642  0.6145 -0.3824
    4MOL   H536 2162   2.271   5.083   3.572 -0.0701  0.6288 -1.3821
    4MOL   H537 2163   1.886   5.174   3.284 -2.0158 -0.5660 -3.1222
    4MOL   H538 2164   1.845   5.063   3.412  0.9436  0.0166  0.1831
    4MOL   H539 2165   1.791   5.042   3.241  1.2901 -1.3014 -1.8046
    4MOL   H540 2166   1.965   5.006   3.060 -0.4481 -1.6968 -0.0162
    4MOL   H541 2167   2.140   4.973   3.098  0.5576 -0.4940  1.2868
    4MOL   H542 2168   2.067   5.128   3.125  0.0356  0.3431  0.2169
    5MOL     C1 2169   6.742   7.615   1.792  0.0176  0.2045  0.2544
    5MOL     C2 2170   6.849   7.548   1.877 -0.4464  0.4062  0.3916
    5MOL     C3 2171   6.961   7.490   1.796 -0.0319 -0.1579 -0.3866
    5MOL     C4 2172   7.096   7.464   1.873 -0.2117 -0.2652  0.1835
    5MOL     C5 2173   7.223   7.408   1.801  0.2278 -0.0042  0.1747
    5MOL     O6 2174   7.203   7.270   1.788 -0.4078  0.0882 -0.2271
    5MOL     C7 2175   7.288   7.197   1.714 -0.0850 -0.9653 -0.5473
    5MOL     O8 2176   7.402   7.239   1.685 -0.2290 -0.1995  0.2603
    5MOL     C9 2177   7.237   7.057   1.675  0.3594  0.2532 -0.3020
    5MOL    C10 2178   7.267   6.964   1.793  0.5191  1.0592 -0.3560
    5MOL    C11 2179   7.297   7.008   1.539  0.8335  0.0692 -0.4844
    5MOL    H12 2180   6.664   7.640   1.864 -0.9415 -0.3138 -0.5899
    5MOL    H13 2181   6.696   7.542   1.725  0.8489 -2.7732  2.7961
    5MOL    H14 2182   6.782   7.695   1.729 -1.5578  0.4773 -0.4093
    5MOL    H15 2183   6.889   7.632   1.933  0.5270 -0.8152  1.5528
    5MOL    H16 2184   6.798   7.473   1.937  0.2137  0.2109  0.7124
    5MOL    H17 2185   6.929   7.394   1.758 -2.3415 -0.3897  2.0234
    5MOL    H18 2186   6.986   7.563   1.718  0.7846 -1.5919 -1.4830
    5MOL    H19 2187   7.071   7.397   1.955  1.1519  1.0961  1.7555
    5MOL    H20 2188   7.128   7.563   1.906 -0.2005 -0.5405  1.0052
    5MOL    H21 2189   7.243   7.450   1.702  0.3165  0.0851  0.2294
    5MOL    H22 2190   7.305   7.420   1.872 -0.8031 -1.0684  1.5504
    5MOL    H23 2191   7.257   7.008   1.893 -0.4509 -0.1854  0.1068
    5MOL    H24 2192   7.361   6.911   1.783 -0.2371 -0.0666 -1.5264
    5MOL    H25 2193   7.193   6.884   1.796  0.1429  1.4318  2.5280
    5MOL    H26 2194   7.374   6.935   1.561  0.1087 -0.9164 -1.1487
    5MOL    H27 2195   7.356   7.087   1.491 -0.8750  0.8419 -1.3567
    5MOL    H28 2196   7.128   7.054   1.683  0.3884 -4.1553 -0.5656
    5MOL    C29 2197   6.667   7.518   1.351  0.8420 -0.7292 -0.5555
    5MOL    C30 2198   6.769   7.399   1.347 -0.0491  0.0452  0.4090
    5MOL    C31 2199   6.895   7.443   1.422  0.4185  0.0868 -0.6773
    5MOL    C32 2200   6.998   7.336   1.443  0.0840 -0.2685  1.0676
    5MOL    C33 2201   7.067   7.270   1.323  0.3955  0.2093 -0.0883
    5MOL    O34 2202   7.145   7.162   1.368 -0.2037  0.0075  0.1900
    5MOL    C35 2203   7.092   7.042   1.402 -0.7030  0.1290 -0.0239
    5MOL    O36 2204   6.974   7.010   1.401  0.0966 -0.3303 -0.2031
    5MOL    C37 2205   7.204   6.942   1.427 -0.3538 -0.7460 -0.3011
    5MOL    C38 2206   7.149   6.812   1.473 -1.0165  0.3801 -0.3524
    5MOL    C39 2207   7.300   6.929   1.299 -0.2156 -0.0571 -0.1514
    5MOL    H40 2208   6.567   7.492   1.318 -0.3584  3.4229 -0.4555
    5MOL    H41 2209   6.658   7.553   1.454  5.7639 -1.2074  0.1558
    5MOL    H42 2210   6.706   7.601   1.292  2.2615  0.6230  2.1648
    5MOL    H43 2211   6.801   7.375   1.246  0.1951  1.6844  0.0817
    5MOL    H44 2212   6.742   7.304   1.394  1.2260  0.3437  1.7955
    5MOL    H45 2213   6.861   7.469   1.522 -0.1904 -0.9997 -0.5900
    5MOL    H46 2214   6.944   7.531   1.381  2.0998  0.2130  1.5086
    5MOL    H47 2215   7.072   7.374   1.514  0.2533  2.0560 -0.2756
    5MOL    H48 2216   6.950   7.256   1.499  0.6364  0.2874  2.3885
    5MOL    H49 2217   7.137   7.332   1.267  0.6180  2.2095  2.3248
    5MOL    H50 2218   7.002   7.230   1.245  1.6687  0.9101 -1.5382
    5MOL    H51 2219   7.104   6.742   1.402 -2.2298  0.9954 -0.2063
    5MOL    H52 2220   7.071   6.833   1.546  0.0605  3.3709 -0.0013
    5MOL    H53 2221   7.225   6.764   1.534 -0.6282  1.6909  0.1992
    5MOL    H54 2222   7.392   6.892   1.343  0.8305 -0.5513 -2.6783
    5MOL    H55 2223   7.329   7.027   1.261 -1.2756 -0.4249 -1.9861
    5MOL    C56 2224   7.711   6.600   0.816 -0.1001 -0.6804 -0.0793
    5MOL    C57 2225   7.623   6.509   0.892  0.1515 -0.5891 -0.2382
    5MOL    C58 2226   7.579   6.574   1.028  0.6141  0.5250  0.8725
    5MOL    C59 2227   7.494   6.482   1.117 -0.3500 -0.1676 -0.3125
    5MOL    C60 2228   7.468   6.540   1.262 -0.1402  0.0899  0.1410
    5MOL    O61 2229   7.414   6.673   1.254 -0.2818  0.7341 -0.6000
    5MOL    C62 2230   7.283   6.692   1.209 -0.1894 -1.0185 -0.0377
    5MOL    O63 2231   7.197   6.604   1.195  0.5205 -0.4084 -0.4169
    5MOL    C64 2232   7.261   6.847   1.172 -0.7366 -0.6888  0.4824
    5MOL    C65 2233   7.371   6.888   1.068  0.2421 -0.1265 -0.1515
    5MOL    C66 2234   7.112   6.874   1.129 -0.2205 -0.0622 -0.6844
    5MOL    H67 2235   7.690   6.600   0.709  2.3273 -0.1588 -0.5834
    5MOL    H68 2236   0.003   6.576   0.831 -0.1138 -0.4795  0.3295
    5MOL    H69 2237   7.697   6.703   0.847  2.6783 -0.1167 -0.5513
    5MOL    H70 2238   7.531   6.490   0.836 -0.9380 -1.2902  1.7658
    5MOL    H71 2239   7.671   6.416   0.921 -0.2868 -0.7692 -0.0796
    5MOL    H72 2240   7.667   6.610   1.081  0.4776  1.7837  0.2632
    5MOL    H73 2241   7.526   6.667   1.006 -3.3385 -1.8180 -0.0616
    5MOL    H74 2242   7.546   6.387   1.119 -0.3614 -0.1738 -0.3390
    5MOL    H75 2243   7.401   6.459   1.066 -0.0396 -0.4245 -0.7713
    5MOL    H76 2244   7.394   6.479   1.313 -0.6918  1.4706  1.0237
    5MOL    H77 2245   7.560   6.533   1.320  0.8046 -0.0401 -1.3439
    5MOL    H78 2246   7.370   6.828   0.977  0.8524  0.3757 -0.4925
    5MOL    H79 2247   7.473   6.885   1.107  1.3369  0.1249 -2.9021
    5MOL    H80 2248   7.365   6.983   1.014 -1.3575  0.9006  1.7589
    5MOL    H81 2249   7.100   6.981   1.144 -1.1672  0.1185 -2.5507
    5MOL    H82 2250   7.046   6.830   1.204  0.9339  2.0732  1.6532
    5MOL    C83 2251   6.994   7.630   1.029 -0.0566 -0.1025 -0.7007
    5MOL    C84 2252   7.108   7.527   1.024  0.3428 -0.2510 -0.2023
    5MOL    C85 2253   7.052   7.403   0.952 -0.8781 -0.3743 -0.3402
    5MOL    C86 2254   7.168   7.314   0.907 -0.2267  0.9208 -0.4727
    5MOL    C87 2255   7.125   7.190   0.824 -0.4913 -0.6946  0.2271
    5MOL    O88 2256   7.071   7.092   0.914 -0.0606  0.3387 -0.2483
    5MOL    C89 2257   7.110   6.960   0.888  0.8683 -0.7101  0.9007
    5MOL    O90 2258   7.193   6.929   0.806  0.0306  0.0813 -0.2751
    5MOL    C91 2259   7.049   6.857   0.983  0.4161 -0.4284 -0.1014
    5MOL    C92 2260   7.091   6.716   0.929 -0.1447 -0.0652  0.5319
    5MOL    C93 2261   6.893   6.874   1.006 -0.3022  0.8251 -0.6393
    5MOL    H94 2262   6.971   7.655   0.926 -0.8358  0.3103 -0.4308
    5MOL    H95 2263   6.905   7.583   1.073 -2.0344  3.4489 -0.6694
    5MOL    H96 2264   7.029   7.714   1.089  1.5969  0.6639 -2.7162
    5MOL    H97 2265   7.135   7.493   1.124  0.1650  1.3724  0.4025
    5MOL    H98 2266   7.196   7.570   0.975  0.6620  0.8835  1.3436
    5MOL    H99 2267   6.990   7.430   0.866  0.9371  2.7851 -0.6947
    5MOL   H100 2268   6.975   7.360   1.016  0.0395  2.8772  3.0916
    5MOL   H101 2269   7.229   7.270   0.986 -1.1622  1.7055  0.7091
    5MOL   H102 2270   7.231   7.370   0.837  0.3812 -1.9203 -2.2682
    5MOL   H103 2271   7.217   7.157   0.777 -1.9967 -2.5937 -1.5311
    5MOL   H104 2272   7.053   7.226   0.751  0.7188  0.9708 -0.1653
    5MOL   H105 2273   7.039   6.649   0.999  0.8506 -0.2044  1.1400
    5MOL   H106 2274   7.198   6.695   0.933  0.2915  1.6803 -1.2570
    5MOL   H107 2275   7.059   6.704   0.825 -1.6060  1.1441  0.8259
    5MOL   H108 2276   6.883   6.802   1.088  2.0471  0.7061 -0.4320
    5MOL   H109 2277   6.880   6.972   1.053  1.1551  1.0799 -0.7522
    5MOL   C110 2278   7.031   6.258   1.227 -0.0705 -0.2408 -0.6536
    5MOL   C111 2279   6.889   6.205   1.198 -0.4260  0.0055 -0.2820
    5MOL   C112 2280   6.836   6.270   1.064 -0.7724  0.3054  0.7927
    5MOL   C113 2281   6.847   6.421   1.058  0.4296  0.9548 -0.3080
    5MOL   C114 2282   6.814   6.481   0.925 -0.0156 -0.5537 -0.0911
    5MOL   O115 2283   6.794   6.621   0.939  0.7521 -0.3944 -0.1062
    5MOL   C116 2284   6.789   6.708   0.837  0.2892 -0.0979 -0.0776
    5MOL   O117 2285   6.778   6.682   0.720 -0.1402 -0.1592  0.4264
    5MOL   C118 2286   6.784   6.852   0.895  0.4785 -0.3821  0.7481
    5MOL   C119 2287   6.806   6.949   0.775  0.4727  0.3431  0.4717
    5MOL   C120 2288   6.635   6.878   0.954 -0.2861  0.3345  0.3800
    5MOL   H121 2289   7.081   6.199   1.303 -1.0386 -0.4707 -0.1845
    5MOL   H122 2290   7.094   6.271   1.139 -0.5827  1.7368 -0.7578
    5MOL   H123 2291   7.040   6.355   1.275 -0.5114  1.2678 -3.5096
    5MOL   H124 2292   6.884   6.099   1.177 -0.5584  0.1970 -1.2611
    5MOL   H125 2293   6.825   6.222   1.284 -0.7059  0.0682 -0.4995
    5MOL   H126 2294   6.911   6.246   0.989 -1.8414  0.9740 -0.5008
    5MOL   H127 2295   6.739   6.242   1.024  0.7593 -0.5272 -2.4837
    5MOL   H128 2296   6.951   6.446   1.079  0.2233 -0.4121  2.5309
    5MOL   H129 2297   6.793   6.459   1.144  0.4409 -2.0297  1.0799
    5MOL   H130 2298   6.897   6.473   0.855 -2.3592  0.5396 -3.1353
    5MOL   H131 2299   6.718   6.442   0.892 -0.4107  0.7317 -0.5081
    5MOL   H132 2300   6.865   6.910   0.692  1.8405  2.2766  0.4926
    5MOL   H133 2301   6.709   6.977   0.735  1.8681  1.1046 -2.5408
    5MOL   H134 2302   6.864   7.040   0.793 -0.5997  1.5667 -2.0697
    5MOL   H135 2303   6.563   6.884   0.872 -0.1216  0.9078  0.2721
    5MOL   H136 2304   6.602   6.786   1.001  0.9442  0.6313  1.8512
    5MOL   C137 2305   6.945   6.527   1.642 -0.4517 -0.3486 -0.3220
    5MOL   C138 2306   6.869   6.581   1.523 -0.0304 -0.5809 -0.4076
    5MOL   C139 2307   6.726   6.613   1.540 -0.0228 -0.2171 -0.4845
    5MOL   C140 2308   6.673   6.662   1.406 -0.7403 -0.2475  0.6955
    5MOL   C141 2309   6.720   6.805   1.367 -0.1887  0.0170 -0.5936
    5MOL   O142 2310   6.659   6.840   1.244  0.4069  0.1228 -0.1765
    5MOL   C143 2311   6.672   6.968   1.195 -0.1616 -0.1176  0.6368
    5MOL   O144 2312   6.732   7.059   1.246 -0.0825  0.0743  0.0605
    5MOL   C145 2313   6.595   6.987   1.061  0.0319 -1.0327 -0.1976
    5MOL   C146 2314   6.632   7.133   1.008  0.8346 -0.0701 -0.6669
    5MOL   C147 2315   6.437   6.977   1.092 -0.0177 -0.2114 -0.0592
    5MOL   H148 2316   6.906   6.438   1.691  0.4767 -1.9752 -2.4511
    5MOL   H149 2317   6.956   6.606   1.716  1.3752  0.9139 -1.8633
    5MOL   H150 2318   7.046   6.493   1.618  0.0381 -0.9599  2.4467
    5MOL   H151 2319   6.875   6.515   1.437 -2.3961  1.1159 -1.9035
    5MOL   H152 2320   6.931   6.663   1.486  1.6041 -1.1824  0.8911
    5MOL   H153 2321   6.667   6.523   1.558  1.4557 -1.2655 -0.7603
    5MOL   H154 2322   6.722   6.680   1.626  2.4182 -0.0631 -0.4597
    5MOL   H155 2323   6.700   6.587   1.333 -0.2999  0.5659  0.0192
    5MOL   H156 2324   6.564   6.667   1.417 -0.6569  0.6161  1.2241
    5MOL   H157 2325   6.829   6.807   1.360 -0.0127 -1.0865  1.3614
    5MOL   H158 2326   6.696   6.884   1.439 -2.1284 -1.4211  0.3939
    5MOL   H159 2327   6.614   7.211   1.082 -0.9513 -0.0016 -1.1450
    5MOL   H160 2328   6.569   7.158   0.922 -2.3583  1.5080  2.0176
    5MOL   H161 2329   6.737   7.148   0.985  1.3979 -0.2524  1.6630
    5MOL   H162 2330   6.391   6.995   0.995 -0.8852 -3.5208 -0.3355
    5MOL   H163 2331   6.414   6.871   1.096 -0.4745 -0.0962  0.4714
    5MOL   C164 2332   6.157   6.543   0.745 -0.3467 -0.3264  0.4366
    5MOL   C165 2333   6.082   6.675   0.766 -0.7616 -0.4569  0.4699
    5MOL   C166 2334   6.107   6.728   0.909  0.4483 -0.3850  0.6385
    5MOL   C167 2335   6.054   6.869   0.918  0.8045 -0.7429  0.2038
    5MOL   C168 2336   6.034   6.924   1.058  0.5003  0.4190 -0.3399
    5MOL   O169 2337   6.159   6.951   1.121  0.0661  0.1179 -0.0706
    5MOL   C170 2338   6.209   7.070   1.162  0.5768 -0.4799 -0.6854
    5MOL   O171 2339   6.148   7.178   1.158  0.2550  0.4185  0.4605
    5MOL   C172 2340   6.354   7.047   1.207  0.0281  0.4970 -0.4192
    5MOL   C173 2341   6.409   7.189   1.239 -0.6236  0.2181  0.1713
    5MOL   C174 2342   6.350   6.945   1.331 -0.8467 -0.1704 -0.3123
    5MOL   H175 2343   6.121   6.486   0.659  1.6815 -1.6153  0.4138
    5MOL   H176 2344   6.142   6.483   0.835  2.6082  0.0880  1.2548
    5MOL   H177 2345   6.265   6.554   0.742 -0.3460 -0.2291  0.7907
    5MOL   H178 2346   5.978   6.648   0.746 -1.3213  0.9905  1.3112
    5MOL   H179 2347   6.115   6.754   0.698 -0.4345 -1.5679 -0.6694
    5MOL   H180 2348   6.057   6.665   0.983 -0.8261  1.4440  1.3864
    5MOL   H181 2349   6.214   6.731   0.926  0.6254 -0.4798 -0.4351
    5MOL   H182 2350   5.961   6.872   0.861  0.7462 -4.2883  0.0145
    5MOL   H183 2351   6.120   6.935   0.861 -0.6148 -1.2389 -2.1016
    5MOL   H184 2352   5.993   6.847   1.123  0.8699 -1.6854 -2.5039
    5MOL   H185 2353   5.981   7.018   1.064  1.5496  0.9286  1.1602
    5MOL   H186 2354   6.416   7.243   1.145  1.2760  0.4944  0.4435
    5MOL   H187 2355   6.506   7.201   1.288 -0.4767 -0.3535  0.0271
    5MOL   H188 2356   6.340   7.253   1.293 -1.4327 -0.8256  0.3804
    5MOL   H189 2357   6.295   6.856   1.298 -1.7681  0.0640  0.5682
    5MOL   H190 2358   6.447   6.910   1.364 -1.0311  0.7795  1.2741
    5MOL   C191 2359   6.888   6.941   1.923 -0.5055 -0.4546 -0.2658
    5MOL   C192 2360   6.876   7.023   1.793 -0.2809  0.5217  0.0868
    5MOL   C193 2361   6.727   7.039   1.750 -0.2444 -0.2483  0.3071
    5MOL   C194 2362   6.711   7.137   1.634  0.1927  0.3809 -0.7273
    5MOL   C195 2363   6.564   7.178   1.621 -0.8634  0.8702 -0.9621
    5MOL   O196 2364   6.486   7.076   1.570  0.0030  0.2483 -0.1620
    5MOL   C197 2365   6.362   7.107   1.539 -0.3222  0.4692  0.7757
    5MOL   O198 2366   6.315   7.218   1.558 -0.1866  0.6735 -0.4099
    5MOL   C199 2367   6.284   6.989   1.471 -0.3807  0.1713 -0.1582
    5MOL   C200 2368   6.320   6.869   1.560  1.2835  0.3084 -0.4817
    5MOL   C201 2369   6.128   7.009   1.454  0.4320 -0.3899 -0.2140
    5MOL   H202 2370   6.857   6.992   2.015 -1.6666 -0.5172 -0.6140
    5MOL   H203 2371   6.825   6.852   1.920 -0.7049 -0.3842  1.4576
    5MOL   H204 2372   6.986   6.900   1.944 -0.5974 -1.5597 -1.9808
    5MOL   H205 2373   6.928   6.967   1.715  1.1765 -1.4208  2.3757
    5MOL   H206 2374   6.925   7.120   1.799 -0.3536  0.6034 -0.6263
    5MOL   H207 2375   6.669   7.069   1.838  0.8488  0.8581  0.6486
    5MOL   H208 2376   6.682   6.943   1.723 -2.8669  1.2756 -0.8791
    5MOL   H209 2377   6.767   7.227   1.661  0.5600  0.1633 -0.7526
    5MOL   H210 2378   6.756   7.104   1.540 -1.7727 -0.7703 -1.3025
    5MOL   H211 2379   6.515   7.204   1.715  1.1634  1.5544 -0.0653
    5MOL   H212 2380   6.563   7.266   1.556  1.2827  1.3321 -0.4125
    5MOL   H213 2381   6.278   6.776   1.524 -0.5346  0.9422 -0.0480
    5MOL   H214 2382   6.284   6.885   1.662  1.8646 -0.7505 -0.0999
    5MOL   H215 2383   6.427   6.848   1.566  1.2287  0.3508  0.8432
    5MOL   H216 2384   6.105   6.944   1.370 -1.4310 -0.5392  0.3733
    5MOL   H217 2385   6.115   7.109   1.414 -2.4628 -0.7726 -0.3424
    5MOL   C218 2386   5.962   6.192   1.796 -0.4106  0.9721 -0.1649
    5MOL   C219 2387   6.014   6.311   1.710 -0.2858 -0.6463  0.0386
    5MOL   C220 2388   6.050   6.436   1.779  0.1234  0.3327 -0.3319
    5MOL   C221 2389   6.082   6.538   1.677  0.0536 -0.7717  0.1355
    5MOL   C222 2390   5.958   6.625   1.651  1.1946  0.2909 -0.1590
    5MOL   O223 2391   5.968   6.738   1.574 -0.4110 -0.4801  0.3843
    5MOL   C224 2392   6.012   6.852   1.641 -0.2814 -0.0129  0.0919
    5MOL   O225 2393   6.069   6.839   1.749  0.1138 -0.2025 -0.4473
    5MOL   C226 2394   6.016   6.983   1.558 -0.0326  0.5356 -0.3558
    5MOL   C227 2395   5.888   6.984   1.472  0.2711 -0.2216 -0.4693
    5MOL   C228 2396   6.040   7.119   1.652 -0.7431 -0.0445  0.5077
    5MOL   H229 2397   6.044   6.142   1.848 -2.5548 -1.2637  1.1640
    5MOL   H230 2398   5.881   6.219   1.864 -0.1673 -0.1814  0.5990
    5MOL   H231 2399   5.923   6.119   1.726  2.3992 -0.4473 -0.3187
    5MOL   H232 2400   5.938   6.336   1.636 -0.1525  0.3765  0.2361
    5MOL   H233 2401   6.105   6.275   1.662 -0.5641 -0.0926 -0.9209
    5MOL   H234 2402   6.127   6.417   1.854 -1.2049 -1.1166  0.7051
    5MOL   H235 2403   5.964   6.465   1.840 -1.0117  1.5074 -2.4407
    5MOL   H236 2404   6.156   6.594   1.734 -0.7439 -0.0102  0.4369
    5MOL   H237 2405   6.110   6.493   1.581 -0.4278 -1.0796  0.1343
    5MOL   H238 2406   5.903   6.649   1.742 -0.8207  0.3276 -1.3387
    5MOL   H239 2407   5.890   6.562   1.593 -0.3903  0.1632  1.7761
    5MOL   H240 2408   5.797   6.977   1.532 -1.2889  1.3855 -2.5585
    5MOL   H241 2409   5.869   6.906   1.397  0.2902 -0.3397 -0.3522
    5MOL   H242 2410   5.876   7.081   1.424 -1.0981  1.4437  3.1130
    5MOL   H243 2411   6.076   7.205   1.596 -2.9540  0.8664  0.4578
    5MOL   H244 2412   6.129   7.096   1.711  0.5391 -1.1861 -1.7832
    5MOL   C245 2413   5.688   7.271   1.079  0.2856 -0.0296  0.0003
    5MOL   C246 2414   5.805   7.247   1.173 -0.1521  0.4606  0.5018
    5MOL   C247 2415   5.798   7.319   1.302  0.4227 -0.0570 -0.2110
    5MOL   C248 2416   5.688   7.283   1.406 -0.7029  0.0808  0.9270
    5MOL   C249 2417   5.703   7.359   1.534 -0.6553 -0.8023 -0.0369
    5MOL   O250 2418   5.820   7.318   1.603 -0.2161  0.1598  0.2174
    5MOL   C251 2419   5.811   7.209   1.686  0.3464  0.4659 -0.5034
    5MOL   O252 2420   5.712   7.147   1.711  0.4868 -0.4207  0.9993
    5MOL   C253 2421   5.940   7.178   1.758 -0.4777 -0.5712 -0.1116
    5MOL   C254 2422   6.001   7.313   1.808  0.3783 -0.2530 -0.5925
    5MOL   C255 2423   5.920   7.084   1.888 -0.2800  0.2873  0.3808
    5MOL   H256 2424   5.672   7.378   1.070 -0.3029 -0.1611 -0.5634
    5MOL   H257 2425   5.699   7.227   0.980 -2.2852  0.0678 -0.3647
    5MOL   H258 2426   5.594   7.243   1.126  0.8184  0.3379  1.2956
    5MOL   H259 2427   5.816   7.140   1.191 -3.2895  0.2628  1.5410
    5MOL   H260 2428   5.898   7.284   1.130 -0.3371  0.4297  0.0726
    5MOL   H261 2429   5.783   7.423   1.273 -0.0101 -0.1452 -0.3016
    5MOL   H262 2430   5.896   7.308   1.348  1.1092 -1.0431 -1.8668
    5MOL   H263 2431   5.592   7.309   1.363 -0.4014 -1.8268 -1.0189
    5MOL   H264 2432   5.679   7.175   1.421  0.8694 -0.1674  0.2239
    5MOL   H265 2433   5.717   7.463   1.504 -2.1629  0.0034  1.8561
    5MOL   H266 2434   5.606   7.348   1.584 -0.4415  1.2298  0.9093
    5MOL   H267 2435   5.924   7.379   1.847 -0.5482 -0.4605 -2.0084
    5MOL   H268 2436   6.084   7.288   1.874 -1.3280  0.8867  2.0382
    5MOL   H269 2437   6.056   7.373   1.735  2.5754  0.1381  1.3224
    5MOL   H270 2438   5.874   6.989   1.860  0.2642  0.7663 -2.2646
    5MOL   H271 2439   6.021   7.057   1.919 -0.7843 -0.6078  1.2809
    5MOL   C272 2440   6.383   7.420   1.860 -0.0403 -0.0531  0.2775
    5MOL   C273 2441   6.444   7.363   1.986 -0.5282  0.0084 -0.2756
    5MOL   C274 2442   6.353   7.263   2.062  0.4257 -0.1762 -0.2508
    5MOL   C275 2443   6.256   7.330   2.151 -0.0665 -1.2191 -0.2181
    5MOL   C276 2444   6.163   7.230   2.218  0.2917  0.1262  0.6011
    5MOL   O277 2445   6.069   7.174   2.128 -0.0217  0.0310 -0.0689
    5MOL   C278 2446   5.948   7.235   2.094  0.0343 -0.3209  0.1022
    5MOL   O279 2447   5.930   7.353   2.128  0.0535  0.2910  0.1210
    5MOL   C280 2448   5.854   7.138   2.020  0.0660  0.1056 -0.1438
    5MOL   C281 2449   5.723   7.217   2.003  0.2627  0.4274 -0.3505
    5MOL   C282 2450   5.832   7.011   2.116  0.6092 -0.4329  0.4856
    5MOL   H283 2451   6.300   7.485   1.890 -1.3472 -1.7150  0.3526
    5MOL   H284 2452   6.454   7.494   1.825 -2.2755  1.8843 -0.2723
    5MOL   H285 2453   6.342   7.347   1.790 -1.1199  0.4670  0.3602
    5MOL   H286 2454   6.540   7.319   1.958 -0.3253  0.6437 -0.5867
    5MOL   H287 2455   6.464   7.443   2.057 -0.3847  0.3366 -0.6849
    5MOL   H288 2456   6.306   7.191   1.995 -0.0292  1.4547 -1.7282
    5MOL   H289 2457   6.411   7.198   2.127  1.3394  1.4792  0.6127
    5MOL   H290 2458   6.317   7.369   2.232 -1.8759 -1.0642  1.1215
    5MOL   H291 2459   6.196   7.408   2.104 -1.4458 -2.2694 -0.2302
    5MOL   H292 2460   6.104   7.286   2.291  2.5490  1.9102  1.1293
    5MOL   H293 2461   6.227   7.160   2.271  1.1153  1.1895  1.0387
    5MOL   H294 2462   5.643   7.152   1.968 -1.4504  0.3200  3.4827
    5MOL   H295 2463   5.705   7.247   2.106  0.4223  0.7708 -0.4222
    5MOL   H296 2464   5.727   7.302   1.935 -0.0775 -0.2262 -1.1936
    5MOL   H297 2465   5.917   6.943   2.117  0.1281 -1.0428  1.9059
    5MOL   H298 2466   5.844   7.044   2.220  2.3866 -1.8110  0.7403
    5MOL   C299 2467   5.158   7.129   2.436  0.0262 -0.4185  0.3533
    5MOL   C300 2468   5.225   7.083   2.570  0.5933  0.5054  0.3254
    5MOL   C301 2469   5.375   7.087   2.581 -0.2715  0.1297  0.0804
    5MOL   C302 2470   5.461   7.001   2.478 -0.1453  0.7356  0.0324
    5MOL   C303 2471   5.493   7.080   2.351  0.4895  0.4172  0.4349
    5MOL   O304 2472   5.606   7.026   2.284 -0.2383  0.2363 -0.3901
    5MOL   C305 2473   5.582   6.981   2.163  0.0136 -0.3394 -0.4236
    5MOL   O306 2474   5.483   6.979   2.103  0.5710  0.6448 -0.6005
    5MOL   C307 2475   5.707   6.912   2.103 -0.0464  0.1890 -0.2584
    5MOL   C308 2476   5.674   6.863   1.959 -0.5568  0.1640  0.3344
    5MOL   C309 2477   5.740   6.785   2.189 -0.1423 -0.4805  0.6190
    5MOL   H310 2478   5.184   7.233   2.415  0.0508 -0.1466  1.7080
    5MOL   H311 2479   5.051   7.143   2.455  0.1333 -1.0383  1.4519
    5MOL   H312 2480   5.151   7.061   2.351  0.0981  0.6370 -0.5273
    5MOL   H313 2481   5.186   6.983   2.589 -0.3012  0.4314 -1.7174
    5MOL   H314 2482   5.181   7.143   2.649 -0.2147  1.0469 -0.5129
    5MOL   H315 2483   5.398   7.061   2.684  0.4219  0.9790  0.1490
    5MOL   H316 2484   5.408   7.191   2.589  0.5063 -0.1227  0.2217
    5MOL   H317 2485   5.422   6.902   2.452  2.2684  0.3802 -2.5340
    5MOL   H318 2486   5.555   6.980   2.529 -1.6449 -0.3535  2.4641
    5MOL   H319 2487   5.401   7.074   2.293  1.1877  2.0866 -0.8795
    5MOL   H320 2488   5.502   7.188   2.359 -0.3426  0.5037  0.2206
    5MOL   H321 2489   5.587   6.799   1.952 -0.2257 -0.2642  0.1416
    5MOL   H322 2490   5.643   6.949   1.899 -0.5522 -1.3182 -1.8678
    5MOL   H323 2491   5.749   6.805   1.905 -2.3402 -1.4762 -0.4487
    5MOL   H324 2492   5.650   6.749   2.238 -0.7170 -0.1902 -0.2086
    5MOL   H325 2493   5.798   6.821   2.274 -0.0847 -2.3870  1.4082
    5MOL   C326 2494   5.254   6.783   2.239  0.3630 -0.1695  0.1367
    5MOL   C327 2495   5.353   6.673   2.235 -0.6846  0.0777  0.3623
    5MOL   C328 2496   5.300   6.555   2.167  0.5771 -0.1000  0.7692
    5MOL   C329 2497   5.395   6.434   2.175 -0.0556  0.0717 -0.1469
    5MOL   C330 2498   5.514   6.431   2.080 -0.5853 -1.2388  0.0538
    5MOL   O331 2499   5.613   6.511   2.138  0.1025 -0.0642 -0.2880
    5MOL   C332 2500   5.714   6.562   2.066 -0.2792 -0.5436 -0.2705
    5MOL   O333 2501   5.739   6.538   1.946  0.2372 -0.0890  0.3583
    5MOL   C334 2502   5.817   6.651   2.144  0.7541 -0.3390 -1.0294
    5MOL   C335 2503   5.941   6.693   2.058  0.1954 -0.7143  0.2709
    5MOL   C336 2504   5.867   6.570   2.280 -0.0557  0.0734  0.7922
    5MOL   H337 2505   5.164   6.757   2.183  0.8250 -0.2943 -0.5586
    5MOL   H338 2506   5.283   6.883   2.207 -1.0892  1.0260  2.4793
    5MOL   H339 2507   5.224   6.788   2.343 -0.9695  1.6231 -0.3217
    5MOL   H340 2508   5.406   6.651   2.328  1.9739 -1.0262 -1.3258
    5MOL   H341 2509   5.434   6.716   2.175 -1.1272 -0.1496 -0.4107
    5MOL   H342 2510   5.263   6.578   2.066  2.0638 -0.2984  0.1745
    5MOL   H343 2511   5.208   6.514   2.210 -2.3077  1.0943 -3.8099
    5MOL   H344 2512   5.341   6.342   2.150  0.6149 -0.3360 -0.1212
    5MOL   H345 2513   5.419   6.413   2.280 -0.9162  0.2422  0.0911
    5MOL   H346 2514   5.480   6.475   1.987  1.1119 -1.2965 -0.6102
    5MOL   H347 2515   5.550   6.329   2.068 -2.0434 -1.7625  0.0678
    5MOL   H348 2516   5.923   6.775   1.989  0.4160 -1.3620 -0.5672
    5MOL   H349 2517   5.986   6.607   2.009  3.4181  1.2090 -0.2810
    5MOL   H350 2518   6.020   6.729   2.124  0.6174 -0.3404 -0.4368
    5MOL   H351 2519   5.772   6.551   2.331 -0.6745  0.9090 -0.0249
    5MOL   H352 2520   5.912   6.647   2.342 -0.6190  2.2228 -1.3594
    5MOL   C353 2521   6.782   6.562   2.378 -0.2682 -0.0604  0.6408
    5MOL   C354 2522   6.643   6.497   2.405  0.1921 -0.2572 -0.5981
    5MOL   C355 2523   6.525   6.578   2.352 -1.0251 -0.3168 -0.9941
    5MOL   C356 2524   6.388   6.517   2.384  0.8785  0.3950  0.4153
    5MOL   C357 2525   6.280   6.602   2.326 -0.1343  0.2059  0.0379
    5MOL   O358 2526   6.148   6.556   2.335  0.6049  0.2472  0.1660
    5MOL   C359 2527   6.095   6.467   2.242  0.8219 -0.5348  0.0883
    5MOL   O360 2528   6.152   6.421   2.144 -0.1306  0.3636 -0.2906
    5MOL   C361 2529   5.945   6.434   2.276  0.3020  0.0356  0.5580
    5MOL   C362 2530   5.896   6.326   2.171 -0.2504 -0.2251 -0.0985
    5MOL   C363 2531   5.936   6.365   2.418  0.3921 -0.4327 -0.3918
    5MOL   H364 2532   6.778   6.591   2.273 -2.2555 -0.8598  0.4807
    5MOL   H365 2533   6.865   6.503   2.417  0.4271  0.3286 -0.2122
    5MOL   H366 2534   6.786   6.655   2.435 -1.7203  0.2345  0.2783
    5MOL   H367 2535   6.647   6.395   2.366  0.7602 -0.0630 -1.0550
    5MOL   H368 2536   6.615   6.499   2.511  1.5768  1.8465 -0.2354
    5MOL   H369 2537   6.546   6.586   2.245  0.3746  1.6475 -0.5931
    5MOL   H370 2538   6.525   6.682   2.383 -1.4862 -0.9619  1.2436
    5MOL   H371 2539   6.372   6.522   2.491 -0.6500 -0.8168  0.2702
    5MOL   H372 2540   6.380   6.412   2.354 -0.8767  0.2327  1.3797
    5MOL   H373 2541   6.280   6.699   2.377 -0.7206  0.3519 -0.2355
    5MOL   H374 2542   6.303   6.627   2.222  1.0249 -0.5051  0.1088
    5MOL   H375 2543   5.923   6.354   2.069 -0.5202 -1.8756 -0.6298
    5MOL   H376 2544   5.947   6.231   2.181  3.2120  1.7875  2.5181
    5MOL   H377 2545   5.788   6.322   2.158 -0.2651  0.7117 -0.3208
    5MOL   H378 2546   5.992   6.272   2.407 -0.4207 -0.5810 -3.7815
    5MOL   H379 2547   5.995   6.430   2.483 -1.4361  0.2902  0.6163
    5MOL   C380 2548   5.325   6.843   2.863 -0.1532  0.9618  0.2206
    5MOL   C381 2549   5.387   6.780   2.743 -0.6919 -0.4627  0.1085
    5MOL   C382 2550   5.341   6.630   2.725 -0.1330  0.0240 -0.2150
    5MOL   C383 2551   5.405   6.562   2.608 -0.1016 -0.0237 -0.1274
    5MOL   C384 2552   5.517   6.470   2.668 -0.2137  0.1841 -0.2306
    5MOL   O385 2553   5.591   6.397   2.567 -0.0251 -0.1860 -0.8734
    5MOL   C386 2554   5.723   6.425   2.551  0.0997 -0.3563  0.3973
    5MOL   O387 2555   5.766   6.535   2.584 -0.4984  0.2937  0.3602
    5MOL   C388 2556   5.811   6.306   2.494 -0.1585 -0.2373 -0.1889
    5MOL   C389 2557   5.735   6.218   2.398  0.0939  0.2349  0.2528
    5MOL   C390 2558   5.853   6.212   2.617  0.2933 -0.5633  0.7030
    5MOL   H391 2559   5.390   6.928   2.886  1.8584 -0.3641 -0.4313
    5MOL   H392 2560   5.221   6.873   2.845  0.1003  0.9663 -1.2713
    5MOL   H393 2561   5.328   6.780   2.952  1.5107  3.2328  1.8335
    5MOL   H394 2562   5.496   6.790   2.748 -0.7095 -0.2433  0.0504
    5MOL   H395 2563   5.363   6.841   2.656  0.1327 -0.0753  0.1443
    5MOL   H396 2564   5.336   6.567   2.814 -1.4462 -0.0554 -0.3231
    5MOL   H397 2565   5.236   6.642   2.697 -0.0311 -3.3372 -2.2151
    5MOL   H398 2566   5.342   6.511   2.535  3.2181 -3.1095 -0.9689
    5MOL   H399 2567   5.446   6.640   2.545 -1.0583  1.5781  1.1701
    5MOL   H400 2568   5.470   6.395   2.731 -0.6070  0.6273  0.0076
    5MOL   H401 2569   5.585   6.527   2.731  0.2057 -0.6983  0.1143
    5MOL   H402 2570   5.677   6.279   2.329  0.7034  0.1061 -0.3776
    5MOL   H403 2571   5.658   6.158   2.447  1.7692  0.0545  2.7830
    5MOL   H404 2572   5.803   6.141   2.362  0.8562  0.3021  1.5119
    5MOL   H405 2573   5.918   6.136   2.574  1.8753  1.9394 -1.4376
    5MOL   H406 2574   5.761   6.160   2.645 -0.7334  2.2558  2.7331
    5MOL   C407 2575   5.849   6.993   2.551 -0.1182 -0.5440 -0.5532
    5MOL   C408 2576   5.874   6.921   2.687  0.3091 -0.0231  0.5221
    5MOL   C409 2577   5.951   6.792   2.664 -0.3795  0.1813  0.1215
    5MOL   C410 2578   6.016   6.731   2.790 -0.3268 -0.5568  0.4761
    5MOL   C411 2579   6.090   6.600   2.765 -0.8560 -0.6805  0.1262
    5MOL   O412 2580   6.004   6.493   2.783 -0.1520 -0.2201 -0.5110
    5MOL   C413 2581   6.033   6.372   2.730 -0.6308  0.2989  0.8576
    5MOL   O414 2582   6.136   6.349   2.665  0.1287 -0.7742 -0.1613
    5MOL   C415 2583   5.925   6.259   2.749 -0.3578  0.1962  0.5137
    5MOL   C416 2584   5.803   6.306   2.839 -0.1805  0.0791  0.2590
    5MOL   C417 2585   5.994   6.135   2.805  0.5509  0.3132 -0.0457
    5MOL   H418 2586   5.927   7.067   2.533 -0.6624 -0.6099 -3.3669
    5MOL   H419 2587   5.842   6.924   2.467 -2.1805 -0.2821 -0.6369
    5MOL   H420 2588   5.760   7.057   2.561  0.4922  0.1468  0.6650
    5MOL   H421 2589   5.776   6.892   2.724 -0.7493  1.8701 -0.7088
    5MOL   H422 2590   5.919   6.996   2.751 -1.6259 -0.5375  2.5318
    5MOL   H423 2591   5.882   6.726   2.611 -2.1100  3.8140 -2.3362
    5MOL   H424 2592   6.040   6.813   2.605 -0.5264 -1.9258 -0.9168
    5MOL   H425 2593   5.946   6.721   2.872  1.2078  0.2979  1.9267
    5MOL   H426 2594   6.094   6.800   2.821  0.7950 -0.4984 -2.2535
    5MOL   H427 2595   6.143   6.597   2.670  0.6685  0.2518  0.9276
    5MOL   H428 2596   6.179   6.591   2.828 -1.0825  0.8375  0.6836
    5MOL   H429 2597   5.769   6.407   2.814  0.1262 -0.1980 -1.3293
    5MOL   H430 2598   5.834   6.314   2.943  1.6042 -1.5518 -0.1201
    5MOL   H431 2599   5.711   6.249   2.830 -0.2191  0.1727  0.0629
    5MOL   H432 2600   6.084   6.131   2.743  0.7526 -2.1722  0.3720
    5MOL   H433 2601   5.931   6.047   2.799  0.3372  0.4814 -0.2690
    5MOL   C434 2602   5.879   6.024   3.796 -0.3226  0.5069 -0.4222
    5MOL   C435 2603   5.948   6.067   3.668  0.0030 -0.1377  0.0357
    5MOL   C436 2604   5.863   6.044   3.540  0.1931 -0.0365 -0.5564
    5MOL   C437 2605   5.945   6.074   3.420  0.2119  0.1873  0.0261
    5MOL   C438 2606   5.869   6.068   3.289 -0.5422  0.9888 -0.4379
    5MOL   O439 2607   5.973   6.074   3.193  0.6985 -0.1493 -0.2739
    5MOL   C440 2608   5.935   6.083   3.057  1.0321  0.1149 -1.0914
    5MOL   O441 2609   5.818   6.072   3.018  0.4150  0.2042  0.0821
    5MOL   C442 2610   6.046   6.120   2.954  1.0487 -0.2622 -0.1807
    5MOL   C443 2611   6.112   6.256   3.011 -0.0154  0.0756 -0.2595
    5MOL   C444 2612   6.158   6.013   2.950  0.1168 -0.4501 -0.1380
    5MOL   H445 2613   5.791   6.083   3.821 -0.4061  0.9998 -1.8406
    5MOL   H446 2614   5.856   5.918   3.789 -0.3640  0.5471 -0.9644
    5MOL   H447 2615   5.944   6.040   3.882 -3.1066  0.3120  1.7733
    5MOL   H448 2616   5.972   6.173   3.677  0.9583 -0.4839  1.7198
    5MOL   H449 2617   6.041   6.011   3.665  0.3250  0.3711  0.4382
    5MOL   H450 2618   5.826   5.942   3.532 -0.2858 -0.0244  1.2424
    5MOL   H451 2619   5.775   6.108   3.542  0.8959  0.9246 -0.1611
    5MOL   H452 2620   6.021   5.996   3.412  1.2064  1.0636  0.8581
    5MOL   H453 2621   5.997   6.169   3.434 -1.4868  0.7975  2.5488
    5MOL   H454 2622   5.801   6.152   3.274 -3.0764 -0.8127  0.6039
    5MOL   H455 2623   5.813   5.975   3.280  0.3039  0.6037 -1.8061
    5MOL   H456 2624   6.037   6.329   3.040  0.1616  0.6723 -1.2825
    5MOL   H457 2625   6.173   6.226   3.096  1.5055 -2.3093 -2.1130
    5MOL   H458 2626   6.177   6.322   2.953  0.5125  1.8803  2.3077
    5MOL   H459 2627   6.203   6.017   3.049 -1.2668 -2.5949  0.6129
    5MOL   H460 2628   6.238   6.049   2.886  0.7395 -0.4638  0.6218
    5MOL   C461 2629   5.453   5.896   2.438 -0.1282  0.2329  0.7953
    5MOL   C462 2630   5.549   5.889   2.558 -0.9600 -0.9431  0.0091
    5MOL   C463 2631   5.682   5.819   2.526  0.0691  0.3440 -0.3080
    5MOL   C464 2632   5.767   5.832   2.649  0.5318  0.5089 -0.0824
    5MOL   C465 2633   5.892   5.750   2.649  0.2772 -0.1202 -0.4436
    5MOL   O466 2634   5.962   5.768   2.768 -0.1839  0.2074 -0.0308
    5MOL   C467 2635   6.078   5.846   2.774 -0.1904  0.3896  0.9320
    5MOL   O468 2636   6.143   5.881   2.672  0.5010  0.2362  0.1828
    5MOL   C469 2637   6.131   5.859   2.920 -0.0460 -0.0306  0.4359
    5MOL   C470 2638   6.023   5.804   3.020  0.4258 -0.2832  0.4937
    5MOL   C471 2639   6.261   5.766   2.924  0.0056 -0.0156  0.0284
    5MOL   H472 2640   5.473   5.987   2.381 -3.6782 -0.2537 -1.3714
    5MOL   H473 2641   5.355   5.901   2.484 -0.2129  1.1350  0.5224
    5MOL   H474 2642   5.451   5.810   2.371 -0.7590 -0.3805  1.5951
    5MOL   H475 2643   5.501   5.829   2.635 -1.1775  0.7606  1.2259
    5MOL   H476 2644   5.577   5.989   2.591  0.3221 -1.0207 -0.7982
    5MOL   H477 2645   5.722   5.864   2.435  0.1356  0.3688 -0.2661
    5MOL   H478 2646   5.653   5.714   2.512  0.1232 -0.0211  2.0974
    5MOL   H479 2647   5.707   5.793   2.731  2.1083 -1.2049  0.3008
    5MOL   H480 2648   5.786   5.937   2.669  0.6094  0.2748  1.0811
    5MOL   H481 2649   5.864   5.644   2.647  0.1892 -0.0802 -2.2214
    5MOL   H482 2650   5.958   5.781   2.568  2.5454 -1.9050  0.6372
    5MOL   H483 2651   6.043   5.832   3.124 -0.0560 -0.5780  0.6685
    5MOL   H484 2652   6.028   5.695   3.022  1.0222 -0.2432  2.4092
    5MOL   H485 2653   5.919   5.836   3.009  0.5995 -0.0861 -0.6022
    5MOL   H486 2654   6.306   5.774   2.825 -2.3851 -5.0479 -1.6578
    5MOL   H487 2655   6.230   5.661   2.924 -0.3148  0.0753 -0.1733
    5MOL   C488 2656   5.779   5.589   3.600  1.0953  0.5443 -1.0132
    5MOL   C489 2657   5.850   5.600   3.469  1.0224  0.1849 -0.7148
    5MOL   C490 2658   5.995   5.633   3.495  1.0247 -0.6852  0.1527
    5MOL   C491 2659   6.067   5.627   3.362 -0.1139  0.6213  0.4205
    5MOL   C492 2660   6.210   5.678   3.365  0.3871 -0.9091  0.0365
    5MOL   O493 2661   6.251   5.676   3.234  0.0493  0.1781 -0.0982
    5MOL   C494 2662   6.317   5.778   3.176  0.3188  0.3268 -0.4973
    5MOL   O495 2663   6.343   5.880   3.236  0.4730 -0.2671  0.0904
    5MOL   C496 2664   6.374   5.758   3.032 -0.2251 -0.6163 -0.0591
    5MOL   C497 2665   6.477   5.868   3.001  0.2027 -0.4745  0.0478
    5MOL   C498 2666   6.436   5.617   3.032  0.0402 -0.5380 -0.2415
    5MOL   H499 2667   5.686   5.540   3.569  2.4170 -2.2252 -0.8115
    5MOL   H500 2668   5.832   5.525   3.671  0.8985  0.3836 -1.0082
    5MOL   H501 2669   5.754   5.680   3.654  0.6912 -0.7315  1.0300
    5MOL   H502 2670   5.783   5.671   3.421  1.7154  2.5544  1.7200
    5MOL   H503 2671   5.841   5.507   3.413  0.1671 -1.1295  1.5301
    5MOL   H504 2672   6.008   5.730   3.541  0.1869 -0.3688 -0.2698
    5MOL   H505 2673   6.035   5.571   3.575  1.0974 -0.9062 -0.0548
    5MOL   H506 2674   6.010   5.688   3.291  0.5794 -0.2282 -0.9005
    5MOL   H507 2675   6.055   5.528   3.318 -0.2239 -0.0065  1.8446
    5MOL   H508 2676   6.229   5.780   3.398  1.4904 -1.3857  0.8833
    5MOL   H509 2677   6.277   5.616   3.425 -1.7006 -2.2973  0.9861
    5MOL   H510 2678   6.560   5.864   3.072  0.8299  1.6679 -0.5222
    5MOL   H511 2679   6.430   5.966   3.006 -0.5149 -0.8845  1.8465
    5MOL   H512 2680   6.514   5.868   2.899 -0.4832 -0.0794 -0.2011
    5MOL   H513 2681   6.366   5.541   3.068  0.3320 -1.4163 -1.5013
    5MOL   H514 2682   6.516   5.618   3.107  1.3033 -0.4037 -1.5824
    5MOL   C515 2683   5.880   5.243   2.420  0.9920 -0.2689  0.1554
    5MOL   C516 2684   5.970   5.327   2.518 -0.1911  0.1043 -0.8236
    5MOL   C517 2685   6.039   5.243   2.619  0.1967 -0.3081 -1.2003
    5MOL   C518 2686   6.129   5.319   2.729 -1.0026  0.4720  0.1023
    5MOL   C519 2687   6.235   5.410   2.677 -0.3367  1.0492  0.7382
    5MOL   O520 2688   6.313   5.446   2.793  0.1854 -0.1491 -0.1214
    5MOL   C521 2689   6.414   5.529   2.779 -0.4988  0.8212 -0.3186
    5MOL   O522 2690   6.435   5.598   2.679 -0.4781  0.3493  0.7851
    5MOL   C523 2691   6.502   5.553   2.910  1.1446  0.6500  0.6427
    5MOL   C524 2692   6.543   5.413   2.956 -0.1054  0.6064  0.1689
    5MOL   C525 2693   6.635   5.632   2.869  0.4330  0.2095  0.2422
    5MOL   H526 2694   5.836   5.314   2.349  0.1256 -1.1378 -0.1870
    5MOL   H527 2695   5.937   5.167   2.367  1.5490  0.1819  0.1029
    5MOL   H528 2696   5.790   5.197   2.462  0.6532  1.2784  1.1539
    5MOL   H529 2697   6.048   5.379   2.463 -0.4909  1.4432 -0.0194
    5MOL   H530 2698   5.911   5.406   2.565  0.8517  0.2989  0.1749
    5MOL   H531 2699   5.962   5.190   2.674  2.8821 -4.3698 -1.1245
    5MOL   H532 2700   6.093   5.162   2.570 -0.7043 -1.8350  0.3198
    5MOL   H533 2701   6.182   5.246   2.790  0.6319  0.9864 -0.6643
    5MOL   H534 2702   6.053   5.361   2.795 -1.2054  1.4459 -0.7442
    5MOL   H535 2703   6.303   5.362   2.607 -2.3795 -1.9828  0.7411
    5MOL   H536 2704   6.185   5.491   2.624 -0.7757 -0.3061 -0.9767
    5MOL   H537 2705   6.572   5.349   2.872 -1.4569  0.5911 -0.2999
    5MOL   H538 2706   6.461   5.361   3.005 -1.1765  0.9412 -1.2374
    5MOL   H539 2707   6.623   5.419   3.030  0.5214  1.6319 -0.5769
    5MOL   H540 2708   6.720   5.568   2.844  1.3124  1.1635  0.7263
    5MOL   H541 2709   6.683   5.680   2.954 -0.5389 -0.3924  1.1379
    5MOL   H542 2710   6.633   5.708   2.792  0.3142  0.4285  0.4618
    6MOL     C1 2711   2.786   0.049   5.764 -1.0664  0.2973  0.0813
    6MOL     C2 2712   2.771   0.161   5.866 -0.0999  0.1363  0.1216
    6MOL     C3 2713   2.724   0.293   5.810 -0.0246  0.3070  0.1792
    6MOL     C4 2714   2.818   0.341   5.701 -0.0465 -0.4435  0.9373
    6MOL     C5 2715   2.964   0.358   5.749  0.1812  0.1020  0.0500
    6MOL     O6 2716   2.988   0.479   5.821 -0.0785  0.1564  0.3917
    6MOL     C7 2717   3.115   0.517   5.845 -0.1605  0.6656 -0.1458
    6MOL     O8 2718   3.216   0.459   5.806 -0.3294  0.0908 -0.5770
    6MOL     C9 2719   3.133   0.643   5.930 -0.0415  0.4150 -0.3525
    6MOL    C10 2720   3.099   0.623   6.078  0.2146  0.0715  0.1166
    6MOL    C11 2721   3.073   0.780   5.871  0.0122 -0.1672 -0.7628
    6MOL    H12 2722   2.697   0.010   5.713  0.3715 -1.2647 -1.3033
    6MOL    H13 2723   2.839   7.780   5.810 -1.5623 -0.0742 -0.0055
    6MOL    H14 2724   2.859   0.055   5.684  0.3329 -2.5169  1.0616
    6MOL    H15 2725   2.695   0.124   5.936 -0.4857  0.4113 -0.1456
    6MOL    H16 2726   2.859   0.173   5.928  0.1551 -1.3884  0.0721
    6MOL    H17 2727   2.625   0.280   5.767 -0.5824 -1.8003  1.9756
    6MOL    H18 2728   2.712   0.363   5.893  3.2481  0.8531  0.2656
    6MOL    H19 2729   2.783   0.437   5.664  0.2094  0.2707  2.5005
    6MOL    H20 2730   2.825   0.267   5.621  1.1103  1.2505 -0.5540
    6MOL    H21 2731   3.003   0.282   5.817  0.4351  1.7011  1.7354
    6MOL    H22 2732   3.026   0.354   5.660 -0.8690 -1.7330 -0.6244
    6MOL    H23 2733   3.128   0.526   6.116  1.8908  1.0293  1.3226
    6MOL    H24 2734   2.993   0.636   6.104  0.4330  1.5797  0.3056
    6MOL    H25 2735   3.148   0.690   6.149 -2.5156  1.6498  0.6246
    6MOL    H26 2736   3.026   0.842   5.947  0.2188 -2.0165  0.9328
    6MOL    H27 2737   2.997   0.750   5.798 -0.6938  0.1083 -0.1528
    6MOL    H28 2738   3.241   0.648   5.935 -0.0780  0.3413  0.7421
    6MOL    C29 2739   3.456   0.543   6.359 -0.6399  0.2228 -0.0300
    6MOL    C30 2740   3.537   0.626   6.259 -0.2266 -0.4178  0.9026
    6MOL    C31 2741   3.454   0.731   6.184 -0.2044 -0.4969  0.5193
    6MOL    C32 2742   3.533   0.807   6.073  0.0786  0.2948 -0.4423
    6MOL    C33 2743   3.458   0.919   6.010  0.5893  0.5043 -0.2894
    6MOL    O34 2744   3.366   0.869   5.918  0.2293  0.1765  0.0262
    6MOL    C35 2745   3.269   0.949   5.868  0.3075 -0.0629 -0.4384
    6MOL    O36 2746   3.263   1.069   5.887 -0.0429  0.4455  0.2610
    6MOL    C37 2747   3.163   0.875   5.782 -0.2852 -0.2115 -0.0329
    6MOL    C38 2748   3.058   0.974   5.725  0.1268  0.3656 -1.0381
    6MOL    C39 2749   3.221   0.779   5.672 -0.5649 -0.1755  0.3115
    6MOL    H40 2750   3.454   0.588   6.458  0.0699 -0.5476  0.3381
    6MOL    H41 2751   3.360   0.521   6.311  0.5348 -2.6010 -1.1980
    6MOL    H42 2752   3.497   0.443   6.374 -1.9788 -0.5468 -1.2689
    6MOL    H43 2753   3.582   0.557   6.188  0.6358  1.6827 -0.6517
    6MOL    H44 2754   3.618   0.676   6.311 -0.2738  0.5688  0.0522
    6MOL    H45 2755   3.416   0.797   6.262  0.8973 -0.0671  0.6939
    6MOL    H46 2756   3.379   0.679   6.123 -2.1093  1.0442  1.5240
    6MOL    H47 2757   3.630   0.849   6.100 -0.8579  1.5497  1.0510
    6MOL    H48 2758   3.559   0.734   5.997  1.5847 -0.0263  0.3614
    6MOL    H49 2759   3.538   0.973   5.958  1.3216  0.2597  0.5728
    6MOL    H50 2760   3.426   0.993   6.084 -2.3248 -0.6322 -0.3387
    6MOL    H51 2761   3.111   1.052   5.670  1.3458 -1.1626 -2.1002
    6MOL    H52 2762   2.999   1.001   5.812  0.4285 -0.4906 -0.5589
    6MOL    H53 2763   2.983   0.926   5.662 -1.7449  0.5262  1.0494
    6MOL    H54 2764   3.141   0.719   5.629 -1.7765 -0.3572  2.7428
    6MOL    H55 2765   3.287   0.711   5.727  2.6100  2.3712 -0.1873
    6MOL    C56 2766   2.735   0.455   5.186  0.3336 -0.0218 -0.2977
    6MOL    C57 2767   2.845   0.461   5.293  0.3711  0.6982 -0.2907
    6MOL    C58 2768   2.899   0.598   5.335  0.2447 -0.2632  0.2845
    6MOL    C59 2769   2.984   0.673   5.226 -0.5651 -0.0206  0.3554
    6MOL    C60 2770   3.033   0.805   5.283 -0.5220 -0.7483  0.2217
    6MOL    O61 2771   3.143   0.778   5.370 -0.8869 -0.0046  0.2274
    6MOL    C62 2772   3.195   0.875   5.440 -0.2100  0.3548 -0.0599
    6MOL    O63 2773   3.162   0.995   5.427 -0.4416  0.3248  0.6004
    6MOL    C64 2774   3.302   0.826   5.545 -0.3703  0.0376 -0.2614
    6MOL    C65 2775   3.375   0.698   5.499 -0.5019  0.2387 -0.7452
    6MOL    C66 2776   3.409   0.937   5.582 -0.0066 -0.3444  0.8232
    6MOL    H67 2777   2.775   0.496   5.094  2.1015  1.0576  0.9197
    6MOL    H68 2778   2.655   0.522   5.214 -0.3246 -1.0041  0.2133
    6MOL    H69 2779   2.692   0.355   5.176  0.8423 -0.4173  1.3037
    6MOL    H70 2780   2.814   0.403   5.381  0.1118  0.7432 -0.3520
    6MOL    H71 2781   2.931   0.414   5.246  0.1502 -0.6552  0.6152
    6MOL    H72 2782   2.814   0.666   5.349 -0.5620 -1.1336 -0.3491
    6MOL    H73 2783   2.965   0.579   5.420 -0.3087 -1.3993  0.4648
    6MOL    H74 2784   2.911   0.713   5.155 -1.5529  1.8851  2.3824
    6MOL    H75 2785   3.052   0.606   5.174 -0.3162  0.5157 -0.0136
    6MOL    H76 2786   3.075   0.868   5.204  0.4023 -2.4659 -0.7010
    6MOL    H77 2787   2.951   0.856   5.334 -0.7423  0.5423 -1.3811
    6MOL    H78 2788   3.324   0.605   5.521 -1.1731 -0.4911 -4.9130
    6MOL    H79 2789   3.471   0.699   5.551 -0.8998 -0.0548  0.0008
    6MOL    H80 2790   3.392   0.704   5.391  0.8479 -1.5240 -0.6407
    6MOL    H81 2791   3.455   0.894   5.671  0.2895  1.6449  1.6534
    6MOL    H82 2792   3.350   1.021   5.617 -2.1338 -0.9814 -1.1036
    6MOL    C83 2793   3.640   0.381   5.784 -0.1094 -0.5583 -0.1269
    6MOL    C84 2794   3.752   0.478   5.812  0.2823  0.3189  0.4331
    6MOL    C85 2795   3.747   0.616   5.749  0.3045  0.6342 -0.4368
    6MOL    C86 2796   3.764   0.615   5.592  0.8752  0.0191  0.2034
    6MOL    C87 2797   3.805   0.757   5.535  0.3573 -1.1284  0.2544
    6MOL    O88 2798   3.693   0.844   5.543 -0.5409 -0.0345 -0.3399
    6MOL    C89 2799   3.615   0.879   5.440 -0.7366  0.8923 -0.2539
    6MOL    O90 2800   3.619   0.816   5.331  0.4038 -0.9385 -0.2136
    6MOL    C91 2801   3.511   0.989   5.474  0.0468 -0.9967  0.0238
    6MOL    C92 2802   3.448   1.038   5.343  0.3276 -0.2739 -0.2300
    6MOL    C93 2803   3.581   1.109   5.546 -0.4569 -1.1531  0.1358
    6MOL    H94 2804   3.653   0.287   5.839  0.3003 -0.3226  0.1853
    6MOL    H95 2805   3.551   0.430   5.822  1.0065  0.3326  1.4293
    6MOL    H96 2806   3.617   0.361   5.680  1.7856 -2.1104 -0.2761
    6MOL    H97 2807   3.847   0.429   5.794 -0.8434 -1.3702 -1.2096
    6MOL    H98 2808   3.738   0.514   5.914  1.0288  0.4869  0.4758
    6MOL    H99 2809   3.832   0.674   5.787  1.5736 -1.2185 -0.4028
    6MOL   H100 2810   3.655   0.667   5.778  1.3291  1.6052  1.1941
    6MOL   H101 2811   3.665   0.606   5.548  1.0375  4.5696 -1.3699
    6MOL   H102 2812   3.841   0.542   5.566 -0.7330 -1.5158 -0.3177
    6MOL   H103 2813   3.839   0.741   5.432 -1.5529  0.3847 -0.6402
    6MOL   H104 2814   3.889   0.783   5.599 -0.7070  1.3778  0.6868
    6MOL   H105 2815   3.403   0.948   5.300 -1.9879  1.1333 -0.7774
    6MOL   H106 2816   3.519   1.072   5.268  0.2070  0.4924  0.0084
    6MOL   H107 2817   3.368   1.112   5.348  0.0632 -0.3816 -2.2374
    6MOL   H108 2818   3.506   1.184   5.570  1.0226  0.8173 -1.1412
    6MOL   H109 2819   3.624   1.079   5.641  0.9630 -0.8627 -0.4010
    6MOL   C110 2820   3.487   1.244   4.727 -0.6348 -0.2642 -0.2183
    6MOL   C111 2821   3.578   1.182   4.836  0.4026  0.4750 -0.6400
    6MOL   C112 2822   3.533   1.223   4.975  0.4204 -0.0043  0.5554
    6MOL   C113 2823   3.601   1.348   5.030  0.3556 -0.2603  0.6942
    6MOL   C114 2824   3.554   1.380   5.175 -0.0759 -0.0444 -0.4653
    6MOL   O115 2825   3.624   1.286   5.259 -0.1874  0.2744  0.1739
    6MOL   C116 2826   3.620   1.307   5.395  0.2514  0.1148 -0.3862
    6MOL   O117 2827   3.564   1.400   5.447  1.0147 -0.6798 -0.0162
    6MOL   C118 2828   3.693   1.198   5.481 -0.3412  0.1194  0.5372
    6MOL   C119 2829   3.795   1.118   5.401  0.5290  0.3458  0.5156
    6MOL   C120 2830   3.761   1.282   5.607 -0.1716  0.0399 -0.3291
    6MOL   H121 2831   3.485   1.352   4.719 -0.0339 -0.0171  2.6253
    6MOL   H122 2832   3.519   1.211   4.628  4.1795 -0.0486  1.1251
    6MOL   H123 2833   3.383   1.212   4.739 -0.7725  0.6672  1.1332
    6MOL   H124 2834   3.584   1.074   4.822  1.2570  0.3186  0.8774
    6MOL   H125 2835   3.682   1.212   4.824  0.9694 -1.5280 -0.8916
    6MOL   H126 2836   3.424   1.222   4.983  0.2101  1.6293 -1.6437
    6MOL   H127 2837   3.569   1.138   5.033 -0.3106 -0.4397  0.3737
    6MOL   H128 2838   3.554   1.427   4.972  0.3511  0.4885  1.7257
    6MOL   H129 2839   3.708   1.364   5.016 -0.2044  2.3181 -0.8849
    6MOL   H130 2840   3.567   1.484   5.206  1.1736 -0.8048  1.6720
    6MOL   H131 2841   3.449   1.352   5.182 -0.2267  0.1409 -1.9248
    6MOL   H132 2842   3.876   1.179   5.360  2.1374 -1.0312  1.5806
    6MOL   H133 2843   3.835   1.039   5.464 -0.3028  0.1521  0.8090
    6MOL   H134 2844   3.745   1.083   5.311  0.4810  2.6427 -0.3984
    6MOL   H135 2845   3.783   1.381   5.568  0.7385 -0.4634 -1.1139
    6MOL   H136 2846   3.680   1.304   5.676  0.4597 -1.6325  1.0007
    6MOL   C137 2847   4.337   1.723   5.881  0.2449 -0.0452 -0.1973
    6MOL   C138 2848   4.186   1.685   5.920 -0.1773  0.0759  0.2359
    6MOL   C139 2849   4.086   1.711   5.810 -0.3704  0.7976  0.3716
    6MOL   C140 2850   3.938   1.695   5.845  0.8597  0.8009 -0.2772
    6MOL   C141 2851   3.887   1.551   5.896  0.3616  0.0044 -0.3299
    6MOL   O142 2852   3.882   1.457   5.786 -0.2780  0.0570 -0.5144
    6MOL   C143 2853   3.901   1.322   5.811 -0.0159  0.3364 -1.3875
    6MOL   O144 2854   3.915   1.280   5.927  0.0375  0.5589 -0.1077
    6MOL   C145 2855   3.881   1.223   5.691 -0.3330 -0.0747  0.5935
    6MOL   C146 2856   3.843   1.084   5.751  0.3751  0.4736 -0.1501
    6MOL   C147 2857   4.022   1.220   5.617 -0.4834  0.7984 -0.1534
    6MOL   H148 2858   4.337   1.821   5.833 -5.2257  0.6877  0.9561
    6MOL   H149 2859   4.380   1.657   5.806 -2.8454 -0.2810 -1.8491
    6MOL   H150 2860   4.400   1.706   5.968  0.5977 -1.0506 -0.6434
    6MOL   H151 2861   4.164   1.757   5.999 -0.1504 -0.2373  0.5289
    6MOL   H152 2862   4.185   1.585   5.963  1.9815  1.2141  3.1053
    6MOL   H153 2863   4.105   1.807   5.764  1.7565 -0.4592 -1.4625
    6MOL   H154 2864   4.112   1.652   5.722  0.9450 -0.6787  1.7102
    6MOL   H155 2865   3.918   1.773   5.918  1.2699  0.7834 -0.1426
    6MOL   H156 2866   3.877   1.723   5.759 -1.4284  0.9521  1.3376
    6MOL   H157 2867   3.784   1.553   5.931  0.0812 -0.6090 -1.1012
    6MOL   H158 2868   3.949   1.516   5.978 -0.2718 -2.6457 -0.9407
    6MOL   H159 2869   3.746   1.086   5.800  0.9302  1.4823  0.9328
    6MOL   H160 2870   3.919   1.055   5.823  1.5889  0.1022 -1.5424
    6MOL   H161 2871   3.834   1.003   5.679  0.7016 -1.2950  1.7456
    6MOL   H162 2872   4.016   1.123   5.567  1.6904 -1.2709  3.3880
    6MOL   H163 2873   4.012   1.293   5.536 -1.4678  1.9136  0.9621
    6MOL   C164 2874   3.922   0.644   6.150  0.3314 -0.2698 -0.5788
    6MOL   C165 2875   4.015   0.762   6.192 -0.2518  0.1016 -0.1341
    6MOL   C166 2876   4.123   0.811   6.094  0.5750  0.0113 -0.3212
    6MOL   C167 2877   4.088   0.878   5.960  0.2332  0.0311 -0.2239
    6MOL   C168 2878   4.211   0.920   5.886  0.1920 -0.2964  0.5259
    6MOL   O169 2879   4.179   1.000   5.774  0.3003  0.1707 -0.7182
    6MOL   C170 2880   4.189   1.141   5.792  0.2374  0.3934 -0.1395
    6MOL   O171 2881   4.221   1.192   5.900  0.1304 -0.7180  0.3391
    6MOL   C172 2882   4.163   1.234   5.675  0.0290  0.1491 -0.0987
    6MOL   C173 2883   4.194   1.379   5.707 -0.8032  0.3423  0.4213
    6MOL   C174 2884   4.258   1.179   5.565 -0.8427 -0.0363 -0.3875
    6MOL   H175 2885   3.973   0.548   6.137  0.6789  0.2734 -3.7235
    6MOL   H176 2886   3.874   0.667   6.055 -1.8946 -1.0069  0.3275
    6MOL   H177 2887   3.842   0.628   6.222  0.6372 -1.1730 -0.4291
    6MOL   H178 2888   4.063   0.734   6.286 -0.0547 -1.0535 -0.5713
    6MOL   H179 2889   3.950   0.847   6.213 -0.7724 -0.0580 -1.0558
    6MOL   H180 2890   4.188   0.879   6.150  1.5015 -1.0528 -0.0871
    6MOL   H181 2891   4.187   0.728   6.065  1.8265  0.6663  0.4985
    6MOL   H182 2892   4.020   0.961   5.980 -0.0237 -0.1377 -0.3965
    6MOL   H183 2893   4.027   0.809   5.902  0.2066 -0.8323  0.8159
    6MOL   H184 2894   4.267   0.838   5.841  0.5500  0.3099 -0.1312
    6MOL   H185 2895   4.278   0.970   5.956 -0.3134  0.1293  0.7149
    6MOL   H186 2896   4.171   1.430   5.614 -0.3035 -1.9374 -0.9791
    6MOL   H187 2897   4.299   1.392   5.735 -1.1659  1.6931  1.1757
    6MOL   H188 2898   4.134   1.422   5.787 -2.4022  0.0831 -0.6177
    6MOL   H189 2899   4.352   1.157   5.615 -0.2625  1.2921 -0.8738
    6MOL   H190 2900   4.221   1.087   5.520  0.8490  0.0079 -1.9174
    6MOL   C191 2901   4.959   1.574   5.860  0.0619 -0.1732  0.0300
    6MOL   C192 2902   4.828   1.504   5.819  0.6073  0.2595  0.3355
    6MOL   C193 2903   4.747   1.591   5.725 -0.7533  0.3892 -0.1463
    6MOL   C194 2904   4.611   1.520   5.688 -0.0802 -0.4460 -0.0669
    6MOL   C195 2905   4.626   1.414   5.574 -0.2838  0.5238 -0.0188
    6MOL   O196 2906   4.514   1.331   5.554 -0.1223  0.6628  0.1240
    6MOL   C197 2907   4.403   1.373   5.492  0.1334 -0.2527 -0.0615
    6MOL   O198 2908   4.383   1.492   5.477 -0.1959 -0.3989  0.2137
    6MOL   C199 2909   4.310   1.255   5.439 -0.7033 -0.4512 -0.2207
    6MOL   C200 2910   4.197   1.305   5.352  0.2734 -0.3032  0.4146
    6MOL   C201 2911   4.400   1.162   5.349  0.2378 -0.4688 -0.1790
    6MOL   H202 2912   5.025   1.591   5.775 -2.3111 -3.1204 -2.5235
    6MOL   H203 2913   4.953   1.669   5.913 -1.8176 -0.3039  0.1033
    6MOL   H204 2914   5.012   1.496   5.913  1.1301  2.4398  2.9495
    6MOL   H205 2915   4.764   1.471   5.901 -1.3393  3.0012 -0.0427
    6MOL   H206 2916   4.856   1.416   5.760 -0.0394  1.6149 -2.0704
    6MOL   H207 2917   4.797   1.620   5.632 -0.9489  0.3652 -0.2581
    6MOL   H208 2918   4.717   1.682   5.777  0.0780 -0.5260  1.9744
    6MOL   H209 2919   4.564   1.473   5.774 -1.9567 -0.1240 -0.9071
    6MOL   H210 2920   4.545   1.600   5.657  0.2481 -0.3673 -0.5879
    6MOL   H211 2921   4.640   1.465   5.478  3.6511 -0.6396 -0.1639
    6MOL   H212 2922   4.709   1.347   5.594  0.4971  1.4621 -0.1091
    6MOL   H213 2923   4.130   1.221   5.335  2.0245 -1.4886 -0.7889
    6MOL   H214 2924   4.236   1.343   5.257  1.2386  1.8358  1.6463
    6MOL   H215 2925   4.136   1.382   5.398 -2.4525 -1.8217 -0.5372
    6MOL   H216 2926   4.499   1.163   5.395 -0.0512  1.5111  0.4624
    6MOL   H217 2927   4.419   1.224   5.262 -0.5771  0.1807  0.0973
    6MOL   C218 2928   3.905   1.131   4.588  0.0504  0.1127 -0.2998
    6MOL   C219 2929   4.010   1.163   4.695  0.3107 -0.6589  0.1624
    6MOL   C220 2930   3.965   1.110   4.840 -0.0221  0.4310  0.4233
    6MOL   C221 2931   4.088   1.095   4.937  0.2310  0.0560 -0.4145
    6MOL   C222 2932   4.069   1.058   5.086  0.6488 -0.7343 -0.0393
    6MOL   O223 2933   4.197   1.064   5.142 -0.6009  0.4099  0.2680
    6MOL   C224 2934   4.223   1.001   5.255 -0.3096 -0.1394 -0.0163
    6MOL   O225 2935   4.143   0.925   5.312  0.6935  0.2393  0.0488
    6MOL   C226 2936   4.374   1.009   5.302 -0.6861 -0.2405  0.3467
    6MOL   C227 2937   4.401   0.906   5.416  0.1147  0.0245  0.3267
    6MOL   C228 2938   4.474   0.987   5.182  0.6446 -0.3509  0.3838
    6MOL   H229 2939   3.875   1.027   4.589 -1.6996  0.5951 -1.4097
    6MOL   H230 2940   3.815   1.189   4.607  0.0693  0.7360 -1.9716
    6MOL   H231 2941   3.944   1.164   4.492 -0.0772  0.2626 -0.2999
    6MOL   H232 2942   4.043   1.267   4.699  0.9657 -0.7921 -1.3628
    6MOL   H233 2943   4.105   1.117   4.667  0.8008 -0.3948  1.3548
    6MOL   H234 2944   3.916   1.013   4.834 -3.3368  2.1111 -0.6827
    6MOL   H235 2945   3.893   1.168   4.898 -1.4652  0.0022 -0.9099
    6MOL   H236 2946   4.154   1.025   4.885 -3.0097 -1.9997 -1.9213
    6MOL   H237 2947   4.131   1.195   4.937  2.1826 -0.7451  0.6970
    6MOL   H238 2948   4.035   0.955   5.083 -1.9041  0.0691  0.4086
    6MOL   H239 2949   3.990   1.113   5.137  0.4706  1.3316 -2.4188
    6MOL   H240 2950   4.337   0.923   5.502 -0.8378  0.9651 -0.5527
    6MOL   H241 2951   4.506   0.893   5.442  0.6323 -0.3595 -1.8804
    6MOL   H242 2952   4.383   0.809   5.370 -0.1270 -1.0935  2.7274
    6MOL   H243 2953   4.569   0.992   5.235  1.0341 -2.4796 -0.0761
    6MOL   H244 2954   4.471   1.079   5.123 -0.6193  1.0282  2.4852
    6MOL   C245 2955   4.241   0.737   4.431  0.0756  0.0158 -0.0858
    6MOL   C246 2956   4.262   0.686   4.577  0.2559 -0.5234  0.0869
    6MOL   C247 2957   4.294   0.800   4.680  0.4564  0.6159  0.3598
    6MOL   C248 2958   4.419   0.892   4.654 -0.3057 -0.5458  0.4171
    6MOL   C249 2959   4.453   1.002   4.759  0.3050  0.0390  0.5985
    6MOL   O250 2960   4.432   0.965   4.893 -0.5142 -0.2894  0.3264
    6MOL   C251 2961   4.529   0.900   4.961 -0.2527 -0.4624  0.6938
    6MOL   O252 2962   4.647   0.890   4.927  0.2588  0.0913  0.3009
    6MOL   C253 2963   4.484   0.855   5.103  0.4401 -0.3825  0.1792
    6MOL   C254 2964   4.347   0.785   5.088 -0.4596 -0.0803  0.3866
    6MOL   C255 2965   4.598   0.761   5.167  0.4636 -0.6567 -0.5036
    6MOL   H256 2966   4.311   0.815   4.403 -0.7973  1.5336  1.8018
    6MOL   H257 2967   4.240   0.653   4.362 -1.4415 -1.9914  2.2796
    6MOL   H258 2968   4.142   0.782   4.432  0.3917  0.7074 -0.3943
    6MOL   H259 2969   4.176   0.630   4.613 -1.1513  0.9484 -0.9197
    6MOL   H260 2970   4.350   0.622   4.580  1.4391  0.9928 -1.2764
    6MOL   H261 2971   4.293   0.760   4.781 -1.0062 -1.1699 -0.3360
    6MOL   H262 2972   4.210   0.869   4.674  1.5148  1.9507  0.6649
    6MOL   H263 2973   4.498   0.817   4.653  0.2319  0.0224 -0.6949
    6MOL   H264 2974   4.408   0.938   4.556 -0.7677  1.6763  1.4881
    6MOL   H265 2975   4.555   1.038   4.750 -0.8268  3.2315  0.0152
    6MOL   H266 2976   4.380   1.080   4.739  0.3956  1.0996  4.1257
    6MOL   H267 2977   4.273   0.857   5.054  1.5301  2.1153  0.5511
    6MOL   H268 2978   4.348   0.714   5.005 -0.2471  2.0301 -1.4646
    6MOL   H269 2979   4.312   0.735   5.178 -0.1813  0.4249  0.7733
    6MOL   H270 2980   4.693   0.814   5.157 -0.6531  1.2390 -1.2000
    6MOL   H271 2981   4.586   0.763   5.276 -3.7813  0.4688 -0.9224
    6MOL   C272 2982   5.053   0.193   4.955 -0.0663 -0.1391  0.5797
    6MOL   C273 2983   5.048   0.341   4.912 -0.3557  0.3455 -0.9174
    6MOL   C274 2984   4.947   0.362   4.806  0.0779  0.5255  0.1762
    6MOL   C275 2985   4.935   0.516   4.777 -0.3295 -0.2732 -0.0494
    6MOL   C276 2986   4.793   0.567   4.805  0.2581  0.0546 -0.3303
    6MOL   O277 2987   4.762   0.590   4.939  0.7515 -0.3446 -0.0237
    6MOL   C278 2988   4.632   0.581   4.989 -0.1112  0.6988 -0.4974
    6MOL   O279 2989   4.539   0.552   4.917  0.1122 -0.3354 -0.5777
    6MOL   C280 2990   4.614   0.607   5.139 -0.4271  0.2883  0.1266
    6MOL   C281 2991   4.750   0.568   5.206  0.1871 -0.2745  0.9324
    6MOL   C282 2992   4.495   0.519   5.203 -0.0871 -0.3525 -0.0968
    6MOL   H283 2993   4.955   0.160   4.988 -0.5787 -0.2597 -1.0237
    6MOL   H284 2994   5.089   0.135   4.870 -0.1704 -0.3314  0.6676
    6MOL   H285 2995   5.124   0.173   5.035  2.3097  1.8965 -0.9606
    6MOL   H286 2996   5.032   0.407   4.998  0.5684 -0.5542 -0.0302
    6MOL   H287 2997   5.146   0.362   4.869  0.3128  1.5527  1.1234
    6MOL   H288 2998   4.969   0.311   4.713 -2.0852 -2.2043  1.1016
    6MOL   H289 2999   4.853   0.313   4.834  1.1070 -1.6267 -0.0556
    6MOL   H290 3000   5.003   0.581   4.833 -1.5219  1.5922 -0.7435
    6MOL   H291 3001   4.961   0.529   4.672 -0.1902 -1.3189 -0.1486
    6MOL   H292 3002   4.715   0.500   4.768 -2.4970  3.2215 -0.4493
    6MOL   H293 3003   4.774   0.663   4.759 -0.9512 -0.5517 -1.1087
    6MOL   H294 3004   4.829   0.643   5.196  0.8273 -1.1484 -0.7672
    6MOL   H295 3005   4.746   0.567   5.315 -0.5117 -0.2801  0.9093
    6MOL   H296 3006   4.800   0.475   5.177 -1.0346 -0.0393 -2.2001
    6MOL   H297 3007   4.473   0.558   5.303  0.5348 -2.9326  1.0992
    6MOL   H298 3008   4.402   0.547   5.153  0.9044 -1.1284 -2.3965
    6MOL   C299 3009   5.073   7.784   5.267 -0.3054 -0.0652  0.1190
    6MOL   C300 3010   5.011   0.070   5.367  0.0668 -1.1708  1.1289
    6MOL   C301 3011   4.983   0.219   5.319 -0.0516  0.4133  0.3752
    6MOL   C302 3012   4.920   0.312   5.425 -0.0351 -0.0852 -0.2587
    6MOL   C303 3013   4.774   0.277   5.456 -0.9418 -0.1495 -0.9486
    6MOL   O304 3014   4.696   0.330   5.344  0.0330  0.0973 -0.3345
    6MOL   C305 3015   4.558   0.326   5.346  0.3252  0.2881 -0.4664
    6MOL   O306 3016   4.501   0.277   5.437  0.3746 -0.5508 -0.6745
    6MOL   C307 3017   4.487   0.368   5.216 -0.1865 -0.1930  0.2041
    6MOL   C308 3018   4.340   0.335   5.228 -0.2886 -0.3055  0.1766
    6MOL   C309 3019   4.544   0.296   5.092  0.1243  0.2205  0.0499
    6MOL   H310 3020   4.999   7.748   5.196 -0.7362  1.0584 -0.0136
    6MOL   H311 3021   5.126   7.704   5.319  1.6884  1.6770  0.8211
    6MOL   H312 3022   5.161   0.003   5.212 -0.6531 -0.5376 -0.7252
    6MOL   H313 3023   5.071   0.065   5.458 -2.6143  0.0140  3.0404
    6MOL   H314 3024   4.907   0.043   5.383 -1.0354  0.5635 -2.3899
    6MOL   H315 3025   4.911   0.205   5.239 -0.0550  1.5462  0.1752
    6MOL   H316 3026   5.072   0.261   5.272  0.3889  0.5165  1.2734
    6MOL   H317 3027   4.919   0.408   5.375 -0.5795  0.9540  1.7142
    6MOL   H318 3028   4.980   0.311   5.517  2.4754  0.6136 -1.8373
    6MOL   H319 3029   4.764   0.169   5.460 -0.5184 -0.1172  2.0728
    6MOL   H320 3030   4.749   0.334   5.545 -0.3902  0.2369 -1.0416
    6MOL   H321 3031   4.303   0.396   5.311 -0.1858  1.2444 -0.9047
    6MOL   H322 3032   4.283   0.368   5.142 -0.0595  1.1868  0.5795
    6MOL   H323 3033   4.311   0.235   5.259  0.3481 -0.6832 -0.4295
    6MOL   H324 3034   4.644   0.338   5.088 -0.6112  1.7821 -2.7909
    6MOL   H325 3035   4.497   0.341   5.005 -0.1452  3.5524  1.8501
    6MOL   C326 3036   4.378   7.361   5.602  0.0984 -0.4483  0.0183
    6MOL   C327 3037   4.373   7.485   5.512 -1.0131 -0.3623 -0.4905
    6MOL   C328 3038   4.512   7.518   5.444 -0.3752  1.0146 -0.0121
    6MOL   C329 3039   4.497   7.614   5.325 -0.1923 -0.5758 -0.1415
    6MOL   C330 3040   4.542   7.752   5.359 -0.4114  0.1467  0.1870
    6MOL   O331 3041   4.502   0.027   5.257 -1.2492 -0.0411  0.2272
    6MOL   C332 3042   4.590   0.052   5.162  0.7366  0.3626 -0.4990
    6MOL   O333 3043   4.706   0.014   5.163 -0.1424  0.2511 -0.1828
    6MOL   C334 3044   4.538   0.149   5.051  0.0742  0.3600 -0.3867
    6MOL   C335 3045   4.390   0.124   5.003 -0.1168  0.8058  0.5284
    6MOL   C336 3046   4.635   0.148   4.926 -0.2014  0.6133 -0.7904
    6MOL   H337 3047   4.288   7.347   5.662 -1.3154 -0.0313 -1.9581
    6MOL   H338 3048   4.460   7.368   5.674 -2.4317  2.5906  2.7553
    6MOL   H339 3049   4.394   7.276   5.536  0.6508  2.0078 -3.1755
    6MOL   H340 3050   4.335   7.566   5.574 -0.0429 -0.5440  0.3555
    6MOL   H341 3051   4.300   7.477   5.431 -0.2381  4.3880 -1.8470
    6MOL   H342 3052   4.525   7.421   5.395  1.0977  1.3634 -0.3397
    6MOL   H343 3053   4.599   7.526   5.509 -1.8438  1.8388  1.8823
    6MOL   H344 3054   4.393   7.629   5.296 -0.0825  2.6025  0.9071
    6MOL   H345 3055   4.560   7.583   5.241 -0.0302 -1.1377  0.1889
    6MOL   H346 3056   4.648   7.750   5.380 -0.8709 -0.7264  2.4970
    6MOL   H347 3057   4.496   7.768   5.457 -0.3284  1.0930  0.0778
    6MOL   H348 3058   4.322   0.089   5.080  0.5368 -0.7162  0.4164
    6MOL   H349 3059   4.393   0.033   4.943 -1.3092  0.3576  1.1271
    6MOL   H350 3060   4.339   0.205   4.951 -1.7631 -0.1333  0.6348
    6MOL   H351 3061   4.736   0.135   4.965 -0.6731 -3.0261 -0.6480
    6MOL   H352 3062   4.644   0.250   4.887  2.2484  1.1044  0.9577
    6MOL   C353 3063   4.815   0.538   4.381  0.0199  0.2498  0.0095
    6MOL   C354 3064   4.717   0.424   4.345 -0.4628  0.3441 -0.3395
    6MOL   C355 3065   4.635   0.399   4.470 -0.0315  0.2168  0.0410
    6MOL   C356 3066   4.531   0.298   4.438  0.3704  0.0074 -0.8051
    6MOL   C357 3067   4.444   0.273   4.559 -0.0580  0.2619 -0.2561
    6MOL   O358 3068   4.523   0.226   4.668 -0.1765  0.1381  0.3670
    6MOL   C359 3069   4.511   0.098   4.705  0.3542  0.2748  0.5197
    6MOL   O360 3070   4.421   0.032   4.666  0.8733  0.2097 -0.1537
    6MOL   C361 3071   4.628   0.056   4.796  0.0017  0.2260 -0.2475
    6MOL   C362 3072   4.619   7.718   4.842  0.1426  0.3704  0.0139
    6MOL   C363 3073   4.759   0.083   4.713  0.1962  0.9238  0.6500
    6MOL   H364 3074   4.759   0.628   4.403 -0.9913 -0.0104 -1.4183
    6MOL   H365 3075   4.878   0.557   4.294 -0.0025  1.0313  0.1605
    6MOL   H366 3076   4.882   0.517   4.464  2.2019  2.8413 -1.0006
    6MOL   H367 3077   4.646   0.447   4.266 -1.0604 -1.8371 -0.4589
    6MOL   H368 3078   4.775   0.336   4.316  0.9536  1.3113 -0.5271
    6MOL   H369 3079   4.584   0.488   4.505  1.6094 -0.1834  3.7063
    6MOL   H370 3080   4.699   0.374   4.554  0.9962 -2.9014 -1.5799
    6MOL   H371 3081   4.575   0.206   4.400  3.2608  0.8150  0.3801
    6MOL   H372 3082   4.472   0.331   4.353  0.4292 -0.1590 -0.9098
    6MOL   H373 3083   4.395   0.362   4.599  2.1966  0.7340  1.5600
    6MOL   H374 3084   4.362   0.208   4.526  0.8748  0.1588 -2.4405
    6MOL   H375 3085   4.721   7.693   4.871  0.9367 -0.3889 -3.2243
    6MOL   H376 3086   4.552   7.714   4.928  2.2651 -1.3900  1.6318
    6MOL   H377 3087   4.569   7.653   4.770 -1.4234  0.3848  1.0501
    6MOL   H378 3088   4.764   0.185   4.674  0.4619  0.7418  0.2108
    6MOL   H379 3089   4.841   0.096   4.783  2.3512 -0.5293 -1.5352
    6MOL   C380 3090   5.516   7.577   4.741  0.3936 -0.3985 -0.2840
    6MOL   C381 3091   5.385   7.506   4.777  0.1052  0.9416 -0.0346
    6MOL   C382 3092   5.271   7.613   4.789  0.0545 -0.4686 -0.4593
    6MOL   C383 3093   5.144   7.540   4.830 -0.0495 -0.3566  0.1014
    6MOL   C384 3094   5.031   7.629   4.881 -1.6083 -0.2568  0.3781
    6MOL   O385 3095   4.985   7.716   4.781 -0.1947  0.2732 -0.2850
    6MOL   C386 3096   4.894   7.679   4.690 -0.4924  0.2653 -0.1772
    6MOL   O387 3097   4.861   7.561   4.668  0.1398  0.0690 -0.0991
    6MOL   C388 3098   4.826   7.799   4.614  0.0664  0.0841  0.0492
    6MOL   C389 3099   4.728   7.751   4.519  0.3623  0.2675  0.1021
    6MOL   C390 3100   4.951   0.074   4.547  0.2615  0.5960 -0.0316
    6MOL   H391 3101   5.589   7.515   4.690  0.7443  1.0364 -1.5381
    6MOL   H392 3102   5.486   7.658   4.675  0.9966 -1.3869 -1.7803
    6MOL   H393 3103   5.552   7.618   4.835 -0.2436  0.5015 -0.4204
    6MOL   H394 3104   5.395   7.452   4.871 -0.8950 -0.5945 -0.7727
    6MOL   H395 3105   5.359   7.434   4.698 -0.7859  0.3196  0.8074
    6MOL   H396 3106   5.307   7.685   4.862  3.3256 -1.2697 -1.1792
    6MOL   H397 3107   5.249   7.679   4.705 -0.6370 -0.3782 -0.2009
    6MOL   H398 3108   5.106   7.486   4.743  2.5726  0.6107 -1.7088
    6MOL   H399 3109   5.168   7.459   4.899  2.2780  1.0403  0.9799
    6MOL   H400 3110   5.057   7.689   4.968  0.4358 -1.7517  0.8231
    6MOL   H401 3111   4.954   7.557   4.910  0.8839 -2.9641  0.6056
    6MOL   H402 3112   4.690   0.016   4.454  1.8647  1.3670  0.5184
    6MOL   H403 3113   4.652   7.711   4.586  2.2979 -1.3557  1.3722
    6MOL   H404 3114   4.757   7.666   4.458 -0.2119  0.4087 -0.3763
    6MOL   H405 3115   5.022   0.088   4.628 -0.7880  2.3202  0.6170
    6MOL   H406 3116   4.912   0.172   4.520  0.5791  0.2046 -1.9840
    6MOL   C407 3117   5.224   0.755   4.645  0.7118  0.6920 -0.4145
    6MOL   C408 3118   5.334   0.654   4.685 -0.5686  0.4487  0.7428
    6MOL   C409 3119   5.360   0.546   4.580 -0.6880 -0.2311  0.0642
    6MOL   C410 3120   5.237   0.456   4.557 -0.8541 -0.3677  0.5319
    6MOL   C411 3121   5.248   0.352   4.448  0.5281  0.4801 -0.1284
    6MOL   O412 3122   5.141   0.261   4.452 -0.7537  0.9892 -0.4288
    6MOL   C413 3123   5.169   0.132   4.421 -0.2134  0.4561 -0.4546
    6MOL   O414 3124   5.281   0.083   4.407  0.0335 -0.1700 -0.1338
    6MOL   C415 3125   5.037   0.046   4.415  0.1420  0.2668  0.5563
    6MOL   C416 3126   5.085   7.710   4.425  0.9381  0.2715 -0.1960
    6MOL   C417 3127   4.945   0.092   4.294  0.1879 -0.4981 -0.5643
    6MOL   H418 3128   5.221   0.842   4.711 -1.2991  0.0396  0.3638
    6MOL   H419 3129   5.245   0.807   4.551 -0.9395 -0.2840 -1.3555
    6MOL   H420 3130   5.127   0.711   4.623  0.0987  2.1713 -0.7423
    6MOL   H421 3131   5.312   0.613   4.784  2.4233 -0.1082  1.2028
    6MOL   H422 3132   5.417   0.723   4.695 -0.4280  0.5643 -1.0655
    6MOL   H423 3133   5.398   0.602   4.495  0.6325 -1.8415 -0.4265
    6MOL   H424 3134   5.443   0.486   4.615  1.8090  2.5147 -0.8982
    6MOL   H425 3135   5.143   0.511   4.544 -1.3089 -1.1093  0.6673
    6MOL   H426 3136   5.217   0.399   4.647 -1.8008 -0.5241  0.2264
    6MOL   H427 3137   5.248   0.417   4.360  0.7604  0.3121 -0.2516
    6MOL   H428 3138   5.347   0.306   4.449  0.4350  0.3145  2.1588
    6MOL   H429 3139   5.153   7.676   4.347  0.2816 -2.7481  0.4808
    6MOL   H430 3140   5.002   7.639   4.421 -0.1547  1.5173 -0.0992
    6MOL   H431 3141   5.137   7.690   4.519  0.0347  2.0527  0.7155
    6MOL   H432 3142   4.945   0.201   4.296 -1.7418 -0.3816 -3.6084
    6MOL   H433 3143   4.842   0.060   4.313  0.1646  0.4013  0.8981
    6MOL   C434 3144   4.846   0.776   3.989  0.4116 -0.6283  0.2166
    6MOL   C435 3145   4.712   0.707   3.978  0.1717 -0.1426 -0.1346
    6MOL   C436 3146   4.715   0.557   3.930  0.5197 -0.2662 -0.0335
    6MOL   C437 3147   4.815   0.468   4.005  0.1500 -1.0590  0.0246
    6MOL   C438 3148   4.785   0.321   3.975 -0.2972  0.0708  0.1531
    6MOL   O439 3149   4.866   0.247   4.060  0.3140  0.3230 -0.1807
    6MOL   C440 3150   4.863   0.105   4.057 -0.9226 -0.4878 -0.1624
    6MOL   O441 3151   4.776   0.041   3.993  0.3729 -0.2511  0.1567
    6MOL   C442 3152   4.973   0.038   4.148  0.0814  0.5641  0.0525
    6MOL   C443 3153   4.957   7.698   4.142 -0.6311  0.9365 -0.4361
    6MOL   C444 3154   5.118   0.071   4.096 -0.4282 -0.3545 -0.2020
    6MOL   H445 3155   4.919   0.753   3.912 -1.6864  0.3335 -2.1391
    6MOL   H446 3156   4.832   0.884   3.987 -2.7819 -0.9751  0.9997
    6MOL   H447 3157   4.896   0.751   4.082 -1.7911 -2.4392  0.9479
    6MOL   H448 3158   4.652   0.712   4.069  1.8297  0.1988  0.9586
    6MOL   H449 3159   4.660   0.765   3.902 -0.5370 -1.3128 -0.5610
    6MOL   H450 3160   4.612   0.524   3.942  0.4913  0.3289  1.3932
    6MOL   H451 3161   4.724   0.555   3.821  2.1900 -0.4483  0.1020
    6MOL   H452 3162   4.810   0.484   4.113 -0.5890  2.4696 -0.4736
    6MOL   H453 3163   4.914   0.495   3.968  0.0930 -0.2647  0.4251
    6MOL   H454 3164   4.807   0.302   3.870  4.5561 -2.7256  1.4959
    6MOL   H455 3165   4.678   0.304   3.989 -0.8050 -0.3016 -3.5859
    6MOL   H456 3166   4.872   7.669   4.203 -1.1697 -1.1100 -2.0556
    6MOL   H457 3167   4.931   7.655   4.045 -0.1920  2.1348 -1.0884
    6MOL   H458 3168   5.042   7.643   4.183 -0.8330  0.8004 -0.1995
    6MOL   H459 3169   5.186   0.006   4.151 -1.3744 -1.2361 -0.0544
    6MOL   H460 3170   5.132   0.175   4.126 -0.9330 -0.6048  0.9234
    6MOL   C461 3171   4.595   0.285   3.332 -0.0134 -0.4831  0.2583
    6MOL   C462 3172   4.675   0.182   3.414 -0.3832 -0.2458 -0.0064
    6MOL   C463 3173   4.811   0.237   3.463 -0.4068  0.2792  0.2192
    6MOL   C464 3174   4.853   0.172   3.597  0.1258  0.2577 -0.1697
    6MOL   C465 3175   4.993   0.230   3.651 -0.1763  0.1944 -0.2690
    6MOL   O466 3176   5.040   0.149   3.755 -0.1756  0.6753 -0.0868
    6MOL   C467 3177   5.106   0.196   3.859  0.0981 -0.3292 -0.1165
    6MOL   O468 3178   5.127   0.314   3.880 -0.1645  0.5104  0.6383
    6MOL   C469 3179   5.160   0.073   3.946  0.1228 -0.3686 -0.0442
    6MOL   C470 3180   5.125   7.746   3.886  0.5301  0.5195  0.1494
    6MOL   C471 3181   5.318   0.090   3.953 -0.1743  0.1885 -0.2866
    6MOL   H472 3182   4.578   0.374   3.392  2.2229  2.0572 -2.6627
    6MOL   H473 3183   4.503   0.247   3.288 -0.7381  0.5848  0.8650
    6MOL   H474 3184   4.662   0.320   3.253  1.5936 -1.4301  1.1534
    6MOL   H475 3185   4.702   0.090   3.363  0.0245  1.2542 -2.6174
    6MOL   H476 3186   4.608   0.164   3.498 -1.6096  0.4593 -0.8038
    6MOL   H477 3187   4.798   0.344   3.478 -0.1269  0.6598 -2.0634
    6MOL   H478 3188   4.876   0.223   3.377 -0.1973 -1.1840  0.6093
    6MOL   H479 3189   4.846   0.064   3.584 -0.1498  0.2976 -0.3642
    6MOL   H480 3190   4.781   0.189   3.677  0.7550 -0.4520  0.5428
    6MOL   H481 3191   5.058   0.239   3.564  1.2513  1.1070  0.8825
    6MOL   H482 3192   4.964   0.329   3.686 -2.7338  0.1145 -1.9705
    6MOL   H483 3193   5.168   7.717   3.790  0.1123 -0.3469  0.2187
    6MOL   H484 3194   5.017   7.743   3.870  0.4793 -1.2655  0.6789
    6MOL   H485 3195   5.139   7.659   3.951 -0.0193 -0.8893 -1.5798
    6MOL   H486 3196   5.353   7.810   3.996  0.0542  0.2949 -0.2405
    6MOL   H487 3197   5.330   0.157   4.038  0.6393 -0.7955  0.3897
    6MOL   C488 3198   5.198   0.722   4.266  0.0181 -0.2308 -0.1586
    6MOL   C489 3199   5.323   0.689   4.187 -0.7806  0.2487  0.0463
    6MOL   C490 3200   5.293   0.609   4.061  0.3265 -0.3247 -0.0039
    6MOL   C491 3201   5.420   0.585   3.978 -0.0275 -0.5967  0.3088
    6MOL   C492 3202   5.410   0.491   3.856  0.0645 -0.5798  0.1602
    6MOL   O493 3203   5.407   0.355   3.887 -0.4518  0.1023 -0.3836
    6MOL   C494 3204   5.410   0.263   3.789  0.7732 -0.7249 -0.5800
    6MOL   O495 3205   5.417   0.290   3.670 -0.3946 -0.0187  0.2486
    6MOL   C496 3206   5.421   0.115   3.837  0.7554 -0.6143 -0.0998
    6MOL   C497 3207   5.368   0.022   3.724 -0.6656  0.1666  0.6310
    6MOL   C498 3208   5.573   0.071   3.864  0.3472 -0.2003 -0.3208
    6MOL   H499 3209   5.148   0.636   4.309 -1.0274 -0.7424 -2.3150
    6MOL   H500 3210   5.230   0.775   4.356 -2.0197  0.5609  0.1225
    6MOL   H501 3211   5.128   0.780   4.205  1.8772  2.1995 -0.0761
    6MOL   H502 3212   5.390   0.631   4.250  1.4621  2.5731 -0.1249
    6MOL   H503 3213   5.382   0.779   4.173 -0.9104  0.8354  2.9504
    6MOL   H504 3214   5.257   0.510   4.086  0.5297 -0.8447 -1.7519
    6MOL   H505 3215   5.219   0.654   3.994  0.3757 -2.0721 -1.2568
    6MOL   H506 3216   5.502   0.554   4.043  0.7109  2.4313  0.8702
    6MOL   H507 3217   5.467   0.677   3.944  0.8715 -1.3251 -0.4538
    6MOL   H508 3218   5.323   0.520   3.797 -0.7947 -1.0259  1.1663
    6MOL   H509 3219   5.494   0.511   3.790 -1.1199 -0.0936 -1.2284
    6MOL   H510 3220   5.269   0.056   3.694 -0.5562  1.8088  2.0718
    6MOL   H511 3221   5.377   7.728   3.734  0.0341  0.3711  2.3191
    6MOL   H512 3222   5.426   0.040   3.633 -1.3468  0.7783  0.3124
    6MOL   H513 3223   5.617   0.072   3.764  3.0893  0.5632  0.8614
    6MOL   H514 3224   5.573   7.778   3.886  3.0022  0.0114  0.8024
    6MOL   C515 3225   5.925   7.790   3.478  0.3249  0.2349 -0.4458
    6MOL   C516 3226   5.830   0.081   3.535  0.6169  0.3599 -0.6734
    6MOL   C517 3227   5.892   0.220   3.523 -0.4957 -0.3076  0.2542
    6MOL   C518 3228   5.801   0.339   3.552 -0.2715  0.1739  0.1514
    6MOL   C519 3229   5.815   0.375   3.698  0.6489 -0.1423 -0.3747
    6MOL   O520 3230   5.756   0.271   3.770 -0.6659 -0.2467 -0.0621
    6MOL   C521 3231   5.722   0.279   3.902  0.1280 -0.0069  0.3275
    6MOL   O522 3232   5.749   0.373   3.975  0.6859  0.4449  0.0275
    6MOL   C523 3233   5.671   0.144   3.956  0.1532 -0.2804  0.6177
    6MOL   C524 3234   5.799   0.061   3.974 -0.4231 -0.3498  0.1609
    6MOL   C525 3235   5.608   0.162   4.097  0.4063 -0.0304 -0.2607
    6MOL   H526 3236   6.015   7.778   3.538  0.1196  2.5184  0.3985
    6MOL   H527 3237   5.861   7.703   3.486  0.0143  0.6920  3.0517
    6MOL   H528 3238   5.952   7.800   3.373  1.4070  3.6513  0.0882
    6MOL   H529 3239   5.749   0.066   3.464  1.6721 -0.1536 -1.7886
    6MOL   H530 3240   5.795   0.062   3.636 -0.7966  1.0380 -1.0304
    6MOL   H531 3241   5.985   0.225   3.580 -2.3214  1.6322  3.1911
    6MOL   H532 3242   5.930   0.242   3.423  0.6176  2.7419  1.2862
    6MOL   H533 3243   5.698   0.317   3.526 -0.4334  2.5381 -1.3575
    6MOL   H534 3244   5.832   0.428   3.497 -1.0723 -1.1706 -2.5391
    6MOL   H535 3245   5.918   0.400   3.724  0.4801  0.1355  0.0400
    6MOL   H536 3246   5.759   0.468   3.704 -1.1228 -1.1605 -0.9301
    6MOL   H537 3247   5.780   7.772   4.005  0.0159 -0.8528 -1.1878
    6MOL   H538 3248   5.863   0.105   4.050  1.3279 -0.4533 -1.2349
    6MOL   H539 3249   5.862   0.068   3.886 -1.3725  2.1080 -0.3743
    6MOL   H540 3250   5.522   0.228   4.104  0.3054 -0.4404  4.2740
    6MOL   H541 3251   5.685   0.201   4.164  0.9552  0.3237 -1.0961
    6MOL   H542 3252   5.575   0.066   4.135 -1.2622 -0.2557 -2.2095
    7MOL     C1 3253   3.771   2.379   0.563  0.0316  0.0570  0.1120
    7MOL     C2 3254   3.622   2.390   0.565 -0.1161 -0.3290  0.4721
    7MOL     C3 3255   3.556   2.438   0.432  0.1478 -0.4254 -0.4073
    7MOL     C4 3256   3.402   2.427   0.433 -0.9658  0.6516 -0.0226
    7MOL     C5 3257   3.334   2.477   0.302 -0.4727 -0.2910 -0.2423
    7MOL     O6 3258   3.366   2.605   0.289  0.1019  0.4541 -0.3776
    7MOL     C7 3259   3.296   2.682   0.204 -0.0721 -0.0452 -0.4121
    7MOL     O8 3260   3.208   2.645   0.132  0.2022  0.5160  0.4381
    7MOL     C9 3261   3.321   2.827   0.216 -0.0816  0.5289  0.1768
    7MOL    C10 3262   3.465   2.854   0.176  0.4707 -0.0116 -0.0028
    7MOL    C11 3263   3.273   2.887   0.355 -0.4801 -0.7576 -0.2205
    7MOL    H12 3264   3.817   2.332   0.475 -0.4547  0.3847 -0.3177
    7MOL    H13 3265   3.807   2.330   0.653  0.2114  1.9984  1.1144
    7MOL    H14 3266   3.813   2.479   0.563  1.5486 -0.5609 -0.3113
    7MOL    H15 3267   3.571   2.297   0.590 -1.0517  0.3035  0.9485
    7MOL    H16 3268   3.597   2.458   0.647 -2.1050 -0.8363  0.3090
    7MOL    H17 3269   3.597   2.539   0.431 -2.4871  0.6991  0.6912
    7MOL    H18 3270   3.595   2.389   0.343  1.9739 -0.5955  0.4463
    7MOL    H19 3271   3.363   2.477   0.522 -0.1745  1.4663 -0.1261
    7MOL    H20 3272   3.366   2.326   0.449 -0.1132  0.6190  1.7842
    7MOL    H21 3273   3.360   2.420   0.213 -2.4350  0.2039 -1.1502
    7MOL    H22 3274   3.228   2.465   0.323 -0.4704  0.1623  0.0497
    7MOL    H23 3275   3.486   2.837   0.070  1.3626  1.3284 -0.0537
    7MOL    H24 3276   3.535   2.785   0.223 -0.9702 -2.9017 -1.9579
    7MOL    H25 3277   3.508   2.952   0.196  1.6125 -0.5949  0.4743
    7MOL    H26 3278   3.310   2.987   0.373 -0.5741 -0.6344 -0.7138
    7MOL    H27 3279   3.323   2.832   0.435  0.6276  0.1257 -0.2961
    7MOL    H28 3280   3.275   2.878   0.132 -0.3956 -1.6518 -1.0131
    7MOL    C29 3281   2.428   3.080   0.620 -0.8889 -0.2274  0.1043
    7MOL    C30 3282   2.551   3.082   0.703  0.4031  0.5306 -0.1177
    7MOL    C31 3283   2.682   3.075   0.624 -0.1334 -0.1437  0.0317
    7MOL    C32 3284   2.804   3.058   0.719  0.2787  0.4811 -0.7667
    7MOL    C33 3285   2.940   3.098   0.662  0.2330  0.4091  0.1978
    7MOL    O34 3286   2.967   3.005   0.558 -0.0774  0.1181  0.3273
    7MOL    C35 3287   3.096   2.985   0.514 -0.6736 -0.4733 -0.6157
    7MOL    O36 3288   3.192   3.027   0.576 -0.0899 -0.3141 -0.6156
    7MOL    C37 3289   3.118   2.882   0.401 -0.2011 -0.0554  0.4727
    7MOL    C38 3290   3.081   2.747   0.463 -0.2356 -0.5262  0.6098
    7MOL    C39 3291   3.030   2.914   0.279  0.3498 -0.4541  0.0243
    7MOL    H40 3292   2.342   3.045   0.677 -2.7806  0.6572 -2.1100
    7MOL    H41 3293   2.396   3.178   0.585  1.8870 -0.2111 -2.6293
    7MOL    H42 3294   2.447   3.010   0.538  2.5445  1.6520 -0.8014
    7MOL    H43 3295   2.547   2.980   0.742  0.2702  0.6817  0.2661
    7MOL    H44 3296   2.556   3.149   0.789  0.8504 -0.5660  0.7206
    7MOL    H45 3297   2.698   3.166   0.567 -0.1742  1.5454  2.6502
    7MOL    H46 3298   2.674   2.993   0.553 -2.2273  0.8050 -0.8684
    7MOL    H47 3299   2.805   3.100   0.820  0.9098 -2.7873  0.6214
    7MOL    H48 3300   2.810   2.952   0.741 -0.1305  0.7828  0.8779
    7MOL    H49 3301   3.020   3.096   0.737  0.4854 -1.6154 -0.0897
    7MOL    H50 3302   2.932   3.196   0.616 -1.0856  1.0016  1.6538
    7MOL    H51 3303   3.109   2.662   0.401 -1.7816 -0.8359  0.3230
    7MOL    H52 3304   2.975   2.739   0.486 -1.1602  2.0972 -2.3837
    7MOL    H53 3305   3.114   2.731   0.566 -1.7035  0.6713  1.2975
    7MOL    H54 3306   2.929   2.876   0.290 -0.1710  0.9758  0.3000
    7MOL    H55 3307   3.053   2.844   0.199  1.0768 -0.6297  0.3794
    7MOL    C56 3308   2.470   2.892   7.673  0.0695 -0.3172  0.1540
    7MOL    C57 3309   2.492   2.946   7.813 -0.0746 -1.3485  0.3912
    7MOL    C58 3310   2.580   3.080   7.808 -0.1900  0.4667 -0.5551
    7MOL    C59 3311   2.587   3.172   0.117 -0.2360  0.5614 -0.0078
    7MOL    C60 3312   2.622   3.087   0.241 -0.4383  0.4127 -0.2329
    7MOL    O61 3313   2.757   3.038   0.234 -0.1611 -0.2488 -0.5177
    7MOL    C62 3314   2.869   3.112   0.275 -0.0559  0.2945  0.1322
    7MOL    O63 3315   2.863   3.207   0.355  0.7117 -0.3695  0.4057
    7MOL    C64 3316   3.000   3.057   0.217 -0.1551 -0.4709 -1.0976
    7MOL    C65 3317   2.974   3.042   0.063 -0.8880 -0.1904  0.4609
    7MOL    C66 3318   3.118   3.158   0.230  0.0028 -0.4394 -0.0304
    7MOL    H67 3319   2.421   2.795   7.668  1.6498 -1.2503  1.9480
    7MOL    H68 3320   2.552   2.897   7.601 -0.5533  0.8580 -0.4867
    7MOL    H69 3321   2.394   2.955   7.627 -0.1636 -1.4452 -1.0182
    7MOL    H70 3322   2.402   2.974   0.053  0.6725  1.2618  0.3645
    7MOL    H71 3323   2.529   2.865   0.062  0.8321 -0.9455  0.3876
    7MOL    H72 3324   2.685   3.060   7.788  0.0615  1.3006 -0.0784
    7MOL    H73 3325   2.537   3.147   7.733 -1.0122  2.1349  1.3680
    7MOL    H74 3326   2.490   3.220   0.133 -0.1703  1.1764 -1.4028
    7MOL    H75 3327   2.646   3.261   0.096 -0.3601  0.8772  0.9577
    7MOL    H76 3328   2.607   3.138   0.336  3.8527 -1.4056  1.5729
    7MOL    H77 3329   2.564   2.997   0.262 -0.8719  1.1659  1.9099
    7MOL    H78 3330   3.063   3.008   0.009 -0.2819  0.6487  0.9272
    7MOL    H79 3331   2.941   3.133   0.014  0.7402  0.8147  1.1990
    7MOL    H80 3332   2.908   2.956   0.048 -0.3760 -0.5085  0.0083
    7MOL    H81 3333   3.212   3.109   0.206  0.1486  0.5420 -1.5151
    7MOL    H82 3334   3.129   3.176   0.337  0.8166  0.7742 -0.2996
    7MOL    C83 3335   3.904   3.240   7.616  0.0544  0.0883  0.1407
    7MOL    C84 3336   3.790   3.227   7.720 -0.7467 -0.3029 -0.6235
    7MOL    C85 3337   3.647   3.221   7.664 -0.2688  0.4434  0.4557
    7MOL    C86 3338   3.546   3.222   7.776  0.3234 -0.2502 -0.2100
    7MOL    C87 3339   3.399   3.221   7.719 -0.7588  0.5346 -0.0854
    7MOL    O88 3340   3.312   3.229   0.023 -0.2916  0.0853  0.3917
    7MOL    C89 3341   3.179   3.273   0.015 -0.5827 -0.0729  0.0845
    7MOL    O90 3342   3.116   3.290   7.732 -0.0337  0.3561  0.2307
    7MOL    C91 3343   3.118   3.296   0.148 -0.1751  0.1901 -0.2036
    7MOL    C92 3344   2.987   3.375   0.137  0.3098  0.2695  0.8453
    7MOL    C93 3345   3.217   3.383   0.238  0.9746 -0.9283 -0.0506
    7MOL    H94 3346   4.005   3.247   7.655 -0.5068  0.1764  1.5767
    7MOL    H95 3347   3.913   3.161   7.541 -1.9184 -0.8379  0.8415
    7MOL    H96 3348   3.891   3.332   7.558  1.1314  1.7080  2.4244
    7MOL    H97 3349   3.806   3.311   7.788 -2.7347  0.2154 -0.7532
    7MOL    H98 3350   3.811   3.143   7.787  1.1320 -0.8497 -1.8810
    7MOL    H99 3351   3.643   3.130   7.605  0.3520  0.5427  0.2597
    7MOL   H100 3352   3.632   3.307   7.599 -0.1501 -0.3684 -0.6484
    7MOL   H101 3353   3.567   3.315   0.015 -1.5526  0.6051 -0.8934
    7MOL   H102 3354   3.571   3.136   0.024 -0.6722 -0.8281 -0.5965
    7MOL   H103 3355   3.386   3.135   7.653  3.1330 -0.2437  0.0488
    7MOL   H104 3356   3.384   3.309   7.658  0.2803  1.0636  0.4095
    7MOL   H105 3357   2.942   3.388   0.236  0.4347  0.6583  0.8549
    7MOL   H106 3358   2.915   3.324   0.074 -0.4820 -1.0482  2.7726
    7MOL   H107 3359   3.008   3.473   0.094  0.9966 -0.2796 -0.0815
    7MOL   H108 3360   3.174   3.381   0.337 -0.8007  3.4224 -0.6512
    7MOL   H109 3361   3.312   3.331   0.254  0.6779 -1.2327  0.7490
    7MOL   C110 3362   2.611   3.503   0.786 -0.3306  0.3345  0.1703
    7MOL   C111 3363   2.728   3.445   0.700  0.4793 -0.2288 -0.2380
    7MOL   C112 3364   2.769   3.553   0.597  0.1697 -0.2991  0.2384
    7MOL   C113 3365   2.918   3.543   0.547 -0.2490  0.3250  0.3928
    7MOL   C114 3366   2.962   3.646   0.438  0.9496 -0.3040 -0.1156
    7MOL   O115 3367   3.092   3.618   0.392 -0.8761  0.3207 -0.2154
    7MOL   C116 3368   3.128   3.635   0.262 -0.2850 -0.2937  0.0580
    7MOL   O117 3369   3.063   3.708   0.181  0.6974 -0.3248  0.0233
    7MOL   C118 3370   3.253   3.547   0.224 -0.6453  0.8264 -0.3554
    7MOL   C119 3371   3.282   3.583   0.075  0.3324  0.3597 -0.3698
    7MOL   C120 3372   3.376   3.572   0.321  0.0327  0.3809 -1.4664
    7MOL   H121 3373   2.630   3.603   0.825  1.2745 -0.3469  1.2082
    7MOL   H122 3374   2.523   3.525   0.726 -0.8075 -0.0735  0.7079
    7MOL   H123 3375   2.583   3.443   0.873  0.2132  2.1382  1.6127
    7MOL   H124 3376   2.809   3.439   0.772  0.1246 -0.7049  0.1303
    7MOL   H125 3377   2.697   3.349   0.658 -0.4092 -0.1472  0.2181
    7MOL   H126 3378   2.705   3.539   0.509 -1.3817  2.8034  0.8044
    7MOL   H127 3379   2.754   3.654   0.637  0.2243 -0.5343  0.8560
    7MOL   H128 3380   2.934   3.439   0.517 -0.6444  0.4065 -0.1011
    7MOL   H129 3381   2.985   3.556   0.632 -0.4612  0.5787  0.5209
    7MOL   H130 3382   2.883   3.630   0.364  2.3788  1.4680 -2.0778
    7MOL   H131 3383   2.958   3.746   0.481  1.1714 -0.8876  1.2815
    7MOL   H132 3384   3.195   3.557   0.013  0.9335 -0.6340 -0.8043
    7MOL   H133 3385   3.294   3.691   0.063  2.2168  0.3256  1.0277
    7MOL   H134 3386   3.360   3.529   0.022 -0.6946 -0.0407 -1.4980
    7MOL   H135 3387   3.348   3.530   0.418  0.5254  1.7599 -0.7128
    7MOL   H136 3388   3.447   3.493   0.298  0.4955  0.4148 -0.1597
    7MOL   C137 3389   3.779   3.596   7.352  0.4212 -0.3594  0.3535
    7MOL   C138 3390   3.699   3.662   7.477 -0.1477 -0.5314 -0.2148
    7MOL   C139 3391   3.760   3.617   7.608 -0.1174  0.2942 -0.0451
    7MOL   C140 3392   3.665   3.641   7.726 -0.3852 -0.7360  0.0095
    7MOL   C141 3393   3.712   3.606   0.057 -0.7472  0.2860  0.2208
    7MOL   O142 3394   3.608   3.597   0.158 -0.2299 -0.3508 -0.0243
    7MOL   C143 3395   3.548   3.718   0.207 -0.5234  0.3450 -0.3018
    7MOL   O144 3396   3.570   3.830   0.159 -0.3452  0.1046  0.4349
    7MOL   C145 3397   3.460   3.707   0.336  0.0074  0.1871 -1.0939
    7MOL   C146 3398   3.372   3.837   0.346  0.1142 -0.4057 -0.4324
    7MOL   C147 3399   3.557   3.681   0.460  0.0535  0.2439  0.8494
    7MOL   H148 3400   3.726   3.636   7.266 -2.1004 -2.9704  0.6179
    7MOL   H149 3401   3.775   3.487   7.355 -0.4412 -0.3258  0.5531
    7MOL   H150 3402   3.883   3.628   7.351  0.0456  0.9149  0.9851
    7MOL   H151 3403   3.600   3.618   7.486 -0.3107  0.1752  1.7609
    7MOL   H152 3404   3.696   3.770   7.463 -0.7996 -0.4209  0.7066
    7MOL   H153 3405   3.784   3.511   7.603 -0.4046  0.2608 -0.7316
    7MOL   H154 3406   3.859   3.662   7.619  0.0423  0.2215 -1.1373
    7MOL   H155 3407   3.642   3.747   7.726 -2.1158 -1.0940  0.8581
    7MOL   H156 3408   3.567   3.600   7.703 -0.2965 -0.5784 -0.6622
    7MOL   H157 3409   3.781   3.679   0.098 -1.9294  0.7925  1.3453
    7MOL   H158 3410   3.747   3.503   0.056 -2.7075 -0.4492 -3.6282
    7MOL   H159 3411   3.335   3.865   0.248 -0.0538 -0.2334 -0.3180
    7MOL   H160 3412   3.417   3.933   0.371 -2.3649  0.5959  0.3320
    7MOL   H161 3413   3.278   3.829   0.400 -0.5674  1.0134 -1.4041
    7MOL   H162 3414   3.523   3.594   0.516  0.7836 -0.4458  0.2413
    7MOL   H163 3415   3.645   3.634   0.417  1.6297  1.6058  2.5038
    7MOL   C164 3416   3.428   4.438   1.077 -0.6899  0.4203  0.3940
    7MOL   C165 3417   3.485   4.377   0.955  0.7076  0.1506  0.5576
    7MOL   C166 3418   3.436   4.224   0.940  0.1608  0.3177  0.0831
    7MOL   C167 3419   3.496   4.154   0.817  0.2787 -0.8248 -0.1139
    7MOL   C168 3420   3.421   4.026   0.772  0.0154  0.4467 -0.3401
    7MOL   O169 3421   3.513   3.963   0.686  0.0543 -0.1813 -0.5458
    7MOL   C170 3422   3.490   3.847   0.638 -0.9787 -0.8875  0.3644
    7MOL   O171 3423   3.392   3.773   0.655 -0.1405 -0.3281  0.6289
    7MOL   C172 3424   3.606   3.788   0.566 -0.2712 -0.0488  0.1699
    7MOL   C173 3425   3.699   3.887   0.491 -0.2501  0.4738  0.0479
    7MOL   C174 3426   3.694   3.709   0.671  0.1336 -0.2311  0.2379
    7MOL   H175 3427   3.320   4.429   1.073 -0.6026 -0.7459  0.5817
    7MOL   H176 3428   3.465   4.540   1.066 -0.0384  0.0540 -1.0871
    7MOL   H177 3429   3.475   4.381   1.157  0.4705 -0.7656 -1.0870
    7MOL   H178 3430   3.593   4.383   0.968  1.3035 -2.5550 -2.4296
    7MOL   H179 3431   3.458   4.438   0.869  2.9006 -1.6800 -1.5304
    7MOL   H180 3432   3.448   4.165   1.031 -3.3375  0.7568  0.8815
    7MOL   H181 3433   3.328   4.227   0.925  0.3298  0.2628 -1.1784
    7MOL   H182 3434   3.594   4.129   0.857  0.9526 -0.7039 -1.6738
    7MOL   H183 3435   3.515   4.223   0.735  1.8268 -1.0190  0.0712
    7MOL   H184 3436   3.321   4.037   0.732 -0.6709 -2.8118  0.3225
    7MOL   H185 3437   3.404   3.964   0.860 -0.2185 -1.5852 -1.7765
    7MOL   H186 3438   3.716   3.977   0.550  1.7956  1.1226 -1.4506
    7MOL   H187 3439   3.642   3.930   0.409  0.7502  2.4499  0.3418
    7MOL   H188 3440   3.791   3.846   0.448 -0.3309 -0.0407  0.3549
    7MOL   H189 3441   3.633   3.624   0.702 -0.6167  0.4767  0.7076
    7MOL   H190 3442   3.766   3.661   0.605  0.9836  0.5478  0.5998
    7MOL   C191 3443   3.478   4.221   1.462 -0.1229  0.1191  0.4548
    7MOL   C192 3444   3.593   4.176   1.371  0.1934 -0.4489  0.1757
    7MOL   C193 3445   3.582   4.033   1.333 -0.0349 -0.0870 -0.3259
    7MOL   C194 3446   3.686   3.994   1.230  0.0441  0.3264  0.2783
    7MOL   C195 3447   3.634   3.877   1.140 -0.0042 -0.6736  0.3726
    7MOL   O196 3448   3.718   3.846   1.032  0.5800  0.8365 -0.1065
    7MOL   C197 3449   3.664   3.779   0.925 -0.4200 -0.4857 -0.0167
    7MOL   O198 3450   3.550   3.738   0.916 -0.2474  0.4329 -0.5349
    7MOL   C199 3451   3.761   3.763   0.806  0.0510 -0.4384  0.2765
    7MOL   C200 3452   3.831   3.905   0.785 -0.2879  0.0016  0.0330
    7MOL   C201 3453   3.883   3.671   0.833 -0.0830 -0.4823 -0.3909
    7MOL   H202 3454   3.393   4.223   1.395  0.7599 -1.5254 -0.7433
    7MOL   H203 3455   3.445   4.150   1.538 -1.8603  0.9131  0.4753
    7MOL   H204 3456   3.488   4.328   1.485 -0.5442  0.8584 -2.6005
    7MOL   H205 3457   3.687   4.179   1.427 -0.2667 -2.0364  1.0591
    7MOL   H206 3458   3.592   4.244   1.286  1.5027 -2.2441 -1.3242
    7MOL   H207 3459   3.484   4.014   1.289  0.9768 -1.5658 -2.0342
    7MOL   H208 3460   3.587   3.967   1.420 -2.9498  0.0533  0.0086
    7MOL   H209 3461   3.710   4.080   1.167 -0.4968  1.4534  1.5874
    7MOL   H210 3462   3.776   3.966   1.284 -0.1253  0.4549  0.6313
    7MOL   H211 3463   3.615   3.783   1.192 -0.6062  0.1313  1.6640
    7MOL   H212 3464   3.536   3.907   1.101  0.1680  0.6843  0.9468
    7MOL   H213 3465   3.760   3.987   0.800 -0.2036  0.2415 -0.8822
    7MOL   H214 3466   3.871   3.913   0.684 -1.9764  0.2995 -0.6211
    7MOL   H215 3467   3.909   3.930   0.858  0.4125 -2.2954  0.1099
    7MOL   H216 3468   3.945   3.725   0.905 -0.1643  0.3150 -0.9119
    7MOL   H217 3469   3.943   3.668   0.742  0.9081 -2.7189  0.3017
    7MOL   C218 3470   3.121   3.364   0.769  0.1936 -0.1345  0.0574
    7MOL   C219 3471   3.211   3.475   0.815  0.4116  0.2166 -0.0072
    7MOL   C220 3472   3.352   3.456   0.764  0.6918 -0.1213  0.5795
    7MOL   C221 3473   3.424   3.335   0.831 -0.4340 -0.4645  0.6044
    7MOL   C222 3474   3.571   3.333   0.788 -0.0968  0.4334  0.1418
    7MOL   O223 3475   3.654   3.413   0.854  0.4440  0.1616  0.2548
    7MOL   C224 3476   3.769   3.435   0.800 -0.2864  0.5084  0.2507
    7MOL   O225 3477   3.797   3.403   0.682  0.4710  0.2047 -0.5294
    7MOL   C226 3478   3.866   3.523   0.886 -0.0844  0.1831  0.5405
    7MOL   C227 3479   3.819   3.516   1.028 -0.1115 -0.4059 -0.3695
    7MOL   C228 3480   4.018   3.467   0.882  0.1719 -0.3326 -0.2967
    7MOL   H229 3481   3.120   3.365   0.660 -2.2325 -1.2183  0.0421
    7MOL   H230 3482   3.157   3.267   0.803  3.2346  0.6550 -0.7674
    7MOL   H231 3483   3.023   3.386   0.810  1.2134  0.7809  2.0394
    7MOL   H232 3484   3.215   3.475   0.923 -2.0684  0.8701  0.1079
    7MOL   H233 3485   3.163   3.568   0.785 -0.1775  0.1612  0.7685
    7MOL   H234 3486   3.395   3.556   0.772  0.5325  0.0927 -1.0985
    7MOL   H235 3487   3.344   3.454   0.655 -0.0724 -0.7528  0.6454
    7MOL   H236 3488   3.414   3.326   0.939  2.5875  0.2422  0.9884
    7MOL   H237 3489   3.387   3.241   0.791 -0.6437  0.6379 -1.8797
    7MOL   H238 3490   3.582   3.339   0.680 -1.1359  1.8611  0.1071
    7MOL   H239 3491   3.606   3.232   0.812  1.5084  1.0262  0.3742
    7MOL   H240 3492   3.769   3.606   1.063  0.1261 -0.1234 -0.7534
    7MOL   H241 3493   3.908   3.507   1.089 -0.4336 -2.6893 -0.1621
    7MOL   H242 3494   3.762   3.428   1.058  0.6069 -0.7121  0.0921
    7MOL   H243 3495   4.065   3.527   0.960 -1.5796  0.9650 -0.2047
    7MOL   H244 3496   4.066   3.503   0.791 -1.5384  0.9494 -0.7273
    7MOL   C245 3497   4.022   3.435   0.161 -0.3187  0.1250  0.1407
    7MOL   C246 3498   4.034   3.286   0.173 -0.6896 -0.1572  0.8233
    7MOL   C247 3499   4.131   3.243   0.293  1.0157 -0.4103 -0.0430
    7MOL   C248 3500   4.073   3.278   0.429 -0.1277 -0.5040 -0.5020
    7MOL   C249 3501   4.152   3.210   0.551 -0.4962 -0.1731  0.3677
    7MOL   O250 3502   4.139   3.292   0.667  0.5470 -0.5971 -0.4497
    7MOL   C251 3503   4.046   3.253   0.764 -0.1249  1.0145 -0.1127
    7MOL   O252 3504   3.971   3.153   0.740 -0.1637 -0.0993 -0.4482
    7MOL   C253 3505   4.045   3.319   0.906  0.9424  0.3233 -0.2536
    7MOL   C254 3506   3.940   3.248   1.001 -0.4599 -0.2836 -0.3196
    7MOL   C255 3507   4.181   3.322   0.980 -0.0139  0.2683  0.0224
    7MOL   H256 3508   3.958   3.444   0.074  1.5691  0.5077 -1.2475
    7MOL   H257 3509   3.979   3.473   0.253 -3.0951 -0.5849 -0.8131
    7MOL   H258 3510   4.115   3.487   0.138 -0.5781  0.3478 -0.3928
    7MOL   H259 3511   3.936   3.239   0.186 -0.6949 -0.5943 -0.6708
    7MOL   H260 3512   4.080   3.251   0.080 -0.6679  1.6907  0.1252
    7MOL   H261 3513   4.228   3.292   0.295  1.1252 -0.6661  1.1866
    7MOL   H262 3514   4.154   3.138   0.276  1.9897 -0.1430 -0.3724
    7MOL   H263 3515   4.073   3.384   0.452 -0.4229  0.1610 -3.3425
    7MOL   H264 3516   3.969   3.246   0.433 -0.0659 -0.4977  1.7127
    7MOL   H265 3517   4.118   3.106   0.561 -1.4424 -0.1231 -1.8817
    7MOL   H266 3518   4.259   3.202   0.534 -0.3756 -0.4832  1.2597
    7MOL   H267 3519   3.950   3.292   1.101 -0.0624  0.5305 -0.7121
    7MOL   H268 3520   3.835   3.249   0.971 -0.1920 -0.2667 -1.2602
    7MOL   H269 3521   3.970   3.144   1.010  0.6334 -0.0007 -0.6080
    7MOL   H270 3522   4.249   3.384   0.921  0.8155  0.3664  1.0606
    7MOL   H271 3523   4.171   3.368   1.078  1.0118  0.0346  0.2531
    7MOL   C272 3524   4.428   2.878   1.650 -0.1292 -0.2628  0.4178
    7MOL   C273 3525   4.482   2.973   1.546  0.6949  0.6115  0.3738
    7MOL   C274 3526   4.430   2.929   1.406  0.0984  0.2863 -0.3830
    7MOL   C275 3527   4.274   2.940   1.394  0.0870 -0.0678  0.1006
    7MOL   C276 3528   4.217   2.906   1.258  0.0821 -0.6992  0.8256
    7MOL   O277 3529   4.255   2.991   1.154  0.4196  0.4388  0.2646
    7MOL   C278 3530   4.204   3.116   1.141 -0.0692 -0.5096  0.0878
    7MOL   O279 3531   4.139   3.174   1.226  0.3595  0.0647 -0.0730
    7MOL   C280 3532   4.266   3.192   1.021 -0.5186  0.9459 -0.2601
    7MOL   C281 3533   4.295   3.097   0.905  0.3239  0.0276 -0.1479
    7MOL   C282 3534   4.413   3.235   1.060 -0.8585  0.3139  0.1571
    7MOL   H283 3535   4.324   2.907   1.666  0.5150  1.4682  1.6390
    7MOL   H284 3536   4.436   2.772   1.628  1.8785 -0.2135  0.8433
    7MOL   H285 3537   4.471   2.887   1.750 -0.1800  2.5235  0.2377
    7MOL   H286 3538   4.446   3.070   1.580 -1.0266  0.1492 -0.1028
    7MOL   H287 3539   4.591   2.962   1.552  0.6047 -0.2492  0.4660
    7MOL   H288 3540   4.471   2.980   1.319  3.0368 -0.6796  0.3959
    7MOL   H289 3541   4.468   2.829   1.386 -0.4310  0.4541 -2.3200
    7MOL   H290 3542   4.236   2.864   1.463 -0.0464  1.8772  2.2105
    7MOL   H291 3543   4.246   3.041   1.423  0.8839 -0.3868  2.0345
    7MOL   H292 3544   4.109   2.920   1.264  0.3001  2.3056 -1.2942
    7MOL   H293 3545   4.260   2.811   1.225  2.3731  0.1490  1.2963
    7MOL   H294 3546   4.336   3.150   0.819  2.1425  0.0072  0.6772
    7MOL   H295 3547   4.374   3.026   0.930  2.0950  1.9646 -0.0608
    7MOL   H296 3548   4.200   3.052   0.876  1.5019 -0.8381 -2.9069
    7MOL   H297 3549   4.460   3.150   1.109 -2.1682 -0.8929 -0.6408
    7MOL   H298 3550   4.478   3.235   0.973 -1.0080 -0.5135  0.0349
    7MOL   C299 3551   4.193   3.927   0.688 -0.6162  0.4658 -0.2498
    7MOL   C300 3552   4.242   3.810   0.772 -0.6910  0.1856  0.3605
    7MOL   C301 3553   4.336   3.716   0.691 -0.3364 -0.4354  0.8886
    7MOL   C302 3554   4.372   3.587   0.757 -0.3317 -0.8566 -0.2398
    7MOL   C303 3555   4.469   3.606   0.874 -0.0293 -0.7997 -0.1451
    7MOL   O304 3556   4.469   3.488   0.956  0.0018 -0.4796  0.2061
    7MOL   C305 3557   4.430   3.495   1.081  0.0185  0.0383  0.2433
    7MOL   O306 3558   4.391   3.600   1.136  0.4190  0.8928  0.0079
    7MOL   C307 3559   4.453   3.359   1.149 -0.0006 -0.7534 -0.1352
    7MOL   C308 3560   4.377   3.364   1.281  0.2671  0.3335 -0.8108
    7MOL   C309 3561   4.608   3.341   1.180 -0.2417  0.2833 -0.0522
    7MOL   H310 3562   4.126   3.897   0.607  0.5342 -1.9255 -0.3477
    7MOL   H311 3563   4.274   3.982   0.640  0.4232 -1.9957 -1.3708
    7MOL   H312 3564   4.132   3.996   0.746 -0.5897  0.9412 -0.7776
    7MOL   H313 3565   4.161   3.748   0.811 -1.3068  0.8179  0.0841
    7MOL   H314 3566   4.301   3.846   0.856  1.0000 -3.4818  0.8605
    7MOL   H315 3567   4.424   3.772   0.661 -1.0464 -0.1715 -0.7708
    7MOL   H316 3568   4.296   3.685   0.594  3.9237 -0.6308 -0.8892
    7MOL   H317 3569   4.415   3.515   0.687  1.3460  0.8951 -1.0722
    7MOL   H318 3570   4.282   3.544   0.799  1.1693 -2.4747  1.4054
    7MOL   H319 3571   4.571   3.623   0.839  1.1473 -2.3214  2.4066
    7MOL   H320 3572   4.433   3.696   0.924 -1.4326 -1.1902 -0.4411
    7MOL   H321 3573   4.271   3.385   1.266  0.2097 -0.7657 -2.0914
    7MOL   H322 3574   4.396   3.271   1.334 -1.2227  0.3881 -0.1565
    7MOL   H323 3575   4.421   3.438   1.347 -0.8599  0.6371 -0.3959
    7MOL   H324 3576   4.652   3.356   1.081  1.8826 -0.5176  0.7355
    7MOL   H325 3577   4.627   3.234   1.196  0.2675  0.4759  0.6884
    7MOL   C326 3578   4.485   4.120   1.093  0.3891 -0.0965  0.2103
    7MOL   C327 3579   4.543   4.001   1.021  0.3683 -0.3956  1.1610
    7MOL   C328 3580   4.695   3.977   1.047 -0.1236  0.2117 -0.8023
    7MOL   C329 3581   4.740   3.837   1.058  0.2431 -0.4180  0.1546
    7MOL   C330 3582   4.688   3.779   1.188  0.4994  0.2739 -0.7831
    7MOL   O331 3583   4.699   3.639   1.191  0.2285 -0.0511 -0.7489
    7MOL   C332 3584   4.671   3.566   1.301  0.3255  0.1345 -0.3758
    7MOL   O333 3585   4.621   3.611   1.402  0.5216 -0.4088 -0.5246
    7MOL   C334 3586   4.694   3.413   1.287  0.0039 -0.3323 -0.3819
    7MOL   C335 3587   4.661   3.331   1.427  0.4614  0.2649 -0.0044
    7MOL   C336 3588   4.840   3.388   1.240 -0.2036 -0.1179 -0.0154
    7MOL   H337 3589   4.493   4.103   1.200  1.9969 -1.6988 -0.1396
    7MOL   H338 3590   4.381   4.147   1.075  0.2625 -0.7294 -0.0171
    7MOL   H339 3591   4.537   4.213   1.069  0.2901 -0.0654  0.1111
    7MOL   H340 3592   4.529   4.013   0.914  1.1590 -0.3351  1.0619
    7MOL   H341 3593   4.474   3.920   1.045 -2.4209  1.6035  0.1733
    7MOL   H342 3594   4.717   4.023   1.144 -0.8821 -1.7847  0.3637
    7MOL   H343 3595   4.748   4.032   0.969  0.5272  1.4845  0.5155
    7MOL   H344 3596   4.848   3.823   1.057 -0.0778 -3.5601  1.9456
    7MOL   H345 3597   4.716   3.775   0.972  1.2425 -2.0916  1.0527
    7MOL   H346 3598   4.582   3.800   1.198  0.6130  1.1517 -1.4008
    7MOL   H347 3599   4.743   3.825   1.270  1.0572  1.6059 -1.9039
    7MOL   H348 3600   4.616   3.233   1.408 -2.0340  1.3555  0.0632
    7MOL   H349 3601   4.593   3.388   1.491 -0.1341 -1.2535  0.7424
    7MOL   H350 3602   4.751   3.324   1.487  0.5521  0.9427 -0.0581
    7MOL   H351 3603   4.852   3.438   1.144  3.2776  2.4867  1.6838
    7MOL   H352 3604   4.849   3.282   1.215 -2.6477 -0.8377  1.9860
    7MOL   C353 3605   5.540   3.846   1.127  0.0924  0.4979 -0.4199
    7MOL   C354 3606   5.530   3.692   1.104  1.1654 -0.2010 -0.0957
    7MOL   C355 3607   5.388   3.638   1.132  0.6328  0.3588 -0.1424
    7MOL   C356 3608   5.267   3.704   1.053 -0.1965 -0.2484 -0.3886
    7MOL   C357 3609   5.144   3.601   1.047 -0.2110  0.3893 -0.0955
    7MOL   O358 3610   5.080   3.562   1.170 -0.3817 -0.0662  0.0857
    7MOL   C359 3611   5.093   3.442   1.222 -0.1936  0.0257 -0.1288
    7MOL   O360 3612   5.183   3.361   1.200  0.0297  0.5650 -0.9334
    7MOL   C361 3613   4.977   3.410   1.328  0.0856 -0.1786  0.1856
    7MOL   C362 3614   5.013   3.274   1.400  0.0046 -0.0116  0.2412
    7MOL   C363 3615   4.953   3.521   1.434 -0.3612 -0.4966 -0.1830
    7MOL   H364 3616   5.630   3.886   1.080  0.6127 -0.1288  0.0350
    7MOL   H365 3617   5.555   3.853   1.234  1.7995 -0.9470 -0.5415
    7MOL   H366 3618   5.459   3.904   1.083  0.4567  1.0008 -0.4330
    7MOL   H367 3619   5.557   3.673   1.000  1.9230 -3.0429  0.5794
    7MOL   H368 3620   5.604   3.638   1.163  0.9959 -0.6401 -0.2818
    7MOL   H369 3621   5.373   3.648   1.239  0.6296  0.6735 -0.1724
    7MOL   H370 3622   5.389   3.532   1.107 -0.9296  0.3790 -0.3072
    7MOL   H371 3623   5.307   3.720   0.953 -0.3804 -1.6333 -0.6981
    7MOL   H372 3624   5.243   3.800   1.100  1.2038 -0.3681  0.6402
    7MOL   H373 3625   5.066   3.647   0.986 -1.8599 -1.9199  0.1924
    7MOL   H374 3626   5.170   3.513   0.987  0.3581 -0.5030  1.4379
    7MOL   H375 3627   5.109   3.266   1.451 -0.9251 -2.5896  1.7132
    7MOL   H376 3628   4.932   3.251   1.469 -0.6592 -1.1025 -0.8845
    7MOL   H377 3629   5.012   3.186   1.336  0.4139  0.4205 -0.3669
    7MOL   H378 3630   4.936   3.613   1.379  3.2377  0.9991  1.1114
    7MOL   H379 3631   4.859   3.511   1.490  0.3902  1.2305  1.4322
    7MOL   C380 3632   4.475   3.246   1.921  0.2892 -0.0763 -0.7722
    7MOL   C381 3633   4.576   3.139   1.874  0.1499 -0.5041 -0.3640
    7MOL   C382 3634   4.722   3.170   1.897 -0.0404  0.7493 -0.0516
    7MOL   C383 3635   4.775   3.279   1.801 -0.5461  0.4388 -0.2515
    7MOL   C384 3636   4.926   3.298   1.792 -0.6744  0.7028 -0.0754
    7MOL   O385 3637   4.941   3.402   1.699 -0.2643  0.4537  0.8779
    7MOL   C386 3638   5.065   3.447   1.652 -0.2889 -0.1543  0.5009
    7MOL   O387 3639   5.169   3.393   1.683 -0.1399  0.3229 -0.1665
    7MOL   C388 3640   5.059   3.559   1.542  0.5658  0.4047  0.0213
    7MOL   C389 3641   5.207   3.575   1.480 -0.2702 -0.0820 -0.3416
    7MOL   C390 3642   5.008   3.687   1.606 -0.4047  0.5834 -0.6684
    7MOL   H391 3643   4.372   3.223   1.894  0.0237  1.6407 -1.2965
    7MOL   H392 3644   4.476   3.265   2.028  0.8205 -0.9617 -0.6172
    7MOL   H393 3645   4.499   3.340   1.871 -1.6937 -0.7844 -3.1720
    7MOL   H394 3646   4.567   3.116   1.768  0.9693 -2.0386 -0.1058
    7MOL   H395 3647   4.542   3.048   1.923 -0.2209 -0.4677 -0.5492
    7MOL   H396 3648   4.735   3.197   2.002  1.4668 -1.9058  0.4660
    7MOL   H397 3649   4.769   3.074   1.878 -0.5984  0.6246 -0.8595
    7MOL   H398 3650   4.745   3.264   1.698 -1.3551  1.6063 -0.1975
    7MOL   H399 3651   4.723   3.372   1.826  0.3745  1.1535 -0.9833
    7MOL   H400 3652   4.963   3.205   1.748 -2.9914  0.7615 -2.2800
    7MOL   H401 3653   4.967   3.319   1.891 -0.8255 -0.9759  0.3591
    7MOL   H402 3654   5.276   3.610   1.557 -0.7430  0.1508 -0.0271
    7MOL   H403 3655   5.214   3.643   1.396  0.6623  1.3757  0.8941
    7MOL   H404 3656   5.257   3.484   1.444  0.2367  0.7892 -1.8862
    7MOL   H405 3657   4.900   3.675   1.612 -0.1369 -2.0650 -0.5841
    7MOL   H406 3658   5.013   3.758   1.524  0.5450  0.5528 -0.6474
    7MOL   C407 3659   4.335   3.533   2.159 -0.0419  0.5975 -0.4407
    7MOL   C408 3660   4.432   3.608   2.068  0.2671 -0.2276  0.0126
    7MOL   C409 3661   4.582   3.571   2.082 -0.0180  0.1207  0.3673
    7MOL   C410 3662   4.672   3.641   1.981  0.0305  0.1333 -0.0077
    7MOL   C411 3663   4.824   3.621   1.998  0.0745 -0.1715 -0.4429
    7MOL   O412 3664   4.884   3.686   1.883 -0.4090  0.3201 -0.2360
    7MOL   C413 3665   5.013   3.675   1.861  0.7926  0.1119 -0.0733
    7MOL   O414 3666   5.088   3.609   1.933  0.5202 -0.2712  0.2245
    7MOL   C415 3667   5.062   3.754   1.738  0.1835  0.6520  0.3550
    7MOL   C416 3668   5.215   3.765   1.750  0.1309 -0.1828 -0.1839
    7MOL   C417 3669   4.990   3.894   1.735 -0.3887 -0.8262 -0.5221
    7MOL   H418 3670   4.232   3.561   2.135 -0.4736  0.8006  1.5776
    7MOL   H419 3671   4.332   3.431   2.121 -1.0965  0.2221  0.6077
    7MOL   H420 3672   4.348   3.539   2.267 -0.9027 -0.8656 -0.2443
    7MOL   H421 3673   4.425   3.715   2.089 -0.3355  0.0503 -1.4832
    7MOL   H422 3674   4.389   3.602   1.968 -1.1896 -1.5762  0.7117
    7MOL   H423 3675   4.612   3.592   2.184 -1.0131  0.8897  0.5153
    7MOL   H424 3676   4.598   3.463   2.074 -1.4736 -0.1092  0.4337
    7MOL   H425 3677   4.647   3.747   1.977 -0.3187  0.0867  0.8196
    7MOL   H426 3678   4.642   3.599   1.884  1.4596  1.8191 -1.2020
    7MOL   H427 3679   4.855   3.654   2.097 -1.2528 -0.1970 -0.0121
    7MOL   H428 3680   4.842   3.514   1.992  1.8254  0.1036 -0.4138
    7MOL   H429 3681   5.268   3.670   1.757 -0.1354 -0.2842  0.4617
    7MOL   H430 3682   5.254   3.812   1.841  1.2681  0.6967 -1.1106
    7MOL   H431 3683   5.255   3.836   1.677 -0.3613  1.1428  0.8032
    7MOL   H432 3684   4.884   3.869   1.738 -0.4297 -0.4880  1.0962
    7MOL   H433 3685   5.012   3.942   1.639 -0.5175  1.1374  0.4019
    7MOL   C434 3686   5.696   4.133   1.364 -0.1080  0.1179 -0.1118
    7MOL   C435 3687   5.600   4.066   1.465  0.2354  0.1892  0.7344
    7MOL   C436 3688   5.490   4.165   1.502  0.0590 -0.4783 -0.1464
    7MOL   C437 3689   5.395   4.104   1.611  0.3393  0.0338  0.6860
    7MOL   C438 3690   5.283   4.194   1.663  0.6463  0.1126  0.2969
    7MOL   O439 3691   5.164   4.115   1.701  0.5832 -0.1468  0.0525
    7MOL   C440 3692   5.153   4.070   1.818 -0.2088  0.6498  0.3529
    7MOL   O441 3693   5.238   4.085   1.905  0.3176 -0.1224  0.2378
    7MOL   C442 3694   5.017   4.007   1.846  0.2372 -0.0760 -0.2810
    7MOL   C443 3695   5.024   3.949   1.992 -0.6988 -0.0774 -0.1615
    7MOL   C444 3696   4.902   4.109   1.817 -0.7076 -0.4828 -0.0355
    7MOL   H445 3697   5.647   4.190   1.285  0.7741 -1.2246 -1.6772
    7MOL   H446 3698   5.757   4.206   1.416  0.8276  0.2422 -1.3504
    7MOL   H447 3699   5.753   4.052   1.317 -0.7387 -0.1300 -0.4552
    7MOL   H448 3700   5.558   3.978   1.417 -0.9099  1.6389 -1.0208
    7MOL   H449 3701   5.665   4.040   1.548 -1.1033 -1.1830  1.3755
    7MOL   H450 3702   5.535   4.259   1.533 -1.9343 -0.3317  2.5229
    7MOL   H451 3703   5.430   4.181   1.412  1.0629  0.2897 -0.6881
    7MOL   H452 3704   5.455   4.075   1.698  0.0097 -1.9333  0.2864
    7MOL   H453 3705   5.350   4.018   1.562  1.7760 -0.1712 -0.3295
    7MOL   H454 3706   5.254   4.256   1.578  1.8197  0.5228  0.1909
    7MOL   H455 3707   5.321   4.267   1.734 -0.8641  1.8156 -0.5910
    7MOL   H456 3708   5.044   4.029   2.063  0.0499 -0.3178 -0.0980
    7MOL   H457 3709   4.933   3.903   2.032  0.1706 -0.9108  0.8845
    7MOL   H458 3710   5.104   3.879   2.017  0.9990  2.8603  2.9818
    7MOL   H459 3711   4.810   4.060   1.850 -0.1103 -1.7983 -0.2687
    7MOL   H460 3712   4.897   4.112   1.708  0.3882 -0.5675 -0.0975
    7MOL   C461 3713   4.572   4.446   1.295 -0.6341  0.3016 -0.2100
    7MOL   C462 3714   4.728   4.420   1.294  0.5895 -0.9078 -0.4385
    7MOL   C463 3715   4.791   4.449   1.430 -0.6212 -0.8325  0.0091
    7MOL   C464 3716   4.941   4.412   1.433 -0.7391  0.7680 -0.5590
    7MOL   C465 3717   4.995   4.449   1.568  0.2389 -0.3826  0.3791
    7MOL   O466 3718   4.936   4.356   1.663  0.2148 -0.0584 -0.4014
    7MOL   C467 3719   4.976   4.363   1.789 -0.2721 -0.1840  0.0846
    7MOL   O468 3720   5.069   4.430   1.833  0.4206 -0.2998 -0.0573
    7MOL   C469 3721   4.896   4.262   1.873  0.1777 -0.2886 -0.7349
    7MOL   C470 3722   4.947   4.269   2.019  0.6966  0.1032  0.1171
    7MOL   C471 3723   4.742   4.310   1.871  0.2216  0.1907  0.0423
    7MOL   H472 3724   4.540   4.550   1.297  0.0208  0.5134 -0.4960
    7MOL   H473 3725   4.531   4.395   1.382 -0.3606  1.9147  0.8780
    7MOL   H474 3726   4.529   4.396   1.208  0.0537  1.7944 -1.4435
    7MOL   H475 3727   4.775   4.467   1.208 -2.9698  0.2540 -1.8392
    7MOL   H476 3728   4.735   4.313   1.277 -0.6614 -1.0594 -0.0100
    7MOL   H477 3729   4.726   4.391   1.496 -0.6451 -1.3376 -0.4570
    7MOL   H478 3730   4.780   4.556   1.443  1.5760 -0.3356 -2.0681
    7MOL   H479 3731   4.993   4.464   1.353 -1.1731  3.5054  0.8683
    7MOL   H480 3732   4.951   4.304   1.432 -2.1159  0.5961  1.1053
    7MOL   H481 3733   5.104   4.445   1.575  0.2893  0.7782  0.3904
    7MOL   H482 3734   4.964   4.552   1.589  0.5278 -0.5299  1.5474
    7MOL   H483 3735   5.054   4.246   2.022  0.8306  0.8326  1.5850
    7MOL   H484 3736   4.907   4.196   2.090  1.9102 -0.0504  0.6686
    7MOL   H485 3737   4.951   4.368   2.065 -0.9873  0.9074 -1.4437
    7MOL   H486 3738   4.697   4.227   1.925  0.2078  0.4444  0.4208
    7MOL   H487 3739   4.708   4.297   1.768  1.5704  2.8917 -0.8092
    7MOL   C488 3740   4.860   4.952   2.371  0.4520 -0.1526  0.1768
    7MOL   C489 3741   4.784   4.963   2.238  0.4168  0.5690 -0.0174
    7MOL   C490 3742   4.824   4.860   2.132  0.8366  0.2396 -0.2316
    7MOL   C491 3743   4.760   4.886   1.996 -0.1100  0.2964 -0.4924
    7MOL   C492 3744   4.799   4.780   1.897 -0.0277  0.3775  0.0546
    7MOL   O493 3745   4.740   4.662   1.944  0.1620  0.0726 -0.0205
    7MOL   C494 3746   4.730   4.555   1.865  0.4969  0.4044  0.1244
    7MOL   O495 3747   4.757   4.556   1.748  0.4629  0.2878  0.4932
    7MOL   C496 3748   4.672   4.430   1.940  0.1032 -0.3522  0.1585
    7MOL   C497 3749   4.701   4.445   2.093 -0.2213  0.4078  0.6883
    7MOL   C498 3750   4.517   4.428   1.904  0.5335  0.2754 -0.8592
    7MOL   H499 3751   4.806   5.019   2.438  0.3242  0.4245 -0.5081
    7MOL   H500 3752   4.859   4.850   2.409 -1.4659 -0.4130 -0.4989
    7MOL   H501 3753   4.962   4.987   2.357  0.7413 -1.7269 -1.8774
    7MOL   H502 3754   4.780   5.064   2.198 -2.1617  0.2176 -0.7472
    7MOL   H503 3755   4.680   4.945   2.265  0.8454 -0.7925  0.7535
    7MOL   H504 3756   4.933   4.855   2.120  0.6030 -0.9469 -2.1995
    7MOL   H505 3757   4.790   4.764   2.171  1.3260  0.1542 -0.0067
    7MOL   H506 3758   4.791   4.980   1.951  1.4123  0.1708  0.2826
    7MOL   H507 3759   4.652   4.896   2.007  0.2450  1.2074  2.7147
    7MOL   H508 3760   4.758   4.807   1.800  0.6610  2.3785  0.2965
    7MOL   H509 3761   4.907   4.765   1.900  0.2368  2.0334 -1.0338
    7MOL   H510 3762   4.785   4.506   2.127  1.1514 -0.0341 -1.7826
    7MOL   H511 3763   4.716   4.345   2.135  1.8041 -0.0140 -0.9770
    7MOL   H512 3764   4.611   4.484   2.141  0.4077  1.1158  1.3213
    7MOL   H513 3765   4.507   4.439   1.796 -1.4128  1.5846 -0.5682
    7MOL   H514 3766   4.476   4.518   1.951 -0.3844 -0.1255 -0.8856
    7MOL   C515 3767   4.658   4.267   2.776 -0.5323 -0.5120  0.4589
    7MOL   C516 3768   4.615   4.340   2.652 -0.1970  0.6690 -0.0210
    7MOL   C517 3769   4.555   4.243   2.555  0.7121 -0.0077  0.2250
    7MOL   C518 3770   4.519   4.315   2.413  0.9076 -0.0073 -0.2925
    7MOL   C519 3771   4.491   4.213   2.293  0.1569 -0.2409  0.1855
    7MOL   O520 3772   4.460   4.283   2.173 -0.5654  0.3714 -0.0459
    7MOL   C521 3773   4.465   4.213   2.055 -0.9139 -0.0064 -0.2067
    7MOL   O522 3774   4.500   4.096   2.041 -0.0158 -0.3751 -0.0785
    7MOL   C523 3775   4.425   4.300   1.935  0.0841 -0.0471  0.3345
    7MOL   C524 3776   4.420   4.218   1.804  0.0479  0.1305 -0.2817
    7MOL   C525 3777   4.283   4.353   1.964 -0.2271  0.9099 -0.2650
    7MOL   H526 3778   4.678   4.324   2.866  1.2201  0.2563 -0.4052
    7MOL   H527 3779   4.585   4.194   2.813 -1.9783  0.7804  0.2239
    7MOL   H528 3780   4.754   4.218   2.759  0.0395  0.4770  0.8128
    7MOL   H529 3781   4.533   4.408   2.679  0.9841  1.8739  0.6113
    7MOL   H530 3782   4.693   4.406   2.614 -1.9844  2.3750 -0.8635
    7MOL   H531 3783   4.599   4.144   2.543 -1.0697 -0.9344  1.1200
    7MOL   H532 3784   4.463   4.211   2.604  0.3371  1.1474  0.2960
    7MOL   H533 3785   4.598   4.386   2.390  1.5032 -1.3355 -2.4741
    7MOL   H534 3786   4.430   4.376   2.431  0.0068 -1.1207 -0.9510
    7MOL   H535 3787   4.581   4.154   2.278  0.3727  0.1241  0.0380
    7MOL   H536 3788   4.416   4.139   2.319  1.3123 -1.0887  1.1786
    7MOL   H537 3789   4.368   4.124   1.825  1.3007 -0.4987  0.0108
    7MOL   H538 3790   4.516   4.174   1.777  0.1249 -0.3078  0.6759
    7MOL   H539 3791   4.357   4.256   1.724 -1.3327  0.1577  0.7814
    7MOL   H540 3792   4.214   4.270   1.949  0.4420  0.3671 -0.3756
    7MOL   H541 3793   4.256   4.439   1.902  1.5702  2.2513  0.7893
    7MOL   H542 3794   4.265   4.393   2.064 -0.3343  0.1597  0.0124
    8MOL     C1 3795   3.989   0.611   3.455  0.5271  0.0954  0.1980
    8MOL     C2 3796   4.066   0.613   3.588 -0.4949  0.1194 -0.1426
    8MOL     C3 3797   4.217   0.608   3.562 -0.0833  0.3093  0.1553
    8MOL     C4 3798   4.300   0.610   3.687  0.0889 -0.6291 -0.5771
    8MOL     C5 3799   4.448   0.609   3.655  0.5784 -0.1799  0.3484
    8MOL     O6 3800   4.483   0.746   3.630 -0.3031 -0.4659  0.4554
    8MOL     C7 3801   4.606   0.774   3.578  0.0852 -0.1957 -0.2301
    8MOL     O8 3802   4.693   0.686   3.553 -0.5289  0.0500  0.1821
    8MOL     C9 3803   4.624   0.925   3.559  0.3325  0.0554  0.4255
    8MOL    C10 3804   4.627   0.995   3.694 -0.5056  0.0928  0.2008
    8MOL    C11 3805   4.532   0.998   3.460  0.1549 -0.5276 -0.2886
    8MOL    H12 3806   3.994   0.704   3.399  0.4467  1.3504  2.2151
    8MOL    H13 3807   3.882   0.619   3.471  0.7192  2.6512  0.4218
    8MOL    H14 3808   4.010   0.531   3.384  2.9624  0.5205  0.3766
    8MOL    H15 3809   4.035   0.700   3.646  0.4512 -0.7688  1.7355
    8MOL    H16 3810   4.051   0.524   3.649  1.4601 -0.6143 -0.7213
    8MOL    H17 3811   4.246   0.529   3.493 -0.8385 -0.1071  0.3119
    8MOL    H18 3812   4.237   0.695   3.499 -1.2055  0.3023 -0.2199
    8MOL    H19 3813   4.268   0.523   3.744  1.9050 -1.5924 -0.9972
    8MOL    H20 3814   4.275   0.692   3.754  2.0190  1.1032 -1.9101
    8MOL    H21 3815   4.509   0.573   3.739  0.0821 -1.7361  0.0681
    8MOL    H22 3816   4.469   0.544   3.570 -0.5899 -2.3626  1.6703
    8MOL    H23 3817   4.678   1.091   3.703  1.5537 -1.2394  4.4575
    8MOL    H24 3818   4.683   0.936   3.767 -1.0007  0.9250  1.2684
    8MOL    H25 3819   4.529   1.007   3.739  0.6309  2.8264  2.1014
    8MOL    H26 3820   4.544   1.104   3.483 -2.7686 -0.3569  0.6588
    8MOL    H27 3821   4.430   0.978   3.493  0.8548 -3.5028  0.1903
    8MOL    H28 3822   4.729   0.934   3.531 -0.0464 -0.6572 -1.2271
    8MOL    C29 3823   4.063   0.309   3.125  0.0437 -0.0774  0.9858
    8MOL    C30 3824   4.114   0.450   3.077 -0.3053  0.0788 -0.7379
    8MOL    C31 3825   4.245   0.476   3.151 -0.6921 -0.3604 -0.0970
    8MOL    C32 3826   4.300   0.621   3.144 -0.3378  0.3418  0.4957
    8MOL    C33 3827   4.431   0.646   3.231 -0.7190 -0.4055  0.3089
    8MOL    O34 3828   4.453   0.787   3.285  0.3006  0.4545 -1.1520
    8MOL    C35 3829   4.567   0.850   3.252 -0.4146  0.4643  0.1567
    8MOL    O36 3830   4.661   0.799   3.190 -0.0836  0.0908  0.0517
    8MOL    C37 3831   4.558   0.992   3.305 -0.2462  0.0619 -0.0425
    8MOL    C38 3832   4.697   1.052   3.277  0.0351 -0.1888 -0.1587
    8MOL    C39 3833   4.437   1.071   3.241 -0.4813  0.3514 -0.1231
    8MOL    H40 3834   3.963   0.293   3.084  0.0209 -0.7263  1.2919
    8MOL    H41 3835   4.126   0.223   3.105  0.0312  0.1584 -0.0916
    8MOL    H42 3836   4.052   0.313   3.233 -1.0487  3.0474  0.8269
    8MOL    H43 3837   4.049   0.530   3.114  0.1473  1.1678 -2.2652
    8MOL    H44 3838   4.125   0.463   2.970 -0.0265  0.2723 -0.6881
    8MOL    H45 3839   4.321   0.407   3.116  0.9715  0.6167  1.5138
    8MOL    H46 3840   4.230   0.442   3.254  0.2991 -0.7411 -0.0786
    8MOL    H47 3841   4.313   0.656   3.042  1.8184  1.6310  1.1993
    8MOL    H48 3842   4.212   0.670   3.186 -0.6998 -0.6414  0.9111
    8MOL    H49 3843   4.510   0.593   3.177 -2.3597 -1.3056 -1.2762
    8MOL    H50 3844   4.419   0.565   3.303 -1.4955 -0.5944 -0.0223
    8MOL    H51 3845   4.711   1.156   3.306  1.1306 -0.8625  1.8393
    8MOL    H52 3846   4.720   1.056   3.170  0.0317 -1.0660 -0.1899
    8MOL    H53 3847   4.774   0.999   3.333 -0.3056  2.3838  2.9271
    8MOL    H54 3848   4.435   1.159   3.305 -1.4113  1.1347 -1.2264
    8MOL    H55 3849   4.346   1.030   3.284  1.7559 -0.6677  3.9032
    8MOL    C56 3850   4.778   1.765   2.706 -0.5718  0.2635  0.4937
    8MOL    C57 3851   4.673   1.665   2.759 -1.0200  0.5344 -0.1618
    8MOL    C58 3852   4.752   1.560   2.850  0.0728  0.3259  0.5497
    8MOL    C59 3853   4.654   1.486   2.951  0.4726 -0.0006 -0.5030
    8MOL    C60 3854   4.696   1.352   3.005 -0.7759  0.3316  0.6869
    8MOL    O61 3855   4.583   1.291   3.074 -0.2216 -0.7743 -0.3644
    8MOL    C62 3856   4.525   1.169   3.025  0.2474  0.4063  0.0082
    8MOL    O63 3857   4.569   1.113   2.930  0.9492 -0.4150  0.5848
    8MOL    C64 3858   4.398   1.120   3.098 -0.2562  0.0615 -1.2661
    8MOL    C65 3859   4.314   1.250   3.115  0.6804 -0.5224 -0.9518
    8MOL    C66 3860   4.325   1.003   3.027 -0.3349 -0.2996 -0.3200
    8MOL    H67 3861   4.851   1.719   2.640 -1.6694 -1.4337  0.4246
    8MOL    H68 3862   4.825   1.817   2.790 -2.8555  1.2637  1.1980
    8MOL    H69 3863   4.726   1.841   2.649 -2.6242  0.5917  2.7008
    8MOL    H70 3864   4.612   1.732   2.819 -1.7829  0.9604 -1.3930
    8MOL    H71 3865   4.612   1.606   2.690 -1.5024  0.7231  0.0996
    8MOL    H72 3866   4.799   1.492   2.779 -1.5566  0.1452 -0.3605
    8MOL    H73 3867   4.829   1.611   2.909 -0.4433 -0.5608  2.0120
    8MOL    H74 3868   4.560   1.473   2.898  0.6080  0.2969 -0.8151
    8MOL    H75 3869   4.633   1.559   3.030 -2.2527  0.1620 -1.3104
    8MOL    H76 3870   4.729   1.289   2.922 -1.9403  0.4876  0.0973
    8MOL    H77 3871   4.771   1.378   3.080  0.0529 -0.0439 -0.0011
    8MOL    H78 3872   4.362   1.338   3.157 -0.4630  0.4096 -1.5489
    8MOL    H79 3873   4.241   1.234   3.194  3.5095 -1.0278  1.6355
    8MOL    H80 3874   4.264   1.281   3.023  1.4496  1.9193 -0.5688
    8MOL    H81 3875   4.260   0.957   3.101 -1.7823  1.0946 -0.6985
    8MOL    H82 3876   4.398   0.927   3.000 -0.4838 -0.4906 -0.1901
    8MOL    C83 3877   3.732   0.703   3.245  0.4613 -0.8002  0.2429
    8MOL    C84 3878   3.754   0.836   3.300 -0.5860 -0.5673  0.1992
    8MOL    C85 3879   3.832   0.914   3.190  0.3340  0.5014  0.1317
    8MOL    C86 3880   3.872   1.055   3.227  0.0487  0.5447 -0.1148
    8MOL    C87 3881   3.928   1.133   3.110 -0.2474 -0.6946  0.1636
    8MOL    O88 3882   4.046   1.060   3.064 -0.3564 -0.6308  0.1502
    8MOL    C89 3883   4.097   1.102   2.948 -0.2006 -0.3437  0.1968
    8MOL    O90 3884   4.051   1.197   2.883 -0.0251  0.3872  0.6059
    8MOL    C91 3885   4.226   1.024   2.906 -0.2870 -0.0155  0.2623
    8MOL    C92 3886   4.297   1.104   2.790 -0.1260  0.5527 -0.4765
    8MOL    C93 3887   4.182   0.879   2.873  0.5986  0.7578  0.0946
    8MOL    H94 3888   3.670   0.640   3.309 -1.3883  0.2997 -0.4184
    8MOL    H95 3889   3.679   0.700   3.150 -1.3136  1.8247  1.0882
    8MOL    H96 3890   3.826   0.651   3.226  0.7164 -0.3725  0.3175
    8MOL    H97 3891   3.810   0.843   3.393 -1.3319  4.0856  0.4166
    8MOL    H98 3892   3.661   0.892   3.312 -0.5707 -0.2846 -0.8998
    8MOL    H99 3893   3.766   0.910   3.103 -0.3189 -1.1855  0.6747
    8MOL   H100 3894   3.913   0.848   3.160 -0.7236 -0.3418 -0.9338
    8MOL   H101 3895   3.957   1.049   3.295 -0.6830 -1.7164  0.6473
    8MOL   H102 3896   3.796   1.104   3.288  0.1675  1.8117 -0.9607
    8MOL   H103 3897   3.973   1.228   3.140  0.7053 -0.9306 -0.4802
    8MOL   H104 3898   3.856   1.157   3.031  1.6723  2.6142 -0.7046
    8MOL   H105 3899   4.238   1.118   2.700 -0.5986  1.6109 -0.0076
    8MOL   H106 3900   4.382   1.041   2.765 -0.2507  0.2267 -0.0882
    8MOL   H107 3901   4.329   1.205   2.817  2.5639 -0.2136 -0.6181
    8MOL   H108 3902   4.270   0.815   2.880 -0.1945 -0.3804 -0.2852
    8MOL   H109 3903   4.136   0.839   2.963  1.6850  2.5168  1.4778
    8MOL   C110 3904   4.820   0.675   2.384 -0.1704  0.6459  0.5636
    8MOL   C111 3905   4.694   0.678   2.471  0.4205 -0.2108  1.0497
    8MOL   C112 3906   4.573   0.717   2.386  0.3905 -0.2902  0.0489
    8MOL   C113 3907   4.439   0.707   2.451  0.3584 -0.5035 -0.7804
    8MOL   C114 3908   4.435   0.811   2.570  0.4369 -0.1528 -0.1005
    8MOL   O115 3909   4.321   0.799   2.653 -0.0937 -0.6386  0.2144
    8MOL   C116 3910   4.208   0.856   2.618 -0.1222 -0.9026 -0.1813
    8MOL   O117 3911   4.186   0.925   2.521 -0.2012  0.8517  0.0891
    8MOL   C118 3912   4.109   0.835   2.735  0.0772  0.0142  0.6099
    8MOL   C119 3913   3.981   0.926   2.724  0.5242 -0.2121 -0.0115
    8MOL   C120 3914   4.055   0.686   2.743 -0.0112  0.5753  0.3803
    8MOL   H121 3915   4.903   0.659   2.453  0.1052 -1.8273 -0.2820
    8MOL   H122 3916   4.817   0.595   2.310 -2.5467  0.3141  0.9741
    8MOL   H123 3917   4.835   0.770   2.332 -1.8719 -0.1688 -1.4924
    8MOL   H124 3918   4.676   0.585   2.524 -0.3974 -1.0819 -0.7140
    8MOL   H125 3919   4.715   0.747   2.553 -0.3606  0.3440  0.7917
    8MOL   H126 3920   4.591   0.820   2.354  0.6662 -1.6370 -4.5845
    8MOL   H127 3921   4.582   0.661   2.293  0.0555  1.7634 -1.2645
    8MOL   H128 3922   4.416   0.605   2.481 -0.4529 -0.5615 -1.5978
    8MOL   H129 3923   4.361   0.733   2.379 -1.2689  0.0986  1.1466
    8MOL   H130 3924   4.515   0.780   2.638 -0.1937  0.1162  0.7781
    8MOL   H131 3925   4.432   0.911   2.526 -0.7385  0.8430  2.1223
    8MOL   H132 3926   3.926   0.947   2.815 -0.4113 -0.0386 -0.6077
    8MOL   H133 3927   4.015   1.024   2.692  0.0072 -0.0268  0.0057
    8MOL   H134 3928   3.909   0.893   2.648  1.0451  1.0710 -1.0778
    8MOL   H135 3929   4.123   0.634   2.810 -0.3221  1.0411  1.0630
    8MOL   H136 3930   3.967   0.698   2.805 -0.1845  0.8848  0.0764
    8MOL   C137 3931   4.006   0.507   1.893 -0.2666  0.0938 -0.7738
    8MOL   C138 3932   4.096   0.466   2.016 -0.1723  0.0886 -0.1957
    8MOL   C139 3933   4.114   0.575   2.119  0.5724  0.5138  0.0617
    8MOL   C140 3934   3.986   0.638   2.173  0.0501 -0.3385 -0.1326
    8MOL   C141 3935   4.009   0.747   2.282  0.2120 -0.2530 -0.3163
    8MOL   O142 3936   4.052   0.694   2.410 -0.1892 -0.0271 -0.2049
    8MOL   C143 3937   3.958   0.656   2.497 -0.4885 -0.7115  0.2706
    8MOL   O144 3938   3.840   0.673   2.476  0.0209 -0.6607  0.1688
    8MOL   C145 3939   4.021   0.586   2.629 -0.3266  0.8624  0.4792
    8MOL   C146 3940   4.151   0.507   2.597  0.1130 -0.2382 -0.0144
    8MOL   C147 3941   3.917   0.474   2.680 -0.1660 -0.1256  0.7087
    8MOL   H148 3942   4.031   0.458   1.800 -1.6131  0.4365 -1.3302
    8MOL   H149 3943   4.005   0.615   1.877  0.9665  0.0849 -0.9713
    8MOL   H150 3944   3.904   0.474   1.912 -0.1300  0.1518  0.1278
    8MOL   H151 3945   4.193   0.422   1.993  0.1079  1.1487 -1.0106
    8MOL   H152 3946   4.051   0.378   2.064  1.9684 -0.3996  1.0073
    8MOL   H153 3947   4.177   0.529   2.195  0.2702  0.7022  0.4248
    8MOL   H154 3948   4.176   0.642   2.059  0.9702 -0.6716 -0.8662
    8MOL   H155 3949   3.936   0.682   2.087  2.0495 -0.6155 -1.4934
    8MOL   H156 3950   3.918   0.559   2.205 -0.0078  0.5915  2.1691
    8MOL   H157 3951   3.924   0.814   2.296  2.1002  1.7317  2.1213
    8MOL   H158 3952   4.080   0.821   2.246 -3.1618  1.8032 -3.0192
    8MOL   H159 3953   4.160   0.434   2.678  0.0125 -1.1876 -0.8463
    8MOL   H160 3954   4.237   0.571   2.618 -0.0173 -0.7230  2.1260
    8MOL   H161 3955   4.161   0.449   2.505 -2.1530 -1.8627  0.7064
    8MOL   H162 3956   3.947   0.442   2.780 -1.0467 -1.0893  0.6814
    8MOL   H163 3957   3.820   0.522   2.683 -0.3116 -0.4744  1.8096
    8MOL   C164 3958   3.711   7.446   2.728  0.0470  0.4617  0.2528
    8MOL   C165 3959   3.805   7.508   2.625  0.4689  0.5971 -0.7435
    8MOL   C166 3960   3.869   7.644   2.661  0.5410 -0.2174  0.4828
    8MOL   C167 3961   3.951   7.688   2.537  0.2231  0.3217  0.2837
    8MOL   C168 3962   4.039   0.002   2.558  1.0706  0.0918  0.2375
    8MOL   O169 3963   3.961   0.116   2.563 -0.5113 -0.4861  0.5081
    8MOL   C170 3964   3.985   0.223   2.642  0.5575 -0.4203  0.1349
    8MOL   O171 3965   4.068   0.225   2.729  0.5343 -0.0230 -0.0015
    8MOL   C172 3966   3.884   0.339   2.612 -0.1479 -0.2880  0.3732
    8MOL   C173 3967   3.884   0.356   2.459  0.1829  0.1927  0.3468
    8MOL   C174 3968   3.733   0.295   2.649 -0.8898  0.0401 -0.5363
    8MOL   H175 3969   3.611   7.485   2.707 -0.4130 -0.3924  0.8282
    8MOL   H176 3970   3.746   7.463   2.830  0.9983 -0.6418  0.1203
    8MOL   H177 3971   3.709   7.338   2.715  1.1429  0.8396 -3.6346
    8MOL   H178 3972   3.746   7.526   2.535 -0.5134 -1.1939 -0.4753
    8MOL   H179 3973   3.884   7.439   2.596  0.7078  0.3838  0.3721
    8MOL   H180 3974   3.796   7.721   2.685 -0.8709 -1.5426  0.4723
    8MOL   H181 3975   3.931   7.621   2.748  0.0309 -1.0394  0.6364
    8MOL   H182 3976   3.905   7.689   2.438 -0.3490 -1.6129  0.4935
    8MOL   H183 3977   4.017   7.601   2.528 -2.3007 -1.4406 -2.1301
    8MOL   H184 3978   4.126   0.008   2.493  0.5798  1.9902 -0.2808
    8MOL   H185 3979   4.087   7.800   2.655  0.5343 -0.4720  0.4160
    8MOL   H186 3980   3.976   0.387   2.410  0.7372 -2.7077 -0.5473
    8MOL   H187 3981   3.809   0.429   2.431  0.1678 -0.4495 -1.3326
    8MOL   H188 3982   3.849   0.273   2.397 -2.0852  2.7932 -1.9401
    8MOL   H189 3983   3.667   0.371   2.607 -1.8299  0.4905  1.6329
    8MOL   H190 3984   3.720   0.201   2.597  0.6562 -0.1685 -0.5662
    8MOL   C191 3985   3.612   1.097   2.800  0.4028 -0.0530  0.5482
    8MOL   C192 3986   3.572   0.960   2.739  0.4399 -0.1173  0.3896
    8MOL   C193 3987   3.557   0.851   2.846 -0.7941 -0.5032 -0.3508
    8MOL   C194 3988   3.534   0.711   2.780  0.0543 -0.2718 -0.0625
    8MOL   C195 3989   3.522   0.603   2.885 -0.2961 -0.7214  0.4569
    8MOL   O196 3990   3.555   0.472   2.831  1.1586  0.1796  0.2125
    8MOL   C197 3991   3.668   0.405   2.866  0.7396 -0.3055  0.2964
    8MOL   O198 3992   3.751   0.451   2.941 -0.1177 -0.2368 -0.0176
    8MOL   C199 3993   3.690   0.272   2.801 -0.7599  0.4869 -0.2710
    8MOL   C200 3994   3.792   0.185   2.874 -0.0632 -1.1235 -0.0185
    8MOL   C201 3995   3.562   0.185   2.794  0.1615  0.0222 -0.4938
    8MOL   H202 3996   3.699   1.084   2.864  0.2381 -1.1281  0.5759
    8MOL   H203 3997   3.636   1.176   2.728 -2.5766  0.2528 -0.1711
    8MOL   H204 3998   3.527   1.131   2.858 -0.3407 -0.4779 -0.2775
    8MOL   H205 3999   3.653   0.924   2.676  0.5707  0.7809  0.0382
    8MOL   H206 4000   3.483   0.964   2.675  0.1128  0.5420  0.8826
    8MOL   H207 4001   3.470   0.877   2.907  0.8228 -1.1532  2.3085
    8MOL   H208 4002   3.642   0.852   2.914 -1.1036  2.1700  0.0443
    8MOL   H209 4003   3.445   0.712   2.716 -0.2522  2.7424  0.3382
    8MOL   H210 4004   3.618   0.686   2.715  0.1140 -0.4770  0.0931
    8MOL   H211 4005   3.578   0.632   2.974  0.3367  0.5879 -0.3573
    8MOL   H212 4006   3.423   0.604   2.929 -1.1328  0.2756 -1.4096
    8MOL   H213 4007   3.751   0.147   2.968  0.0135 -0.7608  0.1623
    8MOL   H214 4008   3.887   0.230   2.901  0.1183 -0.3227 -1.9769
    8MOL   H215 4009   3.814   0.102   2.807 -3.2929 -1.0771 -1.2503
    8MOL   H216 4010   3.582   0.101   2.728 -1.0511 -3.1689  3.0210
    8MOL   H217 4011   3.496   0.241   2.727 -1.5695 -0.0676  1.1029
    8MOL   C218 4012   3.721   0.358   3.700 -0.2864 -0.6014 -0.1216
    8MOL   C219 4013   3.776   0.281   3.579 -0.7779 -0.9197 -0.0137
    8MOL   C220 4014   3.738   0.344   3.450 -0.1835 -0.2255 -0.6558
    8MOL   C221 4015   3.720   0.234   3.338  0.0249  0.1101  1.7403
    8MOL   C222 4016   3.593   0.256   3.246 -0.1742 -0.1211  0.2913
    8MOL   O223 4017   3.585   0.177   3.133 -0.5730  0.4451 -0.5274
    8MOL   C224 4018   3.496   0.213   3.034  0.2757 -0.4393  0.4917
    8MOL   O225 4019   3.426   0.314   3.043 -0.6806  0.0338 -0.4462
    8MOL   C226 4020   3.484   0.121   2.911  0.5377 -0.6792 -0.4107
    8MOL   C227 4021   3.540   7.790   2.938  0.0713 -0.4442 -0.4036
    8MOL   C228 4022   3.336   0.105   2.856 -0.3339 -0.7666 -0.1911
    8MOL   H229 4023   3.754   0.460   3.716  0.1721 -0.9101  0.9012
    8MOL   H230 4024   3.613   0.371   3.689 -0.1448  1.0330  0.3845
    8MOL   H231 4025   3.765   0.314   3.789  1.9821  0.3620 -0.7238
    8MOL   H232 4026   3.745   0.176   3.583 -0.1708 -1.0294  3.1630
    8MOL   H233 4027   3.884   0.270   3.585 -0.6619 -0.4587 -1.1214
    8MOL   H234 4028   3.813   0.420   3.427 -1.0513  0.1833 -2.2784
    8MOL   H235 4029   3.649   0.406   3.446  1.1025  1.5415 -3.3236
    8MOL   H236 4030   3.816   0.220   3.289 -0.6573  0.1866  0.3766
    8MOL   H237 4031   3.722   0.132   3.377 -1.8570 -1.5223 -2.1472
    8MOL   H238 4032   3.587   0.360   3.217  1.0156  1.3244  4.7654
    8MOL   H239 4033   3.511   0.245   3.317  0.5504 -0.1097  1.1479
    8MOL   H240 4034   3.647   7.776   2.922  0.7134  1.3095  1.9602
    8MOL   H241 4035   3.504   7.711   2.873  0.1947 -1.3980  0.6714
    8MOL   H242 4036   3.524   7.758   3.041 -3.6701 -0.4855 -0.9255
    8MOL   H243 4037   3.351   0.048   2.764  2.6023 -0.3940 -0.0154
    8MOL   H244 4038   3.316   0.207   2.823  1.6814 -1.1792 -2.8356
    8MOL   C245 4039   3.306   0.643   3.429  0.5338  0.5725 -0.1753
    8MOL   C246 4040   3.330   0.500   3.382 -0.0936  0.1204 -0.0639
    8MOL   C247 4041   3.213   0.431   3.317 -0.6856 -0.2340 -0.3674
    8MOL   C248 4042   3.180   0.478   3.175 -0.4345  0.0240  0.1619
    8MOL   C249 4043   3.080   0.373   3.100 -0.3116 -0.2274 -0.4600
    8MOL   O250 4044   3.164   0.261   3.065  0.3127 -0.1242 -0.2397
    8MOL   C251 4045   3.116   0.174   2.975  0.5961 -0.0733 -0.4121
    8MOL   O252 4046   3.003   0.180   2.930  0.3623  0.4771  0.7174
    8MOL   C253 4047   3.213   0.052   2.943 -0.4545 -0.9364  0.0475
    8MOL   C254 4048   3.252   7.801   3.083  0.2329  0.5542  0.2242
    8MOL   C255 4049   3.129   7.769   2.847 -0.6263  0.3869 -0.1401
    8MOL   H256 4050   3.205   0.650   3.469 -0.1014  1.9527 -1.9374
    8MOL   H257 4051   3.380   0.667   3.505 -1.5971  2.5528  1.3390
    8MOL   H258 4052   3.325   0.713   3.348 -1.6618  1.5758  0.1344
    8MOL   H259 4053   3.419   0.492   3.319 -0.3945  1.6344 -0.7060
    8MOL   H260 4054   3.358   0.439   3.468 -0.0478  0.1116 -0.0848
    8MOL   H261 4055   3.120   0.419   3.372  0.5929 -1.2704  1.6240
    8MOL   H262 4056   3.265   0.336   3.304 -0.2478  0.1228 -1.2630
    8MOL   H263 4057   3.126   0.573   3.175  0.1067  0.3481 -1.2691
    8MOL   H264 4058   3.269   0.491   3.114 -1.4889 -2.2596 -1.9407
    8MOL   H265 4059   3.010   0.343   3.178 -0.2157  1.5197  0.3097
    8MOL   H266 4060   3.036   0.425   3.015 -1.6615  1.3624  1.1739
    8MOL   H267 4061   3.309   0.057   3.145 -0.2278  0.9851  0.1651
    8MOL   H268 4062   3.165   7.769   3.141 -0.4201  1.2226 -0.3750
    8MOL   H269 4063   3.314   7.713   3.067  0.8332  0.7982  1.1681
    8MOL   H270 4064   3.081   0.011   2.767 -1.4832 -0.4799 -0.2393
    8MOL   H271 4065   3.205   7.718   2.788  0.8741  0.1577  1.9590
    8MOL   C272 4066   3.554   7.362   3.219  0.1621  0.0970  0.3937
    8MOL   C273 4067   3.408   7.323   3.198 -0.8843 -0.4532  0.1467
    8MOL   C274 4068   3.307   7.436   3.251  0.3915 -0.3082 -0.1405
    8MOL   C275 4069   3.165   7.381   3.257 -0.0361 -0.0826 -0.0688
    8MOL   C276 4070   3.085   7.366   3.131 -0.9832  0.3565 -0.1030
    8MOL   O277 4071   3.043   7.493   3.082 -0.1876  0.3270 -0.4295
    8MOL   C278 4072   3.106   7.559   2.981  0.6629 -0.2329 -0.1536
    8MOL   O279 4073   3.222   7.525   2.941  0.1698 -0.5145 -0.3207
    8MOL   C280 4074   3.023   7.667   2.905  0.0524  0.0991 -0.1572
    8MOL   C281 4075   2.930   7.734   3.017 -0.8108  0.3033 -0.5551
    8MOL   C282 4076   2.942   7.593   2.792 -0.5921 -0.5418 -0.0462
    8MOL   H283 4077   3.583   7.443   3.152  1.0009 -0.1560  0.4458
    8MOL   H284 4078   3.556   7.410   3.317  1.2191  0.1020  0.3821
    8MOL   H285 4079   3.623   7.278   3.207  2.0791  2.0999 -3.4486
    8MOL   H286 4080   3.387   7.307   3.092 -0.6185  1.1681 -0.1778
    8MOL   H287 4081   3.380   7.231   3.248 -2.4120 -0.2973 -0.3992
    8MOL   H288 4082   3.324   7.464   3.356 -0.6462  0.4847 -0.1746
    8MOL   H289 4083   3.307   7.526   3.190 -2.2283 -0.7442 -0.8529
    8MOL   H290 4084   3.173   7.279   3.294 -0.1003 -0.1275 -0.1786
    8MOL   H291 4085   3.106   7.443   3.325  1.8397 -0.0153  1.5442
    8MOL   H292 4086   2.987   7.327   3.158 -1.3240  0.2371 -1.4986
    8MOL   H293 4087   3.134   7.310   3.052  3.4864  1.5633  1.6361
    8MOL   H294 4088   2.969   7.781   3.107 -4.3195  0.7460  0.8143
    8MOL   H295 4089   2.873   0.002   2.973 -0.6306  0.6021 -0.2302
    8MOL   H296 4090   2.861   7.664   3.064 -0.1879  0.2442  0.2769
    8MOL   H297 4091   3.002   7.504   2.774 -0.1049  0.1187 -1.8479
    8MOL   H298 4092   2.855   7.546   2.837  0.8289 -2.5421  0.6968
    8MOL   C299 4093   3.090   7.463   1.951  0.1539  0.4119  0.4605
    8MOL   C300 4094   3.106   7.577   2.047  0.1590  0.1254  0.0400
    8MOL   C301 4095   3.123   7.536   2.195  0.4593 -0.2628 -0.1536
    8MOL   C302 4096   3.163   7.667   2.276  0.0689  0.4114  0.3997
    8MOL   C303 4097   3.199   7.645   2.423 -0.5015 -0.6435  0.3115
    8MOL   O304 4098   3.087   7.615   2.513  0.0622 -0.3390  0.2572
    8MOL   C305 4099   2.995   7.708   2.550  0.6946 -0.4805  0.2844
    8MOL   O306 4100   2.986   0.005   2.488 -0.1626  0.2413 -0.4323
    8MOL   C307 4101   2.888   7.665   2.659 -0.0308 -0.3503  1.0787
    8MOL   C308 4102   2.812   7.560   2.580  0.0398  0.2493 -0.2759
    8MOL   C309 4103   2.786   7.784   2.684  0.9280 -0.2239 -0.4048
    8MOL   H310 4104   2.988   7.425   1.948  0.0243  0.8171 -0.2993
    8MOL   H311 4105   3.166   7.386   1.964  0.7523  0.3966 -2.7697
    8MOL   H312 4106   3.118   7.485   1.848  0.6908 -1.0223  0.2807
    8MOL   H313 4107   3.036   7.659   2.029  0.5604  0.1301 -1.5126
    8MOL   H314 4108   3.198   7.624   2.012 -0.1828 -1.1730 -2.7351
    8MOL   H315 4109   3.199   7.459   2.213  0.8758  0.1884  0.0266
    8MOL   H316 4110   3.028   7.493   2.227  0.5127 -0.3382 -0.0958
    8MOL   H317 4111   3.094   7.746   2.246 -0.0512 -0.5105 -1.9092
    8MOL   H318 4112   3.255   7.710   2.236 -1.0347  1.7259 -0.8103
    8MOL   H319 4113   3.278   7.571   2.434  1.1377  0.4529 -3.3260
    8MOL   H320 4114   3.243   7.736   2.462 -1.1016 -0.0824 -0.3013
    8MOL   H321 4115   2.870   7.469   2.564  0.5433  0.3649  0.8614
    8MOL   H322 4116   2.712   7.538   2.618 -0.3329  0.0996 -1.3382
    8MOL   H323 4117   2.783   7.578   2.477  3.5942 -1.1610 -1.5951
    8MOL   H324 4118   2.775   0.014   2.585 -0.2079  2.4567  0.8749
    8MOL   H325 4119   2.845   0.040   2.743  1.2026  0.0177 -0.9655
    8MOL   C326 4120   1.942   7.765   2.281 -0.1436  0.3451 -0.4000
    8MOL   C327 4121   2.048   7.765   2.387 -0.0061  0.5460 -0.6732
    8MOL   C328 4122   2.189   7.802   2.344  0.9100  0.1883 -0.0925
    8MOL   C329 4123   2.297   0.013   2.457 -0.3631  0.5232  0.2232
    8MOL   C330 4124   2.438   7.777   2.413 -0.9739 -0.0632  0.0106
    8MOL   O331 4125   2.539   7.807   2.515 -0.0985 -0.3580  1.0149
    8MOL   C332 4126   2.541   7.729   2.633  0.5183  0.1185  0.0472
    8MOL   O333 4127   2.466   7.633   2.659  0.2837 -0.2409 -0.4528
    8MOL   C334 4128   2.642   7.781   2.741  0.4186 -0.3966  0.3291
    8MOL   C335 4129   2.626   7.675   2.863 -0.1453 -0.1463  0.6868
    8MOL   C336 4130   2.614   0.122   2.775 -0.2042  0.1133 -0.1319
    8MOL   H337 4131   1.929   0.052   2.242  2.8281  1.1012  0.4292
    8MOL   H338 4132   1.843   7.739   2.318  0.2053 -1.8498 -0.9267
    8MOL   H339 4133   1.962   7.690   2.205 -0.2583 -1.6658  1.5053
    8MOL   H340 4134   2.038   7.669   2.437  0.4732  0.5443 -0.5775
    8MOL   H341 4135   2.018   0.025   2.462 -2.0430 -0.9415  0.0396
    8MOL   H342 4136   2.184   0.066   2.268  1.2595 -0.8800 -1.2304
    8MOL   H343 4137   2.221   7.723   2.276 -1.6211 -1.5070  0.5830
    8MOL   H344 4138   2.258   7.776   2.545 -0.3602 -0.1005 -0.1283
    8MOL   H345 4139   2.312   0.118   2.479 -0.0140  0.1912  1.6478
    8MOL   H346 4140   2.458   0.009   2.316 -0.8656  1.1940  0.6103
    8MOL   H347 4141   2.447   7.671   2.393 -1.4819 -0.1375  0.1703
    8MOL   H348 4142   2.700   7.681   2.942  0.6476 -3.1724  0.2434
    8MOL   H349 4143   2.645   7.574   2.825 -1.0605  0.7028 -2.1123
    8MOL   H350 4144   2.528   7.678   2.912 -0.8305  0.1566 -0.6913
    8MOL   H351 4145   2.629   0.187   2.689  0.3974  1.2535  0.8146
    8MOL   H352 4146   2.702   0.156   2.830  0.2306  0.4908 -1.0621
    8MOL   C353 4147   3.033   0.007   3.490 -0.3858 -0.5266 -0.5283
    8MOL   C354 4148   2.952   0.109   3.406 -0.1833  0.2508 -0.8894
    8MOL   C355 4149   2.830   0.049   3.340 -0.4484 -0.6932  0.4469
    8MOL   C356 4150   2.760   0.142   3.238  0.3313  0.3574 -0.0208
    8MOL   C357 4151   2.638   0.074   3.184 -0.3835  0.2749  0.4012
    8MOL   O358 4152   2.614   0.137   3.067 -0.1589 -0.3979  0.4975
    8MOL   C359 4153   2.496   0.118   3.005  0.2489  1.3064  0.3130
    8MOL   O360 4154   2.402   0.055   3.047 -0.5332  0.0229  0.0106
    8MOL   C361 4155   2.497   0.185   2.866 -0.2437  0.3111  0.1358
    8MOL   C362 4156   2.366   0.156   2.799  0.0747  0.1239  0.2993
    8MOL   C363 4157   2.521   0.338   2.869 -0.6171  0.8960  0.4141
    8MOL   H364 4158   3.131   0.048   3.511  0.1092 -1.5951 -0.6878
    8MOL   H365 4159   3.048   7.733   3.427 -1.7324 -0.8221 -0.4663
    8MOL   H366 4160   2.985   7.790   3.582 -0.5284  0.3665 -0.2990
    8MOL   H367 4161   2.924   0.194   3.469  0.7903 -0.7824  0.9525
    8MOL   H368 4162   3.009   0.139   3.318  0.5583  1.4418 -0.0245
    8MOL   H369 4163   2.768   0.032   3.428 -3.5610 -0.6642 -1.6395
    8MOL   H370 4164   2.863   7.769   3.296  0.4321 -0.4095  0.4813
    8MOL   H371 4165   2.822   0.175   3.155 -0.4260  3.7859  0.7167
    8MOL   H372 4166   2.742   0.236   3.291  1.0620  0.1938  0.5365
    8MOL   H373 4167   2.669   7.785   3.168 -0.8319  0.2667 -0.4257
    8MOL   H374 4168   2.555   0.079   3.254 -2.1731 -3.0823 -1.3820
    8MOL   H375 4169   2.344   0.049   2.791  0.7743 -0.3119  3.3609
    8MOL   H376 4170   2.285   0.188   2.865  0.8710  1.6495  0.5528
    8MOL   H377 4171   2.358   0.208   2.704  1.5334  0.1537  0.1838
    8MOL   H378 4172   2.623   0.355   2.904 -0.9941 -1.2441  2.6509
    8MOL   H379 4173   2.530   0.372   2.765 -0.1374 -0.4197  0.0141
    8MOL   C380 4174   2.354   0.206   3.793  0.9363  1.1047 -0.4588
    8MOL   C381 4175   2.316   0.215   3.646 -0.2865 -0.0221  0.3667
    8MOL   C382 4176   2.423   0.232   3.543  0.1920  0.0556 -0.5815
    8MOL   C383 4177   2.364   0.265   3.403  0.5811  1.1293  0.4427
    8MOL   C384 4178   2.455   0.344   3.312  0.0582  0.7342  0.2559
    8MOL   O385 4179   2.428   0.345   3.175 -0.4860  0.7478 -0.3188
    8MOL   C386 4180   2.485   0.441   3.105 -0.8399  0.1404  0.1201
    8MOL   O387 4181   2.562   0.530   3.154 -0.0712  0.3415 -0.8682
    8MOL   C388 4182   2.438   0.439   2.952  0.1748  0.7022  0.7178
    8MOL   C389 4183   2.476   0.579   2.899  0.1525 -0.4874  0.3949
    8MOL   C390 4184   2.287   0.413   2.940  0.5444 -1.2643 -0.6343
    8MOL   H391 4185   2.401   0.300   3.821  1.7645  0.8480 -0.9573
    8MOL   H392 4186   2.265   0.213   3.855 -0.0677 -0.6399 -1.6526
    8MOL   H393 4187   2.418   0.123   3.824 -0.5023 -0.6586 -2.0914
    8MOL   H394 4188   2.229   0.276   3.622  1.0213  1.0283 -1.9257
    8MOL   H395 4189   2.279   0.121   3.606 -0.3296 -0.4529  1.4111
    8MOL   H396 4190   2.488   0.314   3.572  0.0323 -0.1753  0.4261
    8MOL   H397 4191   2.487   0.144   3.537  2.2696  1.4635  0.2954
    8MOL   H398 4192   2.329   0.171   3.361  0.1461  1.4995 -0.0219
    8MOL   H399 4193   2.284   0.336   3.422 -0.6240 -0.4200  1.3388
    8MOL   H400 4194   2.558   0.308   3.316  0.1832  0.6198 -2.5784
    8MOL   H401 4195   2.464   0.444   3.354 -0.2671  0.1546  1.7191
    8MOL   H402 4196   2.582   0.600   2.916  0.1105 -0.5977  0.8051
    8MOL   H403 4197   2.430   0.654   2.963  1.8984  0.6214  0.3755
    8MOL   H404 4198   2.436   0.614   2.804  0.8805 -0.4131  0.1121
    8MOL   H405 4199   2.256   0.325   2.997  0.6090 -0.8619  0.0303
    8MOL   H406 4200   2.281   0.392   2.833 -2.2784  0.0672 -0.7885
    8MOL   C407 4201   2.004   0.452   2.300 -0.3786 -0.4255 -0.1942
    8MOL   C408 4202   1.929   0.570   2.375  0.2200 -0.0210  0.6381
    8MOL   C409 4203   1.985   0.592   2.513  0.4674  0.3399  0.6752
    8MOL   C410 4204   2.132   0.625   2.519 -0.7345  0.3632  0.3121
    8MOL   C411 4205   2.163   0.700   2.650 -0.3350  1.1652 -0.4817
    8MOL   O412 4206   2.158   0.606   2.753  0.7445  0.1366  0.6164
    8MOL   C413 4207   2.178   0.643   2.875 -0.0897  0.0476  0.0592
    8MOL   O414 4208   2.200   0.760   2.906 -0.5343  0.0943 -0.2407
    8MOL   C415 4209   2.167   0.520   2.970  0.1510 -0.2966 -0.2580
    8MOL   C416 4210   2.033   0.455   2.931  0.4404 -0.0012 -0.8546
    8MOL   C417 4211   2.173   0.560   3.124  0.4370 -0.6110 -0.1446
    8MOL   H418 4212   1.973   0.349   2.319 -0.8025 -0.3006 -0.2009
    8MOL   H419 4213   1.985   0.484   2.198  2.0824 -0.6168 -0.7317
    8MOL   H420 4214   2.111   0.449   2.318 -0.3520 -2.8489 -0.5975
    8MOL   H421 4215   1.823   0.548   2.374  0.4309 -1.0408 -0.1153
    8MOL   H422 4216   1.945   0.658   2.312 -2.8141 -0.8817 -1.4209
    8MOL   H423 4217   1.926   0.670   2.561 -1.5020 -2.2416  2.5920
    8MOL   H424 4218   1.974   0.505   2.578  2.6879 -1.7350 -1.5957
    8MOL   H425 4219   2.160   0.677   2.427 -0.6775 -1.5233 -0.7796
    8MOL   H426 4220   2.192   0.534   2.517 -0.0890  0.8052 -0.7153
    8MOL   H427 4221   2.264   0.739   2.644  0.0826  0.3424  0.9575
    8MOL   H428 4222   2.100   0.787   2.669 -1.9082  0.0145 -0.3558
    8MOL   H429 4223   2.046   0.400   2.838  1.4857 -0.6583 -0.3232
    8MOL   H430 4224   1.946   0.521   2.927  0.9730  0.7519 -0.0515
    8MOL   H431 4225   1.993   0.380   2.999  1.6821 -0.0328 -0.1548
    8MOL   H432 4226   2.254   0.631   3.142  1.3542 -1.4443 -0.8706
    8MOL   H433 4227   2.211   0.469   3.170 -0.2821 -0.9126 -0.1403
    8MOL   C434 4228   1.906   7.702   3.667  0.0936 -0.1361 -0.1805
    8MOL   C435 4229   1.993   7.796   3.591 -0.4645  0.8929  0.3334
    8MOL   C436 4230   1.915   0.084   3.501  0.2540  0.3384  0.6283
    8MOL   C437 4231   2.009   0.173   3.408 -0.3813 -0.1050 -0.6030
    8MOL   C438 4232   1.938   0.268   3.311  0.4843 -0.1444 -0.4531
    8MOL   O439 4233   2.015   0.376   3.279 -0.2272  0.1427 -0.4262
    8MOL   C440 4234   1.952   0.483   3.238 -0.0254 -0.7616  0.8309
    8MOL   O441 4235   1.828   0.497   3.234  0.1483  0.3438  0.6842
    8MOL   C442 4236   2.047   0.601   3.211  0.2458  0.3916 -0.1487
    8MOL   C443 4237   1.971   0.720   3.130 -0.7714 -0.3958 -0.0510
    8MOL   C444 4238   2.117   0.665   3.341  0.2033  0.1465  0.2410
    8MOL   H445 4239   1.832   7.673   3.592  1.8527 -1.2428 -1.5400
    8MOL   H446 4240   1.954   7.610   3.702 -1.4037 -0.7281  0.3596
    8MOL   H447 4241   1.859   7.749   3.752 -1.5075 -2.4868  0.3012
    8MOL   H448 4242   2.062   0.039   3.652  0.1028  0.6897 -0.1123
    8MOL   H449 4243   2.065   7.731   3.540 -0.2522  1.8944 -0.6735
    8MOL   H450 4244   1.843   0.033   3.436  3.4593 -1.7827 -1.3927
    8MOL   H451 4245   1.844   0.138   3.564  0.5082 -0.7714  1.8904
    8MOL   H452 4246   2.068   0.110   3.342  2.9922  3.0711 -0.7704
    8MOL   H453 4247   2.074   0.233   3.472 -2.6342  0.6829  1.0281
    8MOL   H454 4248   1.848   0.293   3.367  0.0981 -0.6513 -0.8417
    8MOL   H455 4249   1.897   0.208   3.230 -2.6816 -0.3996  1.2755
    8MOL   H456 4250   1.949   0.698   3.026 -0.5140  0.0175 -0.1973
    8MOL   H457 4251   1.876   0.738   3.179 -1.1192 -4.3244  0.8564
    8MOL   H458 4252   2.039   0.806   3.123  1.0806 -1.5756  2.4529
    8MOL   H459 4253   2.175   0.749   3.305 -1.8099  2.2124  1.6861
    8MOL   H460 4254   2.195   0.597   3.374  1.5429  1.2733 -0.5815
    8MOL   C461 4255   1.431   0.188   3.570 -0.2246  0.6965 -0.2717
    8MOL   C462 4256   1.522   0.301   3.541 -0.0995 -0.1100  0.0493
    8MOL   C463 4257   1.619   0.349   3.655  0.1050  0.4107 -0.4715
    8MOL   C464 4258   1.708   0.472   3.615  0.2302  0.2103  0.4203
    8MOL   C465 4259   1.821   0.514   3.712  0.8223  0.0305  0.4866
    8MOL   O466 4260   1.895   0.622   3.650  0.7993  0.0581  0.3442
    8MOL   C467 4261   1.992   0.594   3.555  0.5169  0.0627  0.2793
    8MOL   O468 4262   2.037   0.487   3.526  0.4331  0.2384 -0.3298
    8MOL   C469 4263   2.043   0.714   3.473 -0.0820  0.6640  0.3055
    8MOL   C470 4264   1.916   0.791   3.427  0.9572 -0.2053 -0.5294
    8MOL   C471 4265   2.129   0.800   3.566 -0.4995 -0.4341 -0.2699
    8MOL   H472 4266   1.390   0.160   3.473  0.6183  0.2579 -0.5105
    8MOL   H473 4267   1.340   0.219   3.621 -0.3635  0.9297 -0.6619
    8MOL   H474 4268   1.483   0.100   3.608 -0.6164 -0.5021 -2.4215
    8MOL   H475 4269   1.461   0.385   3.509  1.3070  1.3953  1.1983
    8MOL   H476 4270   1.579   0.287   3.449  1.0901 -0.3824  0.8105
    8MOL   H477 4271   1.679   0.266   3.691  0.0974  0.1868 -0.9806
    8MOL   H478 4272   1.559   0.367   3.745 -4.8992 -3.7485 -2.7156
    8MOL   H479 4273   1.640   0.552   3.587 -0.7922 -1.0895 -0.8364
    8MOL   H480 4274   1.754   0.446   3.520 -1.6537  1.7155 -0.9399
    8MOL   H481 4275   1.773   0.547   3.804  0.7897  0.9818  0.1289
    8MOL   H482 4276   1.896   0.437   3.732  1.7891  1.5443  2.8152
    8MOL   H483 4277   1.878   0.841   3.516  1.6602  0.0410 -0.3617
    8MOL   H484 4278   1.829   0.730   3.404  0.4010 -0.0067  0.9721
    8MOL   H485 4279   1.931   0.871   3.356  2.3172  0.1700  0.1656
    8MOL   H486 4280   2.075   0.825   3.657  1.8374  3.8000  0.0891
    8MOL   H487 4281   2.123   0.897   3.517 -0.6906 -0.2706  0.0822
    8MOL   C488 4282   2.747   0.978   2.913  0.3236 -0.4581  1.0417
    8MOL   C489 4283   2.700   1.026   3.052 -0.2827  0.4489 -0.1482
    8MOL   C490 4284   2.627   0.905   3.119 -0.2191 -0.3884  0.6693
    8MOL   C491 4285   2.558   0.940   3.259  0.1621  0.0260  0.4519
    8MOL   C492 4286   2.436   0.856   3.274 -0.0763  0.4470  0.5453
    8MOL   O493 4287   2.378   0.867   3.405 -0.2403 -0.5281 -0.2368
    8MOL   C494 4288   2.372   0.758   3.487 -0.7078 -0.2314  0.8930
    8MOL   O495 4289   2.415   0.644   3.465 -0.0552 -0.4410 -0.2999
    8MOL   C496 4290   2.275   0.781   3.613  0.0219 -0.1741  0.5092
    8MOL   C497 4291   2.268   0.653   3.707  0.0661  0.3287  0.2708
    8MOL   C498 4292   2.306   0.897   3.700  0.3384  0.0347  0.0635
    8MOL   H499 4293   2.802   0.884   2.914 -0.8117 -1.1630 -0.0960
    8MOL   H500 4294   2.654   0.959   2.858 -0.3885  0.0314  2.0800
    8MOL   H501 4295   2.810   1.051   2.862  0.4334 -1.1925  0.0961
    8MOL   H502 4296   2.632   1.110   3.036  0.6671  1.6608  1.9549
    8MOL   H503 4297   2.782   1.064   3.113 -0.5308 -1.9834  1.7655
    8MOL   H504 4298   2.554   0.854   3.056  0.5760 -2.3287  1.2807
    8MOL   H505 4299   2.704   0.832   3.142  1.8710  2.4274  2.8925
    8MOL   H506 4300   2.533   1.046   3.265  0.2100  0.0726 -0.1642
    8MOL   H507 4301   2.626   0.925   3.343  0.7147  0.3043  0.0546
    8MOL   H508 4302   2.364   0.889   3.200 -0.5107 -2.1164 -0.2364
    8MOL   H509 4303   2.473   0.755   3.255  1.4761  1.1658 -0.3099
    8MOL   H510 4304   2.371   0.623   3.726 -0.5569 -1.7885  0.3666
    8MOL   H511 4305   2.230   0.566   3.654 -0.5576  1.1570 -0.6607
    8MOL   H512 4306   2.199   0.672   3.789 -0.0021 -1.2464  0.5958
    8MOL   H513 4307   2.256   0.878   3.795 -0.0321  0.0062 -0.1375
    8MOL   H514 4308   2.258   0.986   3.658 -2.0169 -0.2017  2.1652
    8MOL   C515 4309   2.596   1.720   3.523  0.1077  0.7046 -0.3064
    8MOL   C516 4310   2.551   1.596   3.598 -0.0075 -0.2995 -0.4860
    8MOL   C517 4311   2.552   1.474   3.506  0.5229  0.1482  0.7841
    8MOL   C518 4312   2.516   1.354   3.589 -0.6520  0.3348  0.2576
    8MOL   C519 4313   2.500   1.226   3.506  0.3000 -0.1071 -0.9061
    8MOL   O520 4314   2.442   1.130   3.587  0.2702 -0.0027 -0.2456
    8MOL   C521 4315   2.520   1.026   3.632 -0.3151 -0.7529 -0.1887
    8MOL   O522 4316   2.638   1.017   3.606 -0.3113 -0.2704 -0.5908
    8MOL   C523 4317   2.450   0.941   3.741  0.7921 -0.3822  0.2869
    8MOL   C524 4318   2.536   0.824   3.788  0.5609  0.3787 -0.7121
    8MOL   C525 4319   2.444   1.041   3.859  0.4867  0.3463 -0.0513
    8MOL   H526 4320   2.588   1.812   3.582 -1.3138  0.8655 -0.7315
    8MOL   H527 4321   2.699   1.710   3.488 -0.1151 -1.4365 -0.4169
    8MOL   H528 4322   2.533   1.729   3.435 -0.4824  3.1442  0.3258
    8MOL   H529 4323   2.612   1.582   3.687 -0.6073  1.2502  0.1860
    8MOL   H530 4324   2.449   1.601   3.635  0.8589 -0.6548  2.0238
    8MOL   H531 4325   2.474   1.483   3.431 -1.1682  1.9272  2.7050
    8MOL   H532 4326   2.651   1.459   3.463 -0.6622 -0.2797 -1.8685
    8MOL   H533 4327   2.415   1.370   3.628 -0.8598 -0.4014  0.0246
    8MOL   H534 4328   2.589   1.347   3.669  0.3466 -1.1835 -0.7783
    8MOL   H535 4329   2.431   1.228   3.422 -1.7204  0.4816  0.7118
    8MOL   H536 4330   2.590   1.184   3.461  1.3761  2.6916 -1.4728
    8MOL   H537 4331   2.565   0.750   3.714 -0.5564  0.1340 -0.9201
    8MOL   H538 4332   2.490   0.775   3.874 -1.3642  0.8186 -1.4623
    8MOL   H539 4333   2.632   0.869   3.813  0.5582  0.4439 -0.8200
    8MOL   H540 4334   2.398   1.001   3.950 -1.0149 -0.8859 -1.3031
    8MOL   H541 4335   2.370   1.114   3.829  0.9184  0.0227 -1.9616
    8MOL   H542 4336   2.527   1.108   3.879  0.5690  0.1557  0.2506
    9MOL     C1 4337   3.299   5.473   3.089 -0.0352  0.1266 -0.7485
    9MOL     C2 4338   3.160   5.460   3.143 -0.6235 -0.5130  0.0467
    9MOL     C3 4339   3.097   5.593   3.195 -0.0018 -0.2744  0.8328
    9MOL     C4 4340   2.948   5.562   3.229 -0.8980  0.5737 -0.6479
    9MOL     C5 4341   2.869   5.686   3.260  0.3163 -0.1387 -1.2809
    9MOL     O6 4342   2.835   5.757   3.146  0.0439 -0.2231 -0.3433
    9MOL     C7 4343   2.725   5.838   3.147  0.1857 -0.5386 -0.2607
    9MOL     O8 4344   2.657   5.861   3.248  0.6110  1.0648 -0.5373
    9MOL     C9 4345   2.701   5.904   3.015  0.2047 -0.2360  0.1085
    9MOL    C10 4346   2.652   5.809   2.905 -0.3443  0.0815 -0.4176
    9MOL    C11 4347   2.822   5.990   2.967 -0.1862 -0.6028 -0.0238
    9MOL    H12 4348   3.368   5.496   3.170 -0.6538 -0.5584 -0.0119
    9MOL    H13 4349   3.303   5.543   3.006 -0.0727 -0.8088 -1.5544
    9MOL    H14 4350   3.326   5.374   3.051  0.0800 -0.9598  2.0845
    9MOL    H15 4351   3.092   5.414   3.071  1.5838 -0.4167 -2.1393
    9MOL    H16 4352   3.172   5.389   3.225 -0.7658 -0.5010  0.0778
    9MOL    H17 4353   3.138   5.637   3.286 -2.1451 -0.4472  1.9357
    9MOL    H18 4354   3.092   5.666   3.115  1.7915 -1.0359  0.0073
    9MOL    H19 4355   2.936   5.490   3.311 -1.1284  2.0746  0.6670
    9MOL    H20 4356   2.899   5.507   3.149 -0.5580 -2.3995  1.0877
    9MOL    H21 4357   2.782   5.638   3.304  1.5870 -1.7571 -0.4269
    9MOL    H22 4358   2.913   5.758   3.330  1.7830 -0.4031 -1.9089
    9MOL    H23 4359   2.738   5.783   2.843  0.4311 -3.1616  1.8820
    9MOL    H24 4360   2.574   5.861   2.849 -2.0831  0.9155  2.6432
    9MOL    H25 4361   2.604   5.723   2.952  0.2719 -0.1540 -0.2161
    9MOL    H26 4362   2.792   6.026   2.869  1.0228 -0.6229 -0.4054
    9MOL    H27 4363   2.900   5.918   2.944 -1.9325 -2.5142 -0.0604
    9MOL    H28 4364   2.619   5.971   3.041  0.0130 -0.0964 -0.8500
    9MOL    C29 4365   2.283   5.966   3.459 -0.4788  0.0259  0.0062
    9MOL    C30 4366   2.313   6.025   3.330 -0.2506 -0.0035  0.9703
    9MOL    C31 4367   2.429   6.127   3.332  0.2528  0.3933 -0.7067
    9MOL    C32 4368   2.449   6.192   3.199 -0.2071 -0.4053 -0.0923
    9MOL    C33 4369   2.577   6.279   3.198 -0.2798  0.3743  0.2376
    9MOL    O34 4370   2.694   6.198   3.184 -0.2323 -0.1499  0.3852
    9MOL    C35 4371   2.776   6.226   3.072 -0.1238  0.3235 -1.7122
    9MOL    O36 4372   2.762   6.315   2.995 -0.5377  0.0447 -0.3491
    9MOL    C37 4373   2.882   6.114   3.052  0.8153 -0.0583 -0.5781
    9MOL    C38 4374   2.985   6.162   2.947 -0.2812  0.0136  0.2814
    9MOL    C39 4375   2.937   6.062   3.191  0.0918  0.4288  0.5063
    9MOL    H40 4376   2.240   6.041   3.525 -2.0164 -0.7388 -0.1212
    9MOL    H41 4377   2.215   5.881   3.450 -1.0328  0.2108  2.1375
    9MOL    H42 4378   2.371   5.935   3.516 -1.7034 -0.3458  1.7304
    9MOL    H43 4379   2.217   6.065   3.295 -0.6444 -0.8619  1.0482
    9MOL    H44 4380   2.341   5.943   3.264  0.9361  1.2436 -0.0956
    9MOL    H45 4381   2.525   6.089   3.367  0.4268 -0.0566 -1.6530
    9MOL    H46 4382   2.401   6.203   3.405  0.3347 -2.3210  2.2540
    9MOL    H47 4383   2.433   6.129   3.112 -0.1178 -1.3666  0.5777
    9MOL    H48 4384   2.366   6.261   3.186  0.7568  0.5547 -1.2463
    9MOL    H49 4385   2.588   6.342   3.287 -2.5118  0.3768  0.5422
    9MOL    H50 4386   2.558   6.347   3.115 -0.5155 -0.9337 -0.7979
    9MOL    H51 4387   2.926   6.192   2.860  0.9993 -1.1898 -1.0273
    9MOL    H52 4388   3.056   6.089   2.909  2.2255  0.9320  2.9824
    9MOL    H53 4389   3.042   6.250   2.977 -1.4887  1.4686 -1.5314
    9MOL    H54 4390   2.960   5.956   3.182  1.0938  0.5172  1.7346
    9MOL    H55 4391   2.859   6.046   3.265 -0.1048 -2.2987 -0.2266
    9MOL    C56 4392   3.432   5.733   3.601 -0.3093 -0.0948  0.0820
    9MOL    C57 4393   3.413   5.748   3.449 -0.6839 -0.0577  0.2209
    9MOL    C58 4394   3.450   5.892   3.412  0.0725 -0.1847 -0.2894
    9MOL    C59 4395   3.465   5.925   3.262  0.1805 -0.2909 -0.0212
    9MOL    C60 4396   3.341   5.895   3.173 -0.1377 -0.0277 -0.6051
    9MOL    O61 4397   3.232   5.968   3.232  0.6430 -0.0596 -0.3374
    9MOL    C62 4398   3.190   6.085   3.185  0.6120  0.2742 -0.1335
    9MOL    O63 4399   3.246   6.142   3.096 -0.0126 -0.3869  0.0613
    9MOL    C64 4400   3.057   6.135   3.256  0.6549 -0.0746  0.1284
    9MOL    C65 4401   3.053   6.069   3.400  0.2087  0.2246 -0.1700
    9MOL    C66 4402   3.040   6.291   3.266 -0.4540  0.3776 -0.4021
    9MOL    H67 4403   3.406   5.631   3.628  0.8045 -0.3831  0.0750
    9MOL    H68 4404   3.365   5.798   3.658  0.0606  2.1464 -1.9586
    9MOL    H69 4405   3.535   5.745   3.634 -0.7225  0.8098  1.0862
    9MOL    H70 4406   3.491   5.687   3.403  1.3941  2.5937  0.0971
    9MOL    H71 4407   3.311   5.721   3.418 -0.3667 -0.8837 -0.1341
    9MOL    H72 4408   3.365   5.943   3.458  0.6113 -0.0053  0.5204
    9MOL    H73 4409   3.532   5.928   3.474  0.7117 -1.6020 -0.3074
    9MOL    H74 4410   3.554   5.875   3.223  0.5624 -0.9274  1.6351
    9MOL    H75 4411   3.483   6.031   3.245  0.7667 -0.7720 -2.7132
    9MOL    H76 4412   3.361   5.936   3.074 -1.7738  0.3678 -0.7956
    9MOL    H77 4413   3.312   5.790   3.177 -0.1551 -0.0622 -1.6569
    9MOL    H78 4414   3.143   6.081   3.460  1.7763 -1.3990 -2.1425
    9MOL    H79 4415   3.035   5.962   3.394 -4.0537  0.6476  2.5839
    9MOL    H80 4416   2.965   6.106   3.453  0.7296  1.6479 -0.2863
    9MOL    H81 4417   2.943   6.309   3.311 -1.8210 -0.2106 -3.0264
    9MOL    H82 4418   3.017   6.330   3.167 -0.5089  0.0943 -0.5037
    9MOL    C83 4419   3.169   5.960   4.064  0.5634  0.1041 -0.5297
    9MOL    C84 4420   3.193   6.001   3.921 -0.3755 -0.2377  0.2574
    9MOL    C85 4421   3.116   6.125   3.866  0.2609  0.2641  0.0516
    9MOL    C86 4422   3.123   6.149   3.718 -1.0223  0.2919  0.2192
    9MOL    C87 4423   3.130   6.299   3.694 -0.3791 -0.3998 -0.7796
    9MOL    O88 4424   3.096   6.345   3.564  0.2791 -0.4255 -0.0508
    9MOL    C89 4425   3.193   6.339   3.471  0.4365  0.7701  0.0439
    9MOL    O90 4426   3.309   6.302   3.492  0.2172  0.5324  0.0776
    9MOL    C91 4427   3.146   6.392   3.334 -0.1810 -0.0547  0.4899
    9MOL    C92 4428   3.267   6.400   3.240  0.0557 -0.4830  0.2490
    9MOL    C93 4429   3.069   6.533   3.328  0.3086  0.3672 -1.1453
    9MOL    H94 4430   3.203   6.043   4.126  1.0085  0.4988 -1.3011
    9MOL    H95 4431   3.061   5.956   4.075  0.5841  1.3208  0.1719
    9MOL    H96 4432   3.211   5.862   4.084  0.8118  0.6140  1.6161
    9MOL    H97 4433   3.163   5.916   3.859 -3.2308  1.4418 -0.7801
    9MOL    H98 4434   3.299   6.004   3.900 -0.5241 -1.4851 -0.7437
    9MOL    H99 4435   3.156   6.204   3.930  0.1294 -0.9404  1.6614
    9MOL   H100 4436   3.013   6.132   3.900  0.0819 -2.1542  0.1418
    9MOL   H101 4437   3.025   6.118   3.681 -1.5371 -0.7058  2.3756
    9MOL   H102 4438   3.204   6.087   3.678 -0.9910 -0.3140  1.2073
    9MOL   H103 4439   3.229   6.338   3.716 -1.1831  1.0704  0.3715
    9MOL   H104 4440   3.055   6.339   3.763 -1.8669 -1.7419 -1.5945
    9MOL   H105 4441   3.325   6.308   3.240 -0.6461 -0.9508 -1.3087
    9MOL   H106 4442   3.340   6.475   3.270 -0.8493  0.6630 -0.3312
    9MOL   H107 4443   3.244   6.431   3.138 -1.0130 -0.0650  0.6084
    9MOL   H108 4444   3.024   6.546   3.229  2.3348 -0.4544 -2.1994
    9MOL   H109 4445   2.972   6.529   3.377  0.4985 -0.7773 -0.8501
    9MOL   C110 4446   3.269   7.116   2.815 -0.1688 -0.5349  0.3094
    9MOL   C111 4447   3.408   7.058   2.857 -0.8870 -0.1570  0.8993
    9MOL   C112 4448   3.390   6.906   2.894 -0.3568 -0.0471  0.9116
    9MOL   C113 4449   3.291   6.889   3.009 -0.1806  1.3247  0.1780
    9MOL   C114 4450   3.281   6.744   3.049  0.5010  0.1551  0.2738
    9MOL   O115 4451   3.184   6.728   3.151  0.8276 -0.2036  0.3605
    9MOL   C116 4452   3.224   6.715   3.280  0.2241 -0.2307  0.6441
    9MOL   O117 4453   3.344   6.729   3.318  0.1296  0.0429  0.0975
    9MOL   C118 4454   3.121   6.674   3.375 -1.0872  0.0429 -0.0312
    9MOL   C119 4455   3.189   6.650   3.514  0.2648 -0.3433 -0.4601
    9MOL   C120 4456   2.996   6.772   3.384  0.5453 -0.5899 -0.0448
    9MOL   H121 4457   3.214   7.050   2.748 -0.6598  0.3042 -0.1164
    9MOL   H122 4458   3.209   7.131   2.905  1.9299 -0.8430  1.8019
    9MOL   H123 4459   3.274   7.219   2.780 -1.2512 -0.2270  1.0344
    9MOL   H124 4460   3.478   7.078   2.776 -0.2143  0.6208  1.6619
    9MOL   H125 4461   3.442   7.107   2.948 -0.7998 -2.2463  2.0206
    9MOL   H126 4462   3.349   6.851   2.808  0.4837 -3.3017  2.4951
    9MOL   H127 4463   3.485   6.860   2.918 -0.0876  0.3680  0.6507
    9MOL   H128 4464   3.191   6.927   2.989  0.0241 -0.1004 -3.9865
    9MOL   H129 4465   3.335   6.949   3.089  3.1392  1.2716 -1.5165
    9MOL   H130 4466   3.252   6.684   2.963 -1.2441 -1.8163  2.1546
    9MOL   H131 4467   3.381   6.710   3.077  0.2757 -1.2531 -0.5858
    9MOL   H132 4468   3.286   6.601   3.516 -0.8100 -2.4923 -0.0373
    9MOL   H133 4469   3.219   6.741   3.566 -1.3053  0.9196 -1.6836
    9MOL   H134 4470   3.119   6.606   3.585 -0.4444 -0.0375 -0.9538
    9MOL   H135 4471   2.944   6.748   3.291 -0.8088 -0.9865  0.8050
    9MOL   H136 4472   2.926   6.735   3.458 -0.7737 -0.8318 -1.3979
    9MOL   C137 4473   3.099   7.534   3.758 -0.6130  0.0540  0.0333
    9MOL   C138 4474   3.227   7.461   3.715 -0.0396 -0.6385  0.4317
    9MOL   C139 4475   3.190   7.342   3.630  0.0549 -0.0628  0.0400
    9MOL   C140 4476   3.302   7.249   3.575 -0.1740 -0.5932  0.4026
    9MOL   C141 4477   3.280   7.103   3.580  0.2499 -0.0553  0.2913
    9MOL   O142 4478   3.175   7.061   3.495 -0.4624 -0.7202  0.3354
    9MOL   C143 4479   3.086   6.969   3.522 -0.2408  0.0887 -0.9469
    9MOL   O144 4480   3.064   6.922   3.635  0.0471  0.2601 -0.1989
    9MOL   C145 4481   3.002   6.925   3.400  0.7327  0.1626  0.6124
    9MOL   C146 4482   3.050   6.989   3.263 -0.4143  0.7438 -0.7383
    9MOL   C147 4483   2.846   6.963   3.431 -0.5607 -0.1414  0.0371
    9MOL   H148 4484   3.126   7.618   3.822 -2.2712  0.5407  0.1100
    9MOL   H149 4485   3.030   7.467   3.809 -0.2636 -0.4467 -0.1415
    9MOL   H150 4486   3.055   7.576   3.667 -1.5373  0.5684  0.7093
    9MOL   H151 4487   3.275   7.442   3.811  2.5538  1.8693 -0.2759
    9MOL   H152 4488   3.289   7.531   3.658 -0.3775 -2.2495 -1.9813
    9MOL   H153 4489   3.125   7.275   3.687 -1.6468  1.7231  0.2320
    9MOL   H154 4490   3.139   7.375   3.540  2.4313  1.2182 -0.8967
    9MOL   H155 4491   3.327   7.277   3.473  0.4887 -0.1232  0.6828
    9MOL   H156 4492   3.399   7.277   3.617 -0.4802  2.1019 -0.5659
    9MOL   H157 4493   3.274   7.062   3.681  1.4758  0.4174  0.5708
    9MOL   H158 4494   3.374   7.065   3.541  0.0129 -0.6838  0.3260
    9MOL   H159 4495   3.157   6.979   3.247 -0.3697  0.3148 -0.1662
    9MOL   H160 4496   3.027   7.095   3.271  1.6551  1.0913  0.8751
    9MOL   H161 4497   3.002   6.948   3.173 -2.9888  1.1447  0.4076
    9MOL   H162 4498   2.787   6.897   3.368 -1.7994  0.3088  0.7191
    9MOL   H163 4499   2.836   6.936   3.536 -0.0239  1.6444  0.5734
    9MOL   C164 4500   2.369   7.632   3.488  0.1402 -0.2977  0.1247
    9MOL   C165 4501   2.428   7.627   3.342  0.2918 -0.2534 -0.5510
    9MOL   C166 4502   2.497   7.488   3.315  0.5936 -0.6978  0.1660
    9MOL   C167 4503   2.601   7.489   3.200  0.8432  0.1279  0.9172
    9MOL   C168 4504   2.656   7.353   3.163  0.5693 -0.2093 -0.2489
    9MOL   O169 4505   2.706   7.283   3.280  0.5623 -0.1031  0.3656
    9MOL   C170 4506   2.755   7.161   3.272  0.4510  0.4823 -0.6416
    9MOL   O171 4507   2.784   7.101   3.171 -0.4972  0.3954 -0.1712
    9MOL   C172 4508   2.773   7.105   3.421 -0.0217  0.1197  0.1986
    9MOL   C173 4509   2.864   7.213   3.497 -0.0844  0.0267 -0.0080
    9MOL   C174 4510   2.631   7.104   3.505  0.0042  0.4961 -0.3884
    9MOL   H175 4511   2.441   7.587   3.557  0.8843  2.2017  1.0320
    9MOL   H176 4512   2.269   7.590   3.505 -0.6853  1.9103  0.9007
    9MOL   H177 4513   2.352   7.733   3.523 -1.1505  0.6155 -2.9683
    9MOL   H178 4514   2.502   7.707   3.342 -0.1579  0.1783  0.3919
    9MOL   H179 4515   2.343   7.645   3.276 -0.4901 -2.4770 -0.1829
    9MOL   H180 4516   2.556   7.454   3.400  0.2623 -2.6327 -0.3543
    9MOL   H181 4517   2.423   7.414   3.286 -1.9613  1.6089  0.6007
    9MOL   H182 4518   2.684   7.553   3.229  1.8091 -1.5796  1.9974
    9MOL   H183 4519   2.549   7.545   3.122  0.0834 -0.4774  0.9805
    9MOL   H184 4520   2.741   7.363   3.096  0.8114 -0.7398 -0.0172
    9MOL   H185 4521   2.579   7.283   3.129  1.6446 -1.2745 -0.4923
    9MOL   H186 4522   2.828   7.316   3.485  0.9112  0.5495  1.3575
    9MOL   H187 4523   2.957   7.228   3.441 -0.7988 -1.2177 -1.5620
    9MOL   H188 4524   2.905   7.195   3.596 -0.4169  2.3547  0.5926
    9MOL   H189 4525   2.650   7.089   3.612 -2.2261  3.3870  0.4786
    9MOL   H190 4526   2.590   7.203   3.487 -0.7365 -0.5460 -5.0235
    9MOL   C191 4527   2.696   6.227   3.620 -0.5663  0.2894 -1.1212
    9MOL   C192 4528   2.704   6.365   3.561  0.2367  0.5125  0.1338
    9MOL   C193 4529   2.698   6.463   3.672  0.1159 -0.0970 -0.1971
    9MOL   C194 4530   2.712   6.608   3.611 -0.0886  0.8428 -0.2590
    9MOL   C195 4531   2.628   6.724   3.686  0.6114 -0.2753 -0.4066
    9MOL   O196 4532   2.619   6.841   3.605 -0.5025  0.0821  0.6111
    9MOL   C197 4533   2.521   6.860   3.511  0.2715  0.3421 -0.6168
    9MOL   O198 4534   2.452   6.765   3.477  0.1842 -0.2890  0.2685
    9MOL   C199 4535   2.505   7.007   3.461  0.2496 -0.0437  0.6274
    9MOL   C200 4536   2.495   6.989   3.300 -0.4789  0.2124  0.2888
    9MOL   C201 4537   2.362   7.059   3.506  0.4976 -0.5258 -0.3001
    9MOL   H202 4538   2.598   6.220   3.667  0.0343  0.6868  0.2034
    9MOL   H203 4539   2.686   6.156   3.537 -1.4709  0.4953 -1.1956
    9MOL   H204 4540   2.786   6.204   3.676 -3.0870  0.8318  3.3691
    9MOL   H205 4541   2.614   6.386   3.503 -0.8368 -2.5335  0.6031
    9MOL   H206 4542   2.784   6.387   3.491  1.5491  1.8229  2.0035
    9MOL   H207 4543   2.778   6.450   3.745 -0.2483 -0.4783  0.1400
    9MOL   H208 4544   2.604   6.461   3.727 -0.6079  2.3271 -1.2596
    9MOL   H209 4545   2.818   6.622   3.590  0.1562 -0.1909  0.2474
    9MOL   H210 4546   2.666   6.596   3.513  2.4176 -0.7241 -1.3015
    9MOL   H211 4547   2.530   6.685   3.714  1.1495 -1.2427  0.1730
    9MOL   H212 4548   2.682   6.746   3.778  1.7357  1.3772 -1.4312
    9MOL   H213 4549   2.493   7.088   3.254  1.3378 -1.5795 -3.9414
    9MOL   H214 4550   2.410   6.936   3.258  0.4945 -0.5779 -0.7171
    9MOL   H215 4551   2.579   6.924   3.276  1.4132  2.3914  0.7319
    9MOL   H216 4552   2.290   6.980   3.488  1.6178 -1.7016  0.2856
    9MOL   H217 4553   2.332   7.127   3.426 -0.7308 -0.2716  0.3599
    9MOL   C218 4554   2.060   0.021   4.039  0.4313  0.7404  0.1794
    9MOL   C219 4555   2.096   7.685   4.034 -0.3201 -0.3968  0.6412
    9MOL   C220 4556   2.212   7.654   3.942  0.6219 -0.4037  0.2025
    9MOL   C221 4557   2.241   7.502   3.927 -0.3758  0.0632  0.0605
    9MOL   C222 4558   2.321   7.461   3.803  0.1300  0.8940 -0.6952
    9MOL   O223 4559   2.305   7.321   3.779  0.9185  0.0188  0.0833
    9MOL   C224 4560   2.355   7.261   3.669 -0.4127 -0.2517  0.2959
    9MOL   O225 4561   2.404   7.332   3.581 -0.2017  0.4340 -0.2657
    9MOL   C226 4562   2.320   7.113   3.649  0.1124  0.0781 -0.6067
    9MOL   C227 4563   2.392   7.033   3.755  0.2694  0.1201 -0.3432
    9MOL   C228 4564   2.165   7.089   3.676 -0.0238 -0.5141  0.1121
    9MOL   H229 4565   1.967   0.036   4.093  0.8813  0.1141  1.1263
    9MOL   H230 4566   2.139   0.076   4.090  1.5419 -0.1312 -0.5737
    9MOL   H231 4567   2.046   0.054   3.936 -1.8704 -0.5815  0.0376
    9MOL   H232 4568   2.018   7.621   3.993  0.5413 -2.3074  1.9440
    9MOL   H233 4569   2.104   7.649   4.136  2.4174  3.7404  2.0050
    9MOL   H234 4570   2.299   7.713   3.973  1.1578 -1.4864  0.7622
    9MOL   H235 4571   2.188   7.691   3.842 -0.3647 -0.0309  0.5727
    9MOL   H236 4572   2.288   7.475   4.021  1.4302  0.2425 -0.7615
    9MOL   H237 4573   2.144   7.451   3.926 -0.2575 -0.1805  0.7074
    9MOL   H238 4574   2.425   7.489   3.814  0.7141 -1.4919  0.2233
    9MOL   H239 4575   2.276   7.515   3.719  0.4361  1.7854 -0.2867
    9MOL   H240 4576   2.385   6.925   3.741  0.5724 -0.2981  2.4984
    9MOL   H241 4577   2.357   7.050   3.857 -0.3354 -0.0402 -0.5230
    9MOL   H242 4578   2.501   7.036   3.752  0.3788 -0.7903  1.7144
    9MOL   H243 4579   2.154   7.123   3.779 -0.9453  1.4966 -0.6449
    9MOL   H244 4580   2.149   6.981   3.680  0.2597 -0.5593  0.1192
    9MOL   C245 4581   2.060   6.404   3.183 -0.2074  0.4106 -0.0587
    9MOL   C246 4582   2.091   6.501   3.292  0.6276  0.8095  0.1298
    9MOL   C247 4583   2.015   6.637   3.260  0.5225  0.2234  0.1148
    9MOL   C248 4584   2.037   6.728   3.373 -0.3789  0.0979  0.2885
    9MOL   C249 4585   2.016   6.876   3.342 -0.1454  0.8689  0.8795
    9MOL   O250 4586   2.047   6.953   3.450 -0.8681 -0.2908  0.1323
    9MOL   C251 4587   2.058   7.085   3.443 -0.1961 -0.5671  0.0396
    9MOL   O252 4588   2.062   7.154   3.343  0.0081 -0.3438 -0.5440
    9MOL   C253 4589   2.047   7.147   3.589 -0.1255  0.1107  0.5191
    9MOL   C254 4590   2.051   7.305   3.584 -0.4106  0.3234  0.6075
    9MOL   C255 4591   1.905   7.098   3.654  0.3889  0.2486 -0.8776
    9MOL   H256 4592   2.113   6.434   3.093 -0.3655  2.8483  0.6259
    9MOL   H257 4593   2.083   6.302   3.217  0.9139  0.3539 -0.9788
    9MOL   H258 4594   1.956   6.409   3.151 -0.6863 -3.0591  0.7445
    9MOL   H259 4595   2.050   6.468   3.387  1.0681 -0.1614 -0.0128
    9MOL   H260 4596   2.198   6.511   3.310  1.0563 -2.2370 -0.4669
    9MOL   H261 4597   1.908   6.615   3.253  0.3753  0.5200  1.4046
    9MOL   H262 4598   2.051   6.677   3.166  0.4910 -0.6954 -0.2975
    9MOL   H263 4599   1.966   6.703   3.453  0.6784 -1.4391  0.7548
    9MOL   H264 4600   2.140   6.711   3.403  1.2966  2.5562 -3.7349
    9MOL   H265 4601   2.072   6.906   3.253  0.7328 -1.0793  0.7436
    9MOL   H266 4602   1.915   6.903   3.311 -0.7632  0.2839  2.3454
    9MOL   H267 4603   2.142   7.334   3.533 -1.1477 -2.9426 -2.7961
    9MOL   H268 4604   1.970   7.337   3.519  0.2396 -2.6939 -1.8192
    9MOL   H269 4605   2.049   7.348   3.684  0.6011 -1.7619  1.5644
    9MOL   H270 4606   1.895   6.991   3.674 -1.4313  0.8570  1.6919
    9MOL   H271 4607   1.901   7.129   3.758  0.2104 -1.2393 -0.4368
    9MOL   C272 4608   1.515   7.456   4.199 -0.0579 -0.0629 -0.1257
    9MOL   C273 4609   1.499   7.570   4.105 -0.1745 -0.2581 -0.3786
    9MOL   C274 4610   1.605   7.559   3.996 -0.0733 -0.9895  0.3231
    9MOL   C275 4611   1.624   7.429   3.910 -0.0475 -0.1131  0.3398
    9MOL   C276 4612   1.755   7.449   3.828 -0.1283 -0.1478 -0.3089
    9MOL   O277 4613   1.773   7.321   3.766 -0.0725  0.4504 -0.4225
    9MOL   C278 4614   1.737   7.296   3.639  0.7206  0.0702  0.4330
    9MOL   O279 4615   1.687   7.379   3.562 -0.2470  0.3351  0.3910
    9MOL   C280 4616   1.768   7.149   3.599 -0.3872  0.3559  0.3844
    9MOL   C281 4617   1.744   7.147   3.440 -0.0485 -0.4827 -0.0439
    9MOL   C282 4618   1.647   7.067   3.668 -0.3371 -0.4978 -0.1642
    9MOL   H283 4619   1.607   7.459   4.257 -1.5637  0.8468  2.2887
    9MOL   H284 4620   1.431   7.460   4.269  0.0138 -3.2527  0.2286
    9MOL   H285 4621   1.514   7.354   4.160  1.2021  0.0976 -0.6129
    9MOL   H286 4622   1.399   7.557   4.062 -1.3016  2.7072  1.2068
    9MOL   H287 4623   1.505   7.665   4.158  0.9018 -1.0316  0.9119
    9MOL   H288 4624   1.587   7.641   3.928  0.6750  0.2697  1.6057
    9MOL   H289 4625   1.695   7.594   4.047 -0.1195 -0.3195 -0.0543
    9MOL   H290 4626   1.621   7.338   3.970  1.5563  0.5354  1.4465
    9MOL   H291 4627   1.545   7.416   3.836  1.1078 -0.5822 -0.8397
    9MOL   H292 4628   1.840   7.468   3.893  0.2914  0.2474 -0.9695
    9MOL   H293 4629   1.734   7.532   3.761 -2.5699 -1.3022 -1.0324
    9MOL   H294 4630   1.805   7.219   3.387 -0.9435  0.0859 -0.3231
    9MOL   H295 4631   1.779   7.056   3.390  1.4770  0.7441 -1.2242
    9MOL   H296 4632   1.638   7.164   3.418 -0.1694  2.1141  2.4353
    9MOL   H297 4633   1.661   7.069   3.777  0.2444 -0.6145 -0.2324
    9MOL   H298 4634   1.557   7.128   3.666  0.3522  0.4953 -1.8986
    9MOL   C299 4635   1.485   7.327   3.039 -0.5018  0.9002  0.0739
    9MOL   C300 4636   1.373   7.347   3.139  0.5349  0.3644 -0.2457
    9MOL   C301 4637   1.320   7.220   3.198 -0.0241  0.0800 -0.4858
    9MOL   C302 4638   1.406   7.169   3.313  0.4167  0.7170 -0.0681
    9MOL   C303 4639   1.340   7.065   3.396 -0.0136  0.2303  0.4654
    9MOL   O304 4640   1.420   7.028   3.508 -0.3314  0.0903  0.3668
    9MOL   C305 4641   1.514   6.926   3.504 -0.5738  0.4660 -0.5190
    9MOL   O306 4642   1.542   6.852   3.415 -0.5629 -0.2488 -0.4750
    9MOL   C307 4643   1.600   6.922   3.635 -0.0441 -0.1822  0.0632
    9MOL   C308 4644   1.724   6.833   3.599 -0.1634 -0.2364  0.3369
    9MOL   C309 4645   1.512   6.869   3.764 -0.5338  0.0352  0.4421
    9MOL   H310 4646   1.447   7.264   2.959 -0.4156  0.8942  0.0379
    9MOL   H311 4647   1.562   7.280   3.100 -1.5964 -0.5620  0.3549
    9MOL   H312 4648   1.500   7.427   2.999 -1.9808  0.4256 -1.7246
    9MOL   H313 4649   1.290   7.406   3.101 -0.9621 -1.1535  0.6212
    9MOL   H314 4650   1.422   7.408   3.216  0.1138  0.5717 -0.1416
    9MOL   H315 4651   1.318   7.140   3.125  0.3091 -1.9314  1.6526
    9MOL   H316 4652   1.219   7.241   3.232  0.1923  0.2459  0.0661
    9MOL   H317 4653   1.422   7.253   3.380 -2.1868  2.4327 -1.5134
    9MOL   H318 4654   1.508   7.142   3.285 -0.8458 -1.9420 -2.2748
    9MOL   H319 4655   1.250   7.112   3.437 -1.6480 -0.9636 -1.6196
    9MOL   H320 4656   1.303   6.980   3.338 -1.6006  0.3063  1.3376
    9MOL   H321 4657   1.776   6.880   3.514 -0.2962  0.1648  0.4776
    9MOL   H322 4658   1.796   6.822   3.680  1.1604 -0.7921 -0.8946
    9MOL   H323 4659   1.709   6.732   3.561  3.1999 -0.4907 -0.5466
    9MOL   H324 4660   1.443   6.802   3.712 -0.2973 -0.9117  1.3391
    9MOL   H325 4661   1.437   6.940   3.799  0.3056  1.1288  0.0665
    9MOL   C326 4662   1.489   6.002   3.667  0.3330  0.3782 -0.1258
    9MOL   C327 4663   1.510   6.130   3.747 -0.1073  0.4807 -0.7209
    9MOL   C328 4664   1.399   6.237   3.720 -0.0205  0.3951 -0.2330
    9MOL   C329 4665   1.405   6.367   3.802 -0.0004  0.6077 -0.0927
    9MOL   C330 4666   1.530   6.452   3.781  0.2799 -0.7369 -0.3413
    9MOL   O331 4667   1.501   6.580   3.834  0.0308 -0.0573 -0.3238
    9MOL   C332 4668   1.613   6.655   3.849  0.0217  0.0712  0.5835
    9MOL   O333 4669   1.729   6.627   3.814 -0.4135  0.2230 -0.3103
    9MOL   C334 4670   1.573   6.799   3.891  0.8539  0.1181 -0.2880
    9MOL   C335 4671   1.696   6.874   3.940 -0.3846  0.0284 -0.4841
    9MOL   C336 4672   1.473   6.797   4.011  0.0255 -0.4985  0.3102
    9MOL   H337 4673   1.477   6.023   3.561  0.8785 -2.3867 -0.7494
    9MOL   H338 4674   1.400   5.942   3.688  0.8010  0.5140  2.4705
    9MOL   H339 4675   1.570   5.934   3.691 -0.5004 -0.2548  0.9278
    9MOL   H340 4676   1.606   6.175   3.722 -0.7244  0.4757 -3.2856
    9MOL   H341 4677   1.513   6.097   3.851  1.5403 -0.2603 -0.9874
    9MOL   H342 4678   1.300   6.193   3.728  1.0766 -2.2685 -0.9523
    9MOL   H343 4679   1.405   6.259   3.613 -1.4999  0.0555 -0.3982
    9MOL   H344 4680   1.405   6.331   3.905  1.0788  3.1381  0.8123
    9MOL   H345 4681   1.314   6.426   3.790 -0.1122  0.2646 -0.9715
    9MOL   H346 4682   1.557   6.450   3.675  1.2639 -1.0197 -0.0940
    9MOL   H347 4683   1.612   6.408   3.838  0.0563 -0.2302  0.3640
    9MOL   H348 4684   1.750   6.817   4.016  1.1176  0.2952 -1.3215
    9MOL   H349 4685   1.667   6.972   3.978  1.6669 -0.4323  2.4618
    9MOL   H350 4686   1.757   6.917   3.861 -0.4565 -0.3182 -0.7282
    9MOL   H351 4687   1.379   6.763   3.967 -0.4059  0.8537  0.1662
    9MOL   H352 4688   1.450   6.903   4.015 -0.3618 -0.4523 -2.1981
    9MOL   C353 4689   1.082   7.064   4.551  0.2661  0.2261  0.0848
    9MOL   C354 4690   1.178   7.157   4.472 -0.8635  0.4950  0.1312
    9MOL   C355 4691   1.297   7.077   4.429 -0.3659  0.3439  0.1377
    9MOL   C356 4692   1.404   7.151   4.352 -0.7361  0.0846  0.4375
    9MOL   C357 4693   1.530   7.073   4.328 -0.0613 -0.0943 -0.1270
    9MOL   O358 4694   1.490   6.968   4.242  0.0335 -0.2731 -0.2689
    9MOL   C359 4695   1.553   6.856   4.237 -0.8675  0.3403 -0.5947
    9MOL   O360 4696   1.662   6.838   4.292 -0.2343 -0.1045  0.3818
    9MOL   C361 4697   1.488   6.744   4.157  0.0895 -0.5525  0.2056
    9MOL   C362 4698   1.557   6.604   4.160 -0.4480  0.1579 -0.5650
    9MOL   C363 4699   1.345   6.725   4.218 -0.0887 -0.1470 -0.0942
    9MOL   H364 4700   1.123   7.016   4.640 -0.6479 -0.3132  0.2240
    9MOL   H365 4701   1.034   6.994   4.483 -0.2099  0.0973  0.5460
    9MOL   H366 4702   0.999   7.121   4.593 -1.7789 -1.8591 -1.0027
    9MOL   H367 4703   1.135   7.207   4.385 -1.5827 -0.0290  0.1873
    9MOL   H368 4704   1.221   7.233   4.538  2.9881 -3.2572  2.2199
    9MOL   H369 4705   1.268   6.992   4.367  0.9798  0.8328 -1.1943
    9MOL   H370 4706   1.347   7.026   4.512  0.1264  1.7563  0.7244
    9MOL   H371 4707   1.432   7.242   4.405 -3.9177  0.5880  1.4026
    9MOL   H372 4708   1.352   7.170   4.258  1.1103 -0.2222 -0.6614
    9MOL   H373 4709   1.607   7.142   4.293 -1.3149  0.3840 -1.9909
    9MOL   H374 4710   1.557   7.047   4.431 -1.0541  2.0408  0.7175
    9MOL   H375 4711   1.529   6.523   4.093 -4.1323  1.5680 -0.8892
    9MOL   H376 4712   1.655   6.630   4.120 -1.3813  0.9813 -2.3900
    9MOL   H377 4713   1.568   6.564   4.261 -0.0905 -0.8078 -0.9870
    9MOL   H378 4714   1.302   6.825   4.227 -0.1451 -0.1154 -0.7427
    9MOL   H379 4715   1.292   6.669   4.141  0.1742 -1.3365  0.5771
    9MOL   C380 4716   0.897   6.098   4.538 -0.0788  0.5671  0.2826
    9MOL   C381 4717   1.036   6.042   4.507 -0.0176 -0.4313  1.0456
    9MOL   C382 4718   1.147   6.129   4.560  0.0504 -0.0322 -0.2321
    9MOL   C383 4719   1.163   6.252   4.475  0.5379 -0.2769 -0.3178
    9MOL   C384 4720   1.308   6.307   4.493  0.3665 -0.5981 -0.0419
    9MOL   O385 4721   1.294   6.449   4.487  1.0296  0.1272 -0.0734
    9MOL   C386 4722   1.316   6.506   4.364  0.6868 -0.5594 -0.2708
    9MOL   O387 4723   1.325   6.440   4.261 -0.1394  0.0983  0.3759
    9MOL   C388 4724   1.303   6.664   4.354  0.4935 -0.5364  0.2728
    9MOL   C389 4725   1.391   6.723   4.469 -0.4790 -0.2585 -0.6177
    9MOL   C390 4726   1.154   6.683   4.391 -0.6785 -0.6180 -0.3013
    9MOL   H391 4727   0.824   6.026   4.502  0.8527 -0.8350  1.1459
    9MOL   H392 4728   0.881   6.098   4.645 -1.5379  0.4624  0.0656
    9MOL   H393 4729   0.875   6.196   4.496 -3.0547 -0.6654 -1.1377
    9MOL   H394 4730   1.048   6.047   4.398 -1.3763 -2.1073  0.7917
    9MOL   H395 4731   1.043   5.938   4.540  0.8873 -1.4330 -2.0784
    9MOL   H396 4732   1.127   6.164   4.661  2.4203  0.7239  0.0068
    9MOL   H397 4733   1.240   6.074   4.577  0.2121  0.1930 -0.3932
    9MOL   H398 4734   1.150   6.243   4.367  0.6854 -1.6614 -0.2365
    9MOL   H399 4735   1.091   6.323   4.516 -0.8143 -1.9928  0.3381
    9MOL   H400 4736   1.389   6.267   4.433  0.3784 -0.2957 -0.2300
    9MOL   H401 4737   1.351   6.283   4.590  0.1586 -2.2467 -0.3381
    9MOL   H402 4738   1.343   6.704   4.565 -0.4970 -0.5544 -0.6837
    9MOL   H403 4739   1.406   6.829   4.451  3.9687 -0.2560  2.3239
    9MOL   H404 4740   1.495   6.690   4.481 -1.0723 -1.8420  0.4002
    9MOL   H405 4741   1.155   6.789   4.417  1.3518 -0.6480 -0.1451
    9MOL   H406 4742   1.131   6.643   4.490 -2.1494 -0.4480 -0.5735
    9MOL   C407 4743   1.253   7.300   3.795  0.2485  0.6358 -0.1799
    9MOL   C408 4744   1.268   7.176   3.881  0.0764 -0.4023 -0.2753
    9MOL   C409 4745   1.153   7.145   3.973  0.2354 -1.0391 -0.1557
    9MOL   C410 4746   1.168   7.014   4.049  0.2161  0.1640  0.2866
    9MOL   C411 4747   1.037   6.981   4.120 -0.0919  0.2970  0.9627
    9MOL   O412 4748   1.054   6.866   4.208 -0.2628  0.0096  0.5246
    9MOL   C413 4749   1.041   6.747   4.168  0.1652 -0.0028  0.2630
    9MOL   O414 4750   1.020   6.713   4.050 -0.1592 -0.1379  0.5032
    9MOL   C415 4751   1.036   6.647   4.288  0.0481 -0.0576  0.0153
    9MOL   C416 4752   1.039   6.497   4.236  0.3890 -0.5770 -0.1202
    9MOL   C417 4753   0.907   6.675   4.375 -0.2266 -0.2043 -0.4839
    9MOL   H418 4754   1.152   7.306   3.754 -0.8972 -1.8160  2.1875
    9MOL   H419 4755   1.272   7.381   3.866 -1.0684  1.7168 -1.0355
    9MOL   H420 4756   1.334   7.298   3.723  0.4989 -0.4741  0.1267
    9MOL   H421 4757   1.356   7.198   3.941 -0.7767 -1.5393  1.4549
    9MOL   H422 4758   1.291   7.084   3.827  0.7712  0.4119 -1.3779
    9MOL   H423 4759   1.140   7.220   4.051  1.7936 -1.2729  0.3432
    9MOL   H424 4760   1.061   7.151   3.915  1.5574  2.8712 -2.0072
    9MOL   H425 4761   1.251   7.025   4.118 -0.1284  1.6467  0.4934
    9MOL   H426 4762   1.202   6.934   3.983 -0.1907  2.3046 -2.6497
    9MOL   H427 4763   0.995   7.064   4.178  0.9151  1.4931  0.0010
    9MOL   H428 4764   0.954   6.974   4.049 -0.1627  3.4856  0.6649
    9MOL   H429 4765   1.120   6.485   4.164 -0.5402 -0.4685 -1.2005
    9MOL   H430 4766   0.947   6.463   4.188  0.1419  2.2089 -1.7088
    9MOL   H431 4767   1.055   6.437   4.326  0.8938  0.1828  0.2971
    9MOL   H432 4768   0.896   6.782   4.389 -0.4459 -0.3813  0.8042
    9MOL   H433 4769   0.921   6.629   4.473 -1.0603  3.5275  1.4806
    9MOL   C434 4770   0.215   6.361   4.669 -0.6849 -0.2642  0.1242
    9MOL   C435 4771   0.330   6.270   4.616  0.1778 -1.2736 -0.2276
    9MOL   C436 4772   0.378   6.312   4.476 -0.3964 -0.0649  0.6240
    9MOL   C437 4773   0.510   6.258   4.441 -0.7416 -0.4040  0.3041
    9MOL   C438 4774   0.586   6.296   4.313  0.3563 -0.1117  0.6241
    9MOL   O439 4775   0.618   6.436   4.305  0.3580 -0.2835 -0.0675
    9MOL   C440 4776   0.734   6.487   4.362  0.5590  0.6257  0.1472
    9MOL   O441 4777   0.819   6.414   4.413  0.0620  0.4952 -0.1967
    9MOL   C442 4778   0.763   6.638   4.331  0.0152  0.0251  0.0711
    9MOL   C443 4779   0.742   6.669   4.179 -0.3472  0.3090  0.0845
    9MOL   C444 4780   0.650   6.735   4.391 -0.2902  0.6008 -0.5357
    9MOL   H445 4781   0.246   6.458   4.709 -0.9219  0.6418 -1.8322
    9MOL   H446 4782   0.139   6.380   4.593 -0.6323  0.1224  0.1658
    9MOL   H447 4783   0.174   6.309   4.755 -0.2245 -0.7693  0.0369
    9MOL   H448 4784   0.413   6.285   4.685  0.8067  1.2091 -1.4892
    9MOL   H449 4785   0.297   6.167   4.606 -0.7278 -1.0467  0.3667
    9MOL   H450 4786   0.296   6.287   4.408 -0.4606  0.3305  0.5496
    9MOL   H451 4787   0.388   6.420   4.460  0.5506 -0.5651 -2.5701
    9MOL   H452 4788   0.509   6.149   4.443 -0.8931 -0.3896  1.4642
    9MOL   H453 4789   0.583   6.287   4.517 -0.3878 -1.2719  0.2995
    9MOL   H454 4790   0.537   6.278   4.218 -0.9989  0.3001  1.2354
    9MOL   H455 4791   0.680   6.241   4.325  0.1972 -0.9606 -1.8279
    9MOL   H456 4792   0.753   6.776   4.162  0.1840  0.9253  3.7519
    9MOL   H457 4793   0.796   6.613   4.103  0.9533  2.9044 -0.9582
    9MOL   H458 4794   0.640   6.654   4.144  0.6368  0.3910 -2.9175
    9MOL   H459 4795   0.552   6.704   4.355 -1.8050  1.8965  2.3510
    9MOL   H460 4796   0.649   6.831   4.339  3.0422 -0.1754 -2.1860
    9MOL   C461 4797   0.889   6.256   5.029  1.0397 -0.1578  0.3347
    9MOL   C462 4798   0.952   6.321   4.907 -0.2823 -0.2276  0.7605
    9MOL   C463 4799   0.913   6.472   4.891 -0.6767  0.2159  0.5777
    9MOL   C464 4800   0.991   6.549   4.781 -0.8686 -0.2623  0.3041
    9MOL   C465 4801   0.926   6.692   4.762  0.3101 -0.3432  0.2739
    9MOL   O466 4802   0.799   6.689   4.695 -0.4343  0.4508  0.0550
    9MOL   C467 4803   0.748   6.794   4.622 -0.9929 -0.7706  0.4473
    9MOL   O468 4804   0.800   6.905   4.609 -0.0632  0.7408  0.4790
    9MOL   C469 4805   0.619   6.759   4.541  0.4908 -0.7232  0.2530
    9MOL   C470 4806   0.544   6.630   4.594  0.3833 -0.3082  0.8463
    9MOL   C471 4807   0.513   6.885   4.552 -0.2929  0.0896 -0.2246
    9MOL   H472 4808   0.780   6.261   5.024  1.0177 -1.5502 -0.7281
    9MOL   H473 4809   0.903   6.307   5.125 -2.0006  2.9194 -0.7411
    9MOL   H474 4810   0.927   6.154   5.037 -0.6947 -0.8644 -0.1084
    9MOL   H475 4811   0.920   6.271   4.815  1.1569 -0.1184  0.1790
    9MOL   H476 4812   1.061   6.327   4.904 -0.2591 -0.3504  1.3089
    9MOL   H477 4813   0.939   6.515   4.988  0.9338 -2.4140  1.3707
    9MOL   H478 4814   0.806   6.488   4.879 -0.7290 -0.2089  0.4822
    9MOL   H479 4815   0.991   6.483   4.694 -0.7479 -0.2257  0.2767
    9MOL   H480 4816   1.098   6.555   4.801 -0.6665  1.2917 -1.1854
    9MOL   H481 4817   0.937   6.746   4.857  2.9693  1.0500 -0.7792
    9MOL   H482 4818   0.982   6.750   4.689  0.9215  0.3055  1.2347
    9MOL   H483 4819   0.511   6.636   4.698 -0.9926 -2.4564  0.5732
    9MOL   H484 4820   0.612   6.545   4.603  1.0023  0.1555  0.6032
    9MOL   H485 4821   0.456   6.606   4.534  0.8479  0.1736 -0.0390
    9MOL   H486 4822   0.432   6.861   4.484  0.0890 -1.2219 -0.2283
    9MOL   H487 4823   0.562   6.976   4.517  1.3452 -0.9176 -0.6201
    9MOL   C488 4824   0.923   7.431   4.833  0.0316 -0.8160  0.5816
    9MOL   C489 4825   0.811   7.353   4.904 -0.1026 -0.2538  0.5152
    9MOL   C490 4826   0.821   7.203   4.893  0.2794  0.6027 -0.2674
    9MOL   C491 4827   0.729   7.122   4.994  0.1990  0.2859  0.3566
    9MOL   C492 4828   0.694   6.979   4.947  0.1928 -0.8234  0.6787
    9MOL   O493 4829   0.614   6.979   4.833 -0.3543  0.5797  0.2939
    9MOL   C494 4830   0.512   6.901   4.818  0.2004 -0.2799  0.9965
    9MOL   O495 4831   0.475   6.813   4.892 -0.6619 -0.0255  0.9155
    9MOL   C496 4832   0.431   6.921   4.688  0.9175 -0.7098  0.6084
    9MOL   C497 4833   0.306   6.835   4.686 -0.1169 -0.0152 -0.2640
    9MOL   C498 4834   0.401   7.073   4.668 -1.0802 -0.9145  0.0822
    9MOL   H499 4835   0.937   7.523   4.889  0.4299  0.0401 -0.9106
    9MOL   H500 4836   1.014   7.371   4.832  0.6618  0.1268  1.2526
    9MOL   H501 4837   0.896   7.461   4.731 -0.1595 -0.1677  0.8224
    9MOL   H502 4838   0.715   7.386   4.866 -0.2319  1.2806  2.0773
    9MOL   H503 4839   0.821   7.382   5.009  0.9268  0.0530  0.3441
    9MOL   H504 4840   0.802   7.191   4.786  1.6044 -3.6679 -0.1084
    9MOL   H505 4841   0.921   7.165   4.908  0.4105  1.6697  1.7108
    9MOL   H506 4842   0.636   7.180   4.988  0.5751  0.7278 -1.7448
    9MOL   H507 4843   0.759   7.121   5.098  1.7254  0.6879 -0.0680
    9MOL   H508 4844   0.790   6.931   4.929  1.0975  1.5316 -1.1273
    9MOL   H509 4845   0.645   6.929   5.030 -0.3331  0.3369  1.0769
    9MOL   H510 4846   0.321   6.728   4.690  0.3370  0.0599  0.1687
    9MOL   H511 4847   0.236   6.853   4.605 -1.4013  0.4210  0.9337
    9MOL   H512 4848   0.243   6.856   4.772 -0.1555  3.9192 -1.1478
    9MOL   H513 4849   0.368   7.093   4.566  1.0242  2.2996 -0.0533
    9MOL   H514 4850   0.497   7.125   4.678 -0.0012 -3.2067  2.0568
    9MOL   C515 4851   0.006   6.745   5.466  0.3890 -0.5871 -0.3614
    9MOL   C516 4852   0.057   6.745   5.326  0.2244  0.7820 -0.1118
    9MOL   C517 4853   0.102   6.872   5.270 -0.6330 -0.4219 -0.2204
    9MOL   C518 4854   0.164   6.862   5.131  0.2827 -0.8987 -0.1431
    9MOL   C519 4855   0.247   6.988   5.087  0.3515  0.1548  0.8990
    9MOL   O520 4856   0.238   7.023   4.949 -0.0411  0.3852 -0.0786
    9MOL   C521 4857   0.313   7.130   4.905  0.1274  0.1377 -0.5849
    9MOL   O522 4858   0.376   7.204   4.981  0.1707  0.5672 -0.3326
    9MOL   C523 4859   0.310   7.159   4.758 -0.2959  0.1881  0.6234
    9MOL   C524 4860   0.162   7.141   4.709 -0.2472  0.1497 -0.2015
    9MOL   C525 4861   0.339   7.310   4.734  0.1901  0.2235 -0.0408
    9MOL   H526 4862   7.792   6.644   5.497  0.3846 -0.6258 -0.4938
    9MOL   H527 4863   0.082   6.787   5.532 -1.6486  0.2808  1.4796
    9MOL   H528 4864   7.725   6.793   5.487  0.3777 -0.5042 -0.6034
    9MOL   H529 4865   0.137   6.675   5.304 -1.0662 -0.2274 -1.7494
    9MOL   H530 4866   7.791   6.707   5.262  1.5707  0.0260 -1.3869
    9MOL   H531 4867   0.016   6.937   5.258  0.3560  1.2832  1.6535
    9MOL   H532 4868   0.163   6.919   5.347  0.6072 -1.5728 -0.4685
    9MOL   H533 4869   0.085   6.861   5.055 -1.0743  1.6546  1.1634
    9MOL   H534 4870   0.210   6.765   5.116 -1.1095 -1.8826  1.8266
    9MOL   H535 4871   0.209   7.078   5.134  0.8907  0.8499  0.0250
    9MOL   H536 4872   0.347   6.963   5.124  0.6128 -1.3178 -0.7393
    9MOL   H537 4873   0.093   7.192   4.776  1.0553 -0.5556  1.6958
    9MOL   H538 4874   0.137   7.036   4.697 -2.3607  0.7461 -1.3647
    9MOL   H539 4875   0.156   7.189   4.611  2.0384  1.8322  0.4336
    9MOL   H540 4876   0.274   7.364   4.803  1.4591 -0.0210  1.3842
    9MOL   H541 4877   0.312   7.349   4.636 -3.0781 -0.8377  0.3800
    9MOL   H542 4878   0.443   7.335   4.760  0.8850  1.1811 -3.5025
   10MOL     C1 4879   0.460   4.878   3.016  0.3750 -0.2985 -0.3620
   10MOL     C2 4880   0.452   4.822   2.867  0.4367 -0.4015 -0.8899
   10MOL     C3 4881   0.444   4.938   2.763 -0.9047 -0.2418 -0.4955
   10MOL     C4 4882   0.455   4.883   2.616 -0.2416  0.4702  0.5747
   10MOL     C5 4883   0.413   4.975   2.501  0.0739  0.2066 -0.2809
   10MOL     O6 4884   0.272   5.006   2.499 -0.1097  0.2352 -0.5874
   10MOL     C7 4885   0.180   4.921   2.468 -0.0522  0.3121 -0.8823
   10MOL     O8 4886   0.198   4.807   2.431  0.4358  0.1205 -0.6185
   10MOL     C9 4887   0.045   4.995   2.485  0.3458 -0.5090 -0.2045
   10MOL    C10 4888   7.784   4.951   2.611 -0.2308 -0.8233 -0.6062
   10MOL    C11 4889   7.773   4.995   2.357  0.5469  0.0592 -0.2140
   10MOL    H12 4890   0.539   4.951   3.034 -0.7903  0.6655  0.9668
   10MOL    H13 4891   0.479   4.799   3.089 -0.8817  1.2600  1.6937
   10MOL    H14 4892   0.360   4.918   3.030 -0.7752 -3.4178  0.6018
   10MOL    H15 4893   0.543   4.766   2.847  0.6225 -1.1798  1.8780
   10MOL    H16 4894   0.369   4.756   2.841  1.0495 -0.8149 -1.7873
   10MOL    H17 4895   0.343   4.976   2.776 -2.2260 -2.9044 -2.6768
   10MOL    H18 4896   0.530   5.002   2.781 -1.8847  0.7040  0.9092
   10MOL    H19 4897   0.390   4.796   2.609 -1.7406  1.4524  1.9917
   10MOL    H20 4898   0.553   4.840   2.595 -1.0160 -0.2572 -1.7024
   10MOL    H21 4899   0.476   5.064   2.498  0.4575  0.1841  4.4732
   10MOL    H22 4900   0.437   4.923   2.408 -0.2568  0.5045 -0.5387
   10MOL    H23 4901   7.724   4.860   2.604  0.0547 -1.1463  0.9245
   10MOL    H24 4902   7.716   5.034   2.631  1.5728  0.8829 -1.5185
   10MOL    H25 4903   0.029   4.959   2.702  0.2651  0.5101 -1.0473
   10MOL    H26 4904   7.683   4.940   2.384  0.8918 -0.9583 -1.1083
   10MOL    H27 4905   0.011   4.937   2.280  0.4530  0.8892 -0.9133
   10MOL    H28 4906   0.073   5.095   2.518  0.2708 -1.0847  1.6649
   10MOL    C29 4907   0.585   5.477   2.127  0.0505  0.6061 -0.6778
   10MOL    C30 4908   0.460   5.399   2.119  0.0291  0.0411  0.3074
   10MOL    C31 4909   0.492   5.253   2.128 -0.0327 -0.4957  0.1993
   10MOL    C32 4910   0.376   5.173   2.186  0.1187 -0.1406  0.1461
   10MOL    C33 4911   0.248   5.196   2.116  0.5754 -0.4034  0.6784
   10MOL    O34 4912   0.127   5.137   2.171  0.1061  0.2758  0.0067
   10MOL    C35 4913   0.062   5.203   2.268 -0.5710 -0.0693 -1.0056
   10MOL    O36 4914   0.096   5.305   2.328  0.4164  0.8081  0.2464
   10MOL    C37 4915   7.740   5.133   2.289  0.6183  0.0408 -0.4108
   10MOL    C38 4916   7.667   5.221   2.385  0.7219 -0.1883  0.0617
   10MOL    C39 4917   7.660   5.113   2.157  0.3991 -0.0921 -0.0768
   10MOL    H40 4918   0.552   5.580   2.114  0.5577  0.9727  0.8198
   10MOL    H41 4919   0.623   5.466   2.228 -3.6271 -0.3930  0.6517
   10MOL    H42 4920   0.657   5.435   2.056  0.5297  0.1149  0.0944
   10MOL    H43 4921   0.400   5.425   2.032 -0.8307 -0.2500  0.8046
   10MOL    H44 4922   0.409   5.441   2.206  0.8109 -0.4817  1.0257
   10MOL    H45 4923   0.570   5.243   2.204 -0.4726  0.2465  0.7641
   10MOL    H46 4924   0.544   5.221   2.038 -0.5682 -1.5721  0.2599
   10MOL    H47 4925   0.391   5.065   2.188 -1.5813 -0.4029 -0.0855
   10MOL    H48 4926   0.362   5.207   2.288  0.6218 -1.2746  0.5973
   10MOL    H49 4927   0.269   5.156   2.017  1.3770  0.9452  0.2868
   10MOL    H50 4928   0.237   5.302   2.093 -1.1510 -0.8728 -0.8360
   10MOL    H51 4929   7.564   5.187   2.375  0.6229 -0.2111  1.0753
   10MOL    H52 4930   7.674   5.329   2.368  1.2694 -0.0613  1.0206
   10MOL    H53 4931   7.694   5.197   2.488 -0.5223 -0.3635  0.3496
   10MOL    H54 4932   7.571   5.053   2.178 -0.6515  1.2343 -0.6457
   10MOL    H55 4933   7.712   5.036   2.100 -0.6761 -1.0730  0.2411
   10MOL    C56 4934   6.984   5.648   2.168  0.0413  0.7667 -0.1444
   10MOL    C57 4935   6.985   5.531   2.267  0.0017  0.0695  0.5080
   10MOL    C58 4936   7.129   5.488   2.319 -0.3127  1.0210  0.5132
   10MOL    C59 4937   7.210   5.412   2.214  0.3458 -0.0278  0.2208
   10MOL    C60 4938   7.341   5.361   2.286  0.1802 -0.5643 -0.1686
   10MOL    O61 4939   7.415   5.282   2.191  0.0785 -0.0736 -0.6212
   10MOL    C62 4940   7.527   5.333   2.139 -1.3187  0.0402 -0.5266
   10MOL    O63 4941   7.557   5.454   2.146 -0.0474 -0.3126 -0.4918
   10MOL    C64 4942   7.609   5.228   2.061 -0.2484 -0.0519 -0.2910
   10MOL    C65 4943   7.522   5.152   1.974 -0.1624 -0.5847 -0.3810
   10MOL    C66 4944   7.735   5.288   1.988 -0.4772  0.1499  0.1284
   10MOL    H67 4945   7.017   5.740   2.216 -0.3290  1.8614 -1.9417
   10MOL    H68 4946   6.880   5.668   2.145 -0.2024  0.5014  0.6975
   10MOL    H69 4947   7.043   5.629   2.078 -0.6445  0.0689 -0.4515
   10MOL    H70 4948   6.921   5.565   2.349  0.2832 -0.0264  0.7689
   10MOL    H71 4949   6.935   5.444   2.224 -1.4005  1.3981 -0.5843
   10MOL    H72 4950   7.181   5.574   2.361  1.6176  0.5773 -0.9019
   10MOL    H73 4951   7.125   5.427   2.409  1.9462 -0.5898 -0.4368
   10MOL    H74 4952   7.224   5.482   2.132  0.4999 -0.8796 -0.4935
   10MOL    H75 4953   7.153   5.325   2.182 -0.3076  0.3982  0.2241
   10MOL    H76 4954   7.405   5.442   2.321 -0.0152 -1.0974  1.4908
   10MOL    H77 4955   7.324   5.302   2.377 -0.6703  2.8959  2.0154
   10MOL    H78 4956   7.437   5.106   2.024 -0.1915  0.1401  0.2476
   10MOL    H79 4957   7.573   5.077   1.914 -1.0461 -0.3400 -1.4753
   10MOL    H80 4958   7.484   5.225   1.902 -0.6670 -0.6122 -0.1460
   10MOL    H81 4959   7.811   5.210   1.994  0.1710  0.4700 -3.0670
   10MOL    H82 4960   7.775   5.364   2.056  0.7298 -0.9013  0.6125
   10MOL    C83 4961   0.184   4.768   2.003  0.2634  0.5611  0.2958
   10MOL    C84 4962   0.246   4.764   1.858 -0.9011 -0.1665 -0.5675
   10MOL    C85 4963   0.213   4.895   1.785 -0.1497 -0.0963  0.1456
   10MOL    C86 4964   0.071   4.911   1.723  0.2700 -0.3601 -0.4637
   10MOL    C87 4965   0.022   5.043   1.664  0.8000 -0.0758  0.7751
   10MOL    O88 4966   0.008   5.146   1.762  0.0091 -0.1142 -0.3500
   10MOL    C89 4967   7.731   5.246   1.743 -1.0952 -0.0030 -0.3739
   10MOL    O90 4968   7.646   5.253   1.660  0.1559 -0.1821 -0.9163
   10MOL    C91 4969   7.748   5.353   1.845  0.2133 -0.6856 -0.4699
   10MOL    C92 4970   7.633   5.459   1.823 -0.2974 -0.2776  0.0871
   10MOL    C93 4971   0.069   5.423   1.841  0.1782  0.1218  0.6758
   10MOL    H94 4972   0.212   4.684   2.066 -0.3724  0.1266  0.0062
   10MOL    H95 4973   0.210   4.860   2.056  1.5051  0.5471 -0.2599
   10MOL    H96 4974   0.076   4.756   2.004 -0.1116  3.4280  0.0751
   10MOL    H97 4975   0.206   4.684   1.796 -2.2981  0.7363 -0.8623
   10MOL    H98 4976   0.354   4.749   1.865 -1.3539 -2.9862  1.2436
   10MOL    H99 4977   0.295   4.914   1.716  0.9673 -2.0504  0.8879
   10MOL   H100 4978   0.224   4.972   1.861  2.0970  0.6842 -0.9153
   10MOL   H101 4979   7.807   4.890   1.796  2.0358 -0.8623  1.3286
   10MOL   H102 4980   0.070   4.845   1.637 -0.8917 -0.0403 -0.7044
   10MOL   H103 4981   7.738   5.026   1.619  0.6516 -1.0038  1.4160
   10MOL   H104 4982   0.089   5.080   1.587 -1.9153 -0.7412 -2.0109
   10MOL   H105 4983   7.532   5.426   1.843 -0.6749  0.6006 -0.3546
   10MOL   H106 4984   7.632   5.504   1.724 -1.6156  2.9249  1.4696
   10MOL   H107 4985   7.655   5.545   1.886  1.2863 -0.2696 -0.4471
   10MOL   H108 4986   0.087   5.489   1.926  1.2496 -0.6070  1.0214
   10MOL   H109 4987   0.134   5.336   1.851 -0.4131 -0.3486  0.4496
   10MOL   C110 4988   0.868   5.083   1.842  0.2322  0.1634  0.3310
   10MOL   C111 4989   0.738   5.107   1.763  0.5601  0.0125  0.0862
   10MOL   C112 4990   0.687   5.252   1.733 -0.4491  0.5497  0.3558
   10MOL   C113 4991   0.534   5.262   1.714 -0.0590  0.4100 -0.0034
   10MOL   C114 4992   0.477   5.402   1.732  0.0246  0.4921  0.5422
   10MOL   O115 4993   0.340   5.407   1.706  0.2695  0.2816 -0.2042
   10MOL   C116 4994   0.273   5.524   1.738 -0.1634  0.3258 -0.2494
   10MOL   O117 4995   0.329   5.629   1.781 -0.0142  0.0510 -0.2169
   10MOL   C118 4996   0.118   5.515   1.723  0.0264 -0.7775  0.1862
   10MOL   C119 4997   0.059   5.647   1.735 -0.2866 -0.1344  0.1059
   10MOL   C120 4998   0.084   5.462   1.580  0.0714  0.6381  0.6313
   10MOL   H121 4999   0.878   4.977   1.865 -1.5126 -0.2790 -0.8834
   10MOL   H122 5000   0.958   5.115   1.789  0.6256  1.3338  1.6655
   10MOL   H123 5001   0.873   5.129   1.941 -0.6421  0.1206  0.3974
   10MOL   H124 5002   0.747   5.043   1.676  0.4964 -0.2460  0.2674
   10MOL   H125 5003   0.661   5.063   1.827 -0.9033 -2.0898 -2.9850
   10MOL   H126 5004   0.722   5.320   1.810  1.5365 -1.6051  1.4056
   10MOL   H127 5005   0.744   5.275   1.643  0.6848 -0.5615  0.7899
   10MOL   H128 5006   0.474   5.191   1.771  0.5435  1.2927  1.7453
   10MOL   H129 5007   0.517   5.224   1.613 -1.1709  0.4162  0.1727
   10MOL   H130 5008   0.506   5.432   1.833  1.9694  1.0216 -0.1573
   10MOL   H131 5009   0.539   5.467   1.670  1.5432 -1.1835  0.2815
   10MOL   H132 5010   0.114   5.719   1.675  0.6674 -0.6752  0.3331
   10MOL   H133 5011   7.773   5.666   1.695  0.1340  0.6763 -0.5837
   10MOL   H134 5012   0.066   5.682   1.838  0.2601  1.4639 -0.4511
   10MOL   H135 5013   0.132   5.365   1.573  1.6441  1.5643 -2.1238
   10MOL   H136 5014   7.791   5.439   1.577  0.2134 -0.2868  2.3506
   10MOL   C137 5015   7.126   5.814   1.312  0.5795 -0.1217 -0.4900
   10MOL   C138 5016   7.229   5.703   1.323  1.0852  0.0475  0.5320
   10MOL   C139 5017   7.370   5.751   1.339 -0.3039 -0.8915  0.2652
   10MOL   C140 5018   7.480   5.646   1.369 -0.1496 -0.0260 -0.7784
   10MOL   C141 5019   7.619   5.709   1.374 -0.4728  0.9587  0.6954
   10MOL   O142 5020   7.710   5.609   1.416 -0.0763 -0.1727  0.6841
   10MOL   C143 5021   0.017   5.658   1.421  0.3387  0.7956  0.2316
   10MOL   O144 5022   0.047   5.773   1.410  0.4241 -0.7209  0.0421
   10MOL   C145 5023   0.125   5.543   1.448  0.2539  0.0720  0.1623
   10MOL   C146 5024   0.266   5.612   1.444  0.2581 -0.4846 -0.6334
   10MOL   C147 5025   0.121   5.436   1.339  0.2511 -0.3108  0.4724
   10MOL   H148 5026   7.030   5.763   1.308  0.5762 -0.1219 -0.4226
   10MOL   H149 5027   7.136   5.876   1.224  0.0162  2.9397  1.5171
   10MOL   H150 5028   7.118   5.877   1.401  0.7180 -0.2971 -0.3517
   10MOL   H151 5029   7.226   5.646   1.229  0.2316  0.3439  0.3763
   10MOL   H152 5030   7.200   5.630   1.398 -0.5989  0.1184 -0.0334
   10MOL   H153 5031   7.397   5.802   1.247  1.6807 -2.6929 -0.1975
   10MOL   H154 5032   7.378   5.831   1.413  0.6735  0.0322 -0.8112
   10MOL   H155 5033   7.460   5.605   1.468 -2.9111 -1.8455 -2.0090
   10MOL   H156 5034   7.471   5.562   1.300 -0.0081  0.9979 -2.0793
   10MOL   H157 5035   7.626   5.789   1.448  3.6241  0.9362  0.4453
   10MOL   H158 5036   7.643   5.747   1.275  0.3733 -1.6496 -0.1463
   10MOL   H159 5037   0.272   5.674   1.355 -2.2217 -1.6348 -1.6437
   10MOL   H160 5038   0.343   5.535   1.437  1.7866  0.8659  0.7350
   10MOL   H161 5039   0.282   5.674   1.533  0.0681  1.3072 -1.8224
   10MOL   H162 5040   0.186   5.355   1.372 -0.8576 -0.3578  2.6391
   10MOL   H163 5041   0.022   5.391   1.348  0.1843 -0.0748  0.9257
   10MOL   C164 5042   7.247   5.008   1.182  0.1775  0.0153  0.0382
   10MOL   C165 5043   7.336   5.135   1.176  0.5339 -0.2348  0.2279
   10MOL   C166 5044   7.469   5.118   1.092 -1.2088  0.4568  0.3071
   10MOL   C167 5045   7.571   5.228   1.119 -0.6580 -0.6809 -0.1784
   10MOL   C168 5046   7.717   5.197   1.076 -0.6178  0.2516 -0.2588
   10MOL   O169 5047   7.782   5.311   1.110  0.4115  0.4132  0.0998
   10MOL   C170 5048   0.101   5.323   1.108  0.2720 -0.6014  0.5909
   10MOL   O171 5049   0.187   5.241   1.064  0.3195 -0.1795 -0.5856
   10MOL   C172 5050   0.150   5.451   1.184 -0.3391  0.2584  0.3193
   10MOL   C173 5051   0.305   5.458   1.167  0.0213  0.0166  0.1127
   10MOL   C174 5052   0.087   5.591   1.130 -0.0625  0.2943 -0.1661
   10MOL   H175 5053   7.287   4.926   1.242 -2.8384 -0.7572  1.0853
   10MOL   H176 5054   7.232   4.965   1.083 -3.0399 -0.5831  0.7334
   10MOL   H177 5055   7.146   5.033   1.216 -1.1180 -2.3559 -1.8789
   10MOL   H178 5056   7.353   5.152   1.283 -0.2238 -0.0657  0.3264
   10MOL   H179 5057   7.288   5.225   1.137  0.0984 -1.0285 -1.0915
   10MOL   H180 5058   7.534   5.035   1.118 -1.3839 -0.0101 -0.7078
   10MOL   H181 5059   7.444   5.112   0.986 -2.8408 -0.7841  0.7349
   10MOL   H182 5060   7.577   5.249   1.226 -0.5130  2.2741 -0.7263
   10MOL   H183 5061   7.531   5.317   1.071  3.4711  1.8304  0.7271
   10MOL   H184 5062   7.718   5.177   0.969 -0.5042  1.4620 -0.4892
   10MOL   H185 5063   7.759   5.122   1.143 -0.3691  1.6978  1.2281
   10MOL   H186 5064   0.352   5.548   1.207 -0.1469 -0.1402  0.6766
   10MOL   H187 5065   0.337   5.451   1.063  2.1491 -0.5791  0.7689
   10MOL   H188 5066   0.350   5.375   1.222 -0.2847 -0.7335 -0.7680
   10MOL   H189 5067   7.795   5.590   1.155 -0.7665 -3.1630 -2.8660
   10MOL   H190 5068   0.133   5.670   1.190  1.2522  1.1222 -2.2079
   10MOL   C191 5069   0.765   6.096   1.017  0.9444  0.2853 -0.3733
   10MOL   C192 5070   0.748   5.954   1.081  0.2117  0.3190  0.3595
   10MOL   C193 5071   0.664   5.849   1.003  0.1637  0.1010 -0.0241
   10MOL   C194 5072   0.517   5.854   1.036  0.1756 -0.2490 -0.0853
   10MOL   C195 5073   0.450   5.742   0.962  0.0775  0.0710 -0.6130
   10MOL   O196 5074   0.318   5.732   1.000  0.2835 -0.0224  0.0129
   10MOL   C197 5075   0.237   5.650   0.934 -0.0748  0.1789  0.2283
   10MOL   O198 5076   0.285   5.569   0.855  0.3401  0.0840  0.9290
   10MOL   C199 5077   0.092   5.636   0.981  0.2078 -0.0104 -0.8904
   10MOL   C200 5078   0.038   5.777   0.979  0.0386  0.5467 -1.0144
   10MOL   C201 5079   7.812   5.543   0.900 -1.0551  0.3213  0.1026
   10MOL   H202 5080   0.662   6.129   1.011 -0.6930 -3.6681  3.3114
   10MOL   H203 5081   0.828   6.153   1.086  1.4812 -0.1932 -0.4686
   10MOL   H204 5082   0.824   6.080   0.927  2.0318  3.4961 -0.3166
   10MOL   H205 5083   0.703   5.961   1.180 -0.2978 -0.9920  0.2248
   10MOL   H206 5084   0.848   5.918   1.102  0.3560  0.7700  0.4676
   10MOL   H207 5085   0.701   5.750   1.032  1.5877  1.0185  1.3567
   10MOL   H208 5086   0.677   5.865   0.896  1.5644  2.3361  0.4394
   10MOL   H209 5087   0.498   5.823   1.138 -1.9999 -1.6974 -0.8803
   10MOL   H210 5088   0.465   5.947   1.009  0.5256  0.4263  1.5000
   10MOL   H211 5089   0.454   5.757   0.854 -0.7635  0.3699 -0.6122
   10MOL   H212 5090   0.498   5.645   0.972 -0.5376 -0.2619 -0.8133
   10MOL   H213 5091   7.763   5.786   1.040 -0.2465  0.3281 -1.4005
   10MOL   H214 5092   0.028   5.828   0.883  1.9165  1.1980 -0.8969
   10MOL   H215 5093   0.103   5.845   1.035 -3.0887  0.9813  2.2804
   10MOL   H216 5094   7.740   5.502   0.971  0.0968 -0.6756  0.7186
   10MOL   H217 5095   0.060   5.463   0.858  0.5408  1.2723  0.6213
   10MOL   C218 5096   7.163   5.385   0.617 -0.0708  0.4382  0.2735
   10MOL   C219 5097   7.165   5.428   0.767  0.0766 -0.0765  0.2699
   10MOL   C220 5098   7.265   5.542   0.791  0.5602 -0.0016  0.1375
   10MOL   C221 5099   7.295   5.559   0.937  0.0471  0.3625 -0.1098
   10MOL   C222 5100   7.412   5.659   0.957 -0.5722  0.0914  0.0672
   10MOL   O223 5101   7.532   5.600   0.902  0.3326  0.1047  0.4868
   10MOL   C224 5102   7.604   5.669   0.817 -0.2216  0.2032  0.6126
   10MOL   O225 5103   7.584   5.784   0.779  0.7850  0.4107  0.0691
   10MOL   C226 5104   7.726   5.585   0.773  0.1741  0.2844  0.1537
   10MOL   C227 5105   7.679   5.458   0.712  0.1791 -0.0089 -0.6940
   10MOL   C228 5106   0.005   5.663   0.668  0.1432  0.6933 -0.3828
   10MOL   H229 5107   7.246   5.321   0.590 -0.5892 -0.2273  0.2401
   10MOL   H230 5108   7.073   5.329   0.591  0.1424 -0.0955  0.6751
   10MOL   H231 5109   7.174   5.470   0.549 -0.7160  1.6630  1.6544
   10MOL   H232 5110   7.181   5.346   0.836 -0.9041  0.7851  1.5301
   10MOL   H233 5111   7.069   5.466   0.802 -0.4888 -1.1127 -0.1537
   10MOL   H234 5112   7.233   5.635   0.745  0.8816 -0.0822 -0.2596
   10MOL   H235 5113   7.363   5.517   0.750  0.7826  1.1180 -0.0261
   10MOL   H236 5114   7.207   5.586   0.994  0.0704 -3.1666  1.7398
   10MOL   H237 5115   7.327   5.461   0.974  0.0977  0.0849 -0.8667
   10MOL   H238 5116   7.431   5.655   1.064 -2.3935 -1.4435  0.3460
   10MOL   H239 5117   7.391   5.761   0.924 -4.0184 -0.3964  0.6584
   10MOL   H240 5118   7.764   5.400   0.675 -0.3832  0.1329 -2.2572
   10MOL   H241 5119   7.613   5.473   0.627 -1.2359  1.8801  0.7045
   10MOL   H242 5120   7.626   5.398   0.786  2.6772 -1.1755  0.2201
   10MOL   H243 5121   0.109   5.664   0.703 -0.8890 -1.6448  3.0569
   10MOL   H244 5122   7.799   5.769   0.685 -0.0503  0.7861 -1.1924
   10MOL   C245 5123   7.716   6.274   0.420 -0.3794 -0.6461 -0.0484
   10MOL   C246 5124   7.576   6.219   0.448 -0.4645  0.0577 -0.0806
   10MOL   C247 5125   7.594   6.064   0.442  0.0311  0.5740 -0.2594
   10MOL   C248 5126   7.463   5.987   0.474  0.0927  0.0943 -0.2032
   10MOL   C249 5127   7.488   5.836   0.438 -0.0333  0.2155  0.0256
   10MOL   O250 5128   7.616   5.801   0.479  0.5489 -0.1251  0.6677
   10MOL   C251 5129   7.667   5.678   0.462 -0.7565  1.3935  0.4752
   10MOL   O252 5130   7.604   5.588   0.405 -0.9751 -0.4973  0.6095
   10MOL   C253 5131   7.811   5.651   0.512  0.7766 -0.1898 -0.2187
   10MOL   C254 5132   0.050   5.515   0.462 -0.3728  0.3648  0.1884
   10MOL   C255 5133   0.095   5.755   0.447  0.4812 -0.8406 -0.3960
   10MOL   H256 5134   7.758   6.238   0.326  0.1809  1.3770 -0.5850
   10MOL   H257 5135   7.719   6.383   0.418 -0.1384 -0.6321  0.9906
   10MOL   H258 5136   7.781   6.239   0.499  0.8875 -1.5902 -1.4815
   10MOL   H259 5137   7.544   6.255   0.546  0.9745  2.2460 -0.3834
   10MOL   H260 5138   7.512   6.261   0.371 -2.4991 -0.4507  1.3046
   10MOL   H261 5139   7.659   6.038   0.525  0.8662  0.0030 -1.0712
   10MOL   H262 5140   7.639   6.039   0.346 -1.5391 -0.5334 -0.7301
   10MOL   H263 5141   7.437   5.996   0.579  3.3039 -3.1296  0.9551
   10MOL   H264 5142   7.378   6.011   0.410 -1.9727 -0.1393  2.3767
   10MOL   H265 5143   7.410   5.777   0.487  1.3305 -0.1169  1.8422
   10MOL   H266 5144   7.479   5.837   0.330  2.7779 -0.7063 -0.2579
   10MOL   H267 5145   0.063   5.518   0.354 -0.0784  0.9975  0.2432
   10MOL   H268 5146   0.133   5.474   0.520 -1.0415  1.6527  2.1012
   10MOL   H269 5147   7.793   5.433   0.472 -0.2919  0.2564 -0.1091
   10MOL   H270 5148   0.102   5.723   0.343 -0.8910 -3.1323  0.1782
   10MOL   H271 5149   0.044   5.851   0.441  1.2601 -0.3288  0.9116
   10MOL   C272 5150   0.816   6.125   0.588  0.3402 -0.2078 -0.3381
   10MOL   C273 5151   0.692   6.214   0.583 -0.4409  0.4540  0.6739
   10MOL   C274 5152   0.556   6.141   0.598  0.6717  0.5823  0.6786
   10MOL   C275 5153   0.531   6.068   0.733  0.6236 -0.3675  0.4856
   10MOL   C276 5154   0.384   6.011   0.736  0.5637 -0.0637 -0.0465
   10MOL   O277 5155   0.368   5.909   0.644  0.4418  0.4747 -0.8724
   10MOL   C278 5156   0.242   5.886   0.604 -0.3833  0.0383  0.3590
   10MOL   O279 5157   0.136   5.944   0.647 -0.0641 -0.6555 -0.5468
   10MOL   C280 5158   0.239   5.794   0.482  0.1975 -0.5098  0.3049
   10MOL   C281 5159   0.330   5.669   0.514 -0.1994 -0.3124 -0.1312
   10MOL   C282 5160   0.313   5.873   0.370 -0.2347  0.2900 -0.2945
   10MOL   H283 5161   0.816   6.084   0.689 -0.7105  0.0277 -0.2343
   10MOL   H284 5162   0.830   6.040   0.522 -1.5368 -0.7860 -0.0072
   10MOL   H285 5163   0.904   6.189   0.596 -0.1854  0.6118 -0.9738
   10MOL   H286 5164   0.699   6.284   0.666 -5.4134  1.7161  0.1396
   10MOL   H287 5165   0.702   6.272   0.491 -2.3280  1.6122  1.1825
   10MOL   H288 5166   0.487   6.224   0.581 -1.3189 -1.1920 -0.0609
   10MOL   H289 5167   0.545   6.066   0.520  0.9778  0.4736  0.7401
   10MOL   H290 5168   0.606   5.990   0.750  0.1974 -0.7618  0.5465
   10MOL   H291 5169   0.547   6.139   0.814 -0.0200 -0.1512  0.4202
   10MOL   H292 5170   0.313   6.089   0.709  2.1810  1.3159 -0.3554
   10MOL   H293 5171   0.351   5.973   0.832 -1.0314  3.2009  0.7768
   10MOL   H294 5172   0.328   5.617   0.610 -0.4728 -1.8318 -0.9485
   10MOL   H295 5173   0.313   5.587   0.444 -2.1025  0.8918 -1.1266
   10MOL   H296 5174   0.436   5.695   0.512 -0.0712 -0.4579  2.6891
   10MOL   H297 5175   0.407   5.908   0.413 -1.2372  0.1686  2.0436
   10MOL   H298 5176   0.346   5.791   0.305 -2.6158 -0.8366 -0.1345
   10MOL   C299 5177   7.659   5.380   0.023 -0.2161 -0.4360 -0.6022
   10MOL   C300 5178   7.635   5.509   7.768 -0.0175 -1.0915 -0.4191
   10MOL   C301 5179   7.752   5.608   7.760  0.1468  0.3103  0.2796
   10MOL   C302 5180   0.002   5.669   0.075  0.1562 -0.2222 -0.1605
   10MOL   C303 5181   0.067   5.802   0.041  0.2304  0.0410 -0.5141
   10MOL   O304 5182   0.151   5.845   0.152  0.0068 -0.1413  0.0863
   10MOL   C305 5183   0.145   5.967   0.196 -0.4162 -0.1204 -0.1024
   10MOL   O306 5184   0.059   6.054   0.162 -0.5567  0.0743 -0.5553
   10MOL   C307 5185   0.265   6.002   0.291  0.5928  0.6870  0.1635
   10MOL   C308 5186   0.201   6.102   0.389 -1.1060  0.2928  0.7026
   10MOL   C309 5187   0.379   6.082   0.217 -0.0790  0.0867  0.3632
   10MOL   H310 5188   7.679   5.402   0.128  1.5522  0.3546 -1.0819
   10MOL   H311 5189   7.737   5.312   7.804 -0.1883 -0.0199 -1.4113
   10MOL   H312 5190   7.561   5.333   0.024 -1.5735  2.2853 -0.0318
   10MOL   H313 5191   7.544   5.553   7.810  1.2493 -0.2396  1.5066
   10MOL   H314 5192   7.609   5.481   7.666  2.7433 -0.8957 -1.2306
   10MOL   H315 5193   7.719   5.693   7.699  2.4229  0.3325 -0.9959
   10MOL   H316 5194   0.022   5.573   7.699 -0.4642 -0.4573 -0.1232
   10MOL   H317 5195   0.063   5.593   0.123  0.5831  2.0774  3.1242
   10MOL   H318 5196   7.728   5.684   0.137  1.1324  0.8786  0.9766
   10MOL   H319 5197   0.128   5.789   7.766 -0.5601 -0.0650 -1.0441
   10MOL   H320 5198   7.810   5.875   0.003  1.1882  0.3755 -1.6937
   10MOL   H321 5199   0.180   6.203   0.353 -1.6838 -0.7524 -1.9917
   10MOL   H322 5200   0.108   6.060   0.427 -1.6869 -1.0060 -2.0827
   10MOL   H323 5201   0.273   6.119   0.470  1.8452 -1.7029 -1.4106
   10MOL   H324 5202   0.440   6.127   0.296  2.7542 -3.5170  0.3975
   10MOL   H325 5203   0.319   6.162   0.175 -0.3689 -0.5767 -0.4965
   10MOL   C326 5204   1.052   5.525   0.440  0.7427 -0.1888 -0.2058
   10MOL   C327 5205   0.970   5.602   0.334 -0.1123  0.0025 -0.7502
   10MOL   C328 5206   0.953   5.751   0.361  0.4069  0.0336 -0.2102
   10MOL   C329 5207   0.847   5.828   0.274 -0.0884 -0.5031 -0.0450
   10MOL   C330 5208   0.697   5.811   0.318  0.3327 -0.4839 -0.3564
   10MOL   O331 5209   0.621   5.915   0.258  0.3315  0.2225  0.1137
   10MOL   C332 5210   0.554   5.898   0.136 -1.1057  0.1953 -0.2763
   10MOL   O333 5211   0.560   5.800   0.061 -0.8285  0.5723 -0.5927
   10MOL   C334 5212   0.469   6.022   0.098 -0.4682 -0.4446 -0.1144
   10MOL   C335 5213   0.389   5.999   7.782  0.5299  0.0711 -0.0416
   10MOL   C336 5214   0.565   6.142   0.075 -0.6760  0.1237 -0.2869
   10MOL   H337 5215   1.010   5.538   0.540  0.0662  1.1751 -0.6509
   10MOL   H338 5216   1.158   5.552   0.445  0.2201  2.0626 -0.7480
   10MOL   H339 5217   1.055   5.418   0.422  4.1202 -0.7101  2.8377
   10MOL   H340 5218   0.872   5.554   0.332  0.4500 -1.1892  0.0843
   10MOL   H341 5219   1.017   5.581   0.238 -0.0999 -0.1679 -0.7065
   10MOL   H342 5220   1.046   5.807   0.354  1.3298 -0.9443  3.3076
   10MOL   H343 5221   0.924   5.767   0.465 -0.1624  0.5768 -0.4495
   10MOL   H344 5222   0.856   5.809   0.167  2.8887  0.6063 -0.0375
   10MOL   H345 5223   0.865   5.935   0.285  1.9221 -0.6850 -1.4458
   10MOL   H346 5224   0.682   5.789   0.424 -2.9946 -2.8624 -1.2621
   10MOL   H347 5225   0.659   5.716   0.281 -0.3829 -0.2749 -0.1643
   10MOL   H348 5226   0.447   5.977   7.693 -0.0964  1.2982 -0.7818
   10MOL   H349 5227   0.333   6.092   7.767 -0.6159 -0.6771 -0.4249
   10MOL   H350 5228   0.316   5.919   7.796  0.1177  0.5099  0.3660
   10MOL   H351 5229   0.609   6.163   0.172  0.7713 -0.8093 -0.7189
   10MOL   H352 5230   0.501   6.230   0.065  0.9406  1.4146  0.4652
   10MOL   C353 5231   0.210   6.269   7.109 -1.0101  0.7415  0.5236
   10MOL   C354 5232   0.245   6.290   7.262 -1.3423  0.3908  0.0874
   10MOL   C355 5233   0.302   6.166   7.317  0.4518  0.3711  0.1796
   10MOL   C356 5234   0.331   6.189   7.466 -0.0283 -0.0462 -0.2246
   10MOL   C357 5235   0.455   6.282   7.494 -0.1565 -0.2501 -0.4018
   10MOL   O358 5236   0.517   6.256   7.618 -0.2438 -1.0799  0.0696
   10MOL   C359 5237   0.615   6.161   7.632  0.1054 -0.1394 -0.4901
   10MOL   O360 5238   0.652   6.092   7.542 -0.9720  0.1258 -0.0481
   10MOL   C361 5239   0.679   6.157   7.774 -0.6591 -0.3219  0.7395
   10MOL   C362 5240   0.782   6.046   7.785 -0.4377  0.4520 -0.2730
   10MOL   C363 5241   0.747   6.298   7.797  0.0051  0.0263  0.1595
   10MOL   H364 5242   0.292   6.246   7.041 -1.7952 -2.6825  0.6293
   10MOL   H365 5243   0.152   6.353   7.070 -3.3801 -0.9352  0.2975
   10MOL   H366 5244   0.148   6.180   7.096  0.9136 -0.6562  0.7074
   10MOL   H367 5245   0.319   6.368   7.272 -0.5223 -0.3384 -0.2097
   10MOL   H368 5246   0.157   6.331   7.311 -0.7612  3.4455 -1.3123
   10MOL   H369 5247   0.383   6.127   7.254 -1.3275  0.6529 -2.3294
   10MOL   H370 5248   0.232   6.082   7.318 -0.3266  1.0126 -0.1548
   10MOL   H371 5249   0.350   6.095   7.517 -0.9392 -0.8266 -1.2948
   10MOL   H372 5250   0.246   6.228   7.522  0.9560 -2.6805  3.2640
   10MOL   H373 5251   0.531   6.279   7.416  0.0280 -0.5072 -0.2099
   10MOL   H374 5252   0.423   6.386   7.493  1.9274  0.4239  0.9498
   10MOL   H375 5253   0.748   5.943   7.770  1.6612 -0.1601 -1.0201
   10MOL   H376 5254   0.865   6.070   7.718  0.6493 -0.0352  0.8823
   10MOL   H377 5255   0.820   6.057   0.072  1.6661  1.3097 -1.1181
   10MOL   H378 5256   0.670   6.372   7.775 -0.0074  0.1558  0.6393
   10MOL   H379 5257   0.754   6.298   0.092 -0.9948 -1.9363  0.2311
   10MOL   C380 5258   1.319   6.460   0.451  0.2348 -0.4305  0.3959
   10MOL   C381 5259   1.249   6.360   0.353 -0.1163  0.1829  0.0139
   10MOL   C382 5260   1.104   6.325   0.396 -0.0080  1.1918 -0.1361
   10MOL   C383 5261   1.057   6.194   0.319 -0.2024 -0.3002 -0.6584
   10MOL   C384 5262   1.092   6.192   0.172  0.6805 -0.0094  0.1988
   10MOL   O385 5263   1.002   6.274   0.105  0.7680 -0.3982 -0.3892
   10MOL   C386 5264   0.999   6.266   7.790  0.1015 -0.8992 -0.3633
   10MOL   O387 5265   1.083   6.211   7.716 -0.3813 -0.6895  0.1002
   10MOL   C388 5266   0.886   6.354   7.729 -0.0988  0.6152 -0.0810
   10MOL   C389 5267   0.883   6.344   7.572 -0.2966  0.4144 -0.3566
   10MOL   C390 5268   0.900   6.502   7.772  0.5239 -0.6728 -0.1003
   10MOL   H391 5269   1.428   6.464   0.440  0.0785  1.8552 -0.5410
   10MOL   H392 5270   1.270   6.555   0.432  0.0135 -0.4004  1.0936
   10MOL   H393 5271   1.303   6.441   0.558 -3.8579  0.7449  0.0838
   10MOL   H394 5272   1.309   6.269   0.360  1.2512  1.1025  0.3693
   10MOL   H395 5273   1.247   6.397   0.250 -1.5271 -0.9895 -0.3986
   10MOL   H396 5274   1.094   6.314   0.504  0.1942  1.6343 -0.0703
   10MOL   H397 5275   1.044   6.411   0.365 -0.1163  1.3509  0.4984
   10MOL   H398 5276   1.104   6.109   0.368 -1.8939 -2.0899 -2.0789
   10MOL   H399 5277   0.953   6.173   0.344  0.1385  0.1169  1.2213
   10MOL   H400 5278   1.062   6.091   0.144 -1.9699  1.0203 -0.8358
   10MOL   H401 5279   1.195   6.212   0.143  0.3872 -0.2478 -1.0383
   10MOL   H402 5280   0.801   6.401   7.528  0.6068  2.9726  1.1556
   10MOL   H403 5281   0.864   6.242   7.538  2.3047 -0.3654  0.4115
   10MOL   H404 5282   0.974   6.362   7.513 -1.2844 -0.7163 -2.2798
   10MOL   H405 5283   0.897   6.494   0.067  1.1051  0.1389 -0.0219
   10MOL   H406 5284   0.801   6.547   7.761 -1.0232 -3.5596  1.5006
   10MOL   C407 5285   0.439   6.934   0.314  0.7055  0.0420  0.3111
   10MOL   C408 5286   0.536   7.050   0.260  0.1087  0.3381  0.5121
   10MOL   C409 5287   0.684   7.016   0.248  0.1035  0.0278 -0.6333
   10MOL   C410 5288   0.704   6.903   0.152 -0.6462  0.4621  0.3437
   10MOL   C411 5289   0.856   6.877   0.129 -0.1395  0.6483  0.2192
   10MOL   O412 5290   0.875   6.771   0.029 -0.1102  0.1022 -0.5405
   10MOL   C413 5291   1.004   6.720   0.016 -0.0832 -0.1560  0.2441
   10MOL   O414 5292   1.100   6.760   0.084 -0.2048 -0.1983  0.2179
   10MOL   C415 5293   1.010   6.607   7.728  0.8183  0.0487  0.6009
   10MOL   C416 5294   1.146   6.530   7.733 -0.4988 -0.4066  0.2463
   10MOL   C417 5295   0.970   6.661   7.582 -0.3902 -0.0406 -0.5415
   10MOL   H418 5296   0.445   6.835   0.269 -0.6791  0.7958 -1.5961
   10MOL   H419 5297   0.436   6.918   0.422  4.5893  0.5262  0.5758
   10MOL   H420 5298   0.333   6.957   0.312  0.1449 -2.3269 -3.2493
   10MOL   H421 5299   0.534   7.141   0.321  0.1551 -0.9516  2.4800
   10MOL   H422 5300   0.499   7.091   0.166 -1.6864 -1.3967  0.4432
   10MOL   H423 5301   0.741   7.105   0.221  2.2591 -1.3152 -0.5905
   10MOL   H424 5302   0.715   6.988   0.349  0.3900 -1.1151 -1.0358
   10MOL   H425 5303   0.663   6.938   0.057  1.2039  0.3833 -0.5053
   10MOL   H426 5304   0.642   6.817   0.177 -1.5102  0.4244 -1.8145
   10MOL   H427 5305   0.910   6.967   0.100  1.3043 -0.3884 -0.4051
   10MOL   H428 5306   0.902   6.843   0.222 -0.4919  0.1443  0.2145
   10MOL   H429 5307   1.232   6.596   7.734 -0.9404  0.1711  1.6578
   10MOL   H430 5308   1.163   6.468   7.645  2.4171  1.7281 -0.7988
   10MOL   H431 5309   1.149   6.477   0.014  0.4116 -1.0674 -0.1522
   10MOL   H432 5310   0.875   6.710   7.603  0.9713  2.9495 -1.1411
   10MOL   H433 5311   0.945   6.579   7.514 -0.0687 -2.8832  2.6463
   10MOL   C434 5312   1.400   6.089   7.364 -0.2252 -0.3019  0.7921
   10MOL   C435 5313   1.267   6.146   7.400 -0.6400  0.0799  0.7782
   10MOL   C436 5314   1.292   6.291   7.449  0.0233  0.6819 -0.1215
   10MOL   C437 5315   1.306   6.394   7.330  0.8500  0.0129 -0.1008
   10MOL   C438 5316   1.320   6.539   7.386  0.7917 -0.6704 -0.4940
   10MOL   O439 5317   1.198   6.592   7.427  0.2509 -0.9496  0.1399
   10MOL   C440 5318   1.198   6.714   7.470  0.3068 -0.2612 -0.2067
   10MOL   O441 5319   1.297   6.786   7.485  0.2759  0.1672 -0.0450
   10MOL   C442 5320   1.054   6.772   7.499 -0.4907  0.0730  0.4070
   10MOL   C443 5321   1.080   6.896   7.587 -0.7916 -0.3822 -0.4684
   10MOL   C444 5322   0.978   6.809   7.366 -0.0449  0.1877  0.2425
   10MOL   H445 5323   1.393   5.997   7.307 -0.6247  0.2887 -0.1208
   10MOL   H446 5324   1.457   6.157   7.300 -0.2563 -0.2089  0.8629
   10MOL   H447 5325   1.459   6.070   7.454 -2.5723 -1.3486  2.1492
   10MOL   H448 5326   1.213   6.145   7.305 -2.9223  1.2196  2.0430
   10MOL   H449 5327   1.233   6.076   7.475 -0.1216  0.5495  1.4544
   10MOL   H450 5328   1.200   6.320   7.500 -0.8939 -2.8720  0.3383
   10MOL   H451 5329   1.375   6.302   7.518  0.4008 -1.2417 -0.2446
   10MOL   H452 5330   1.223   6.388   7.260 -0.5466  2.1041  1.3126
   10MOL   H453 5331   1.399   6.386   7.274  2.3153  1.6375  2.0390
   10MOL   H454 5332   1.370   6.602   7.312  1.4853 -0.3743  0.2141
   10MOL   H455 5333   1.382   6.537   7.476 -0.0442 -2.6807  0.0656
   10MOL   H456 5334   1.141   6.870   7.673  0.6830  1.8330 -0.7821
   10MOL   H457 5335   1.117   6.983   7.532  0.2263  1.0003  2.3080
   10MOL   H458 5336   0.986   6.932   7.630  0.7673  3.1811  0.1499
   10MOL   H459 5337   0.888   6.863   7.397 -1.7186 -2.7180  0.5879
   10MOL   H460 5338   0.939   6.716   7.324  2.6642  0.0976 -2.2195
   10MOL   C461 5339   1.284   7.033   6.545 -0.2118  0.1607 -0.1671
   10MOL   C462 5340   1.369   7.025   6.682 -0.3976 -0.2890 -0.1238
   10MOL   C463 5341   1.291   6.937   6.775 -0.5124 -0.2383  0.6557
   10MOL   C464 5342   1.369   6.908   6.902  0.1632  0.4877 -0.0693
   10MOL   C465 5343   1.300   6.806   6.993 -0.3938 -1.0035  0.5167
   10MOL   O466 5344   1.211   6.868   7.081  0.1276 -0.5006 -0.2539
   10MOL   C467 5345   1.124   6.797   7.153 -0.6572 -0.2022 -0.5804
   10MOL   O468 5346   1.112   6.672   7.157  0.2245 -0.3477 -0.1952
   10MOL   C469 5347   1.038   6.888   7.239  0.0921  0.0898  0.5985
   10MOL   C470 5348   1.130   6.998   7.294 -0.2594  0.0634  0.3311
   10MOL   C471 5349   0.920   6.952   7.155 -0.4464  0.5238 -0.1614
   10MOL   H472 5350   1.236   6.938   6.526 -1.4064  0.6187  0.5226
   10MOL   H473 5351   1.338   7.057   6.454  0.3667  2.1681  0.6710
   10MOL   H474 5352   1.215   7.117   6.556 -0.7141 -0.4877  1.9460
   10MOL   H475 5353   1.378   7.126   6.722 -1.1170 -0.1749 -0.2438
   10MOL   H476 5354   1.469   6.987   6.662 -0.2751 -0.4127  0.6733
   10MOL   H477 5355   1.282   6.849   6.711  0.0407 -0.3020  0.6567
   10MOL   H478 5356   1.187   6.967   6.786 -0.1613  1.0283  0.5747
   10MOL   H479 5357   1.403   7.000   6.950 -0.8919  1.2718 -0.8055
   10MOL   H480 5358   1.465   6.862   6.878 -0.8128 -1.4332 -0.3727
   10MOL   H481 5359   1.244   6.729   6.940  1.0708 -1.9970  0.3971
   10MOL   H482 5360   1.382   6.752   7.041 -0.8368 -0.3662  2.0324
   10MOL   H483 5361   1.067   7.063   7.354  0.9614  2.0120 -0.4474
   10MOL   H484 5362   1.167   7.061   7.213 -2.2480  0.7585 -0.0893
   10MOL   H485 5363   1.217   6.962   7.348 -0.2070 -0.4625 -0.0949
   10MOL   H486 5364   0.972   7.030   7.099 -2.3200  2.4832  0.7727
   10MOL   H487 5365   0.864   7.003   7.233 -0.1320 -0.1455  0.5128
   10MOL   C488 5366   0.698   6.077   7.209  0.7444  0.0946 -0.0067
   10MOL   C489 5367   0.706   6.231   7.204  0.4800  0.1374 -0.1470
   10MOL   C490 5368   0.817   6.281   7.101 -0.1344  0.2359  0.5559
   10MOL   C491 5369   0.848   6.433   7.093  0.2229 -0.4650 -0.0654
   10MOL   C492 5370   0.727   6.521   7.062  0.1258 -0.4020  0.2992
   10MOL   O493 5371   0.769   6.647   7.014  0.5287  0.1705 -1.0677
   10MOL   C494 5372   0.777   6.753   7.102 -0.1178 -0.6254  0.1182
   10MOL   O495 5373   0.731   6.757   7.213  1.2569 -0.2953 -0.3956
   10MOL   C496 5374   0.840   6.882   7.044  0.2883  0.2966 -0.1924
   10MOL   C497 5375   0.923   6.856   6.916 -0.5233 -0.3452 -0.3611
   10MOL   C498 5376   0.714   6.972   7.011 -0.2090 -0.2798  0.2777
   10MOL   H499 5377   0.631   6.042   7.131  0.0810  3.3131 -0.9356
   10MOL   H500 5378   0.797   6.032   7.214  1.0938  0.8701  0.0287
   10MOL   H501 5379   0.634   6.055   7.295  1.6256 -0.0751  0.6057
   10MOL   H502 5380   0.747   6.262   7.300  3.7447 -0.2935 -1.3224
   10MOL   H503 5381   0.613   6.287   7.200 -0.7123 -1.7598  0.1746
   10MOL   H504 5382   0.912   6.236   7.131 -0.1163  0.3859  0.7243
   10MOL   H505 5383   0.790   6.254   6.999 -0.9506  0.7908  0.6205
   10MOL   H506 5384   0.919   6.458   7.014 -0.1393  0.0744 -0.2240
   10MOL   H507 5385   0.883   6.474   7.188  0.0004 -0.6430  0.0902
   10MOL   H508 5386   0.660   6.475   6.990  0.8008  0.3891 -0.8555
   10MOL   H509 5387   0.677   6.527   7.159  0.5274  3.0985  0.3543
   10MOL   H510 5388   0.980   6.763   6.919 -0.1429 -0.0917  0.1630
   10MOL   H511 5389   0.980   6.939   6.875  2.0003 -0.5253  2.6483
   10MOL   H512 5390   0.859   6.835   6.830 -1.6597 -0.8635  0.5852
   10MOL   H513 5391   0.655   6.974   7.102 -1.9052  0.5311 -0.8071
   10MOL   H514 5392   0.644   6.919   6.947 -1.8305  1.5052  0.5274
   10MOL   C515 5393   0.438   7.629   7.055  0.1421 -0.0620 -0.2654
   10MOL   C516 5394   0.403   7.580   7.195  0.5667  0.2725  0.1316
   10MOL   C517 5395   0.458   7.445   7.232  0.1308  0.1974 -0.1519
   10MOL   C518 5396   0.618   7.442   7.230  0.7408  0.2268  0.5855
   10MOL   C519 5397   0.689   7.313   7.287 -0.4034  0.6390 -0.1569
   10MOL   O520 5398   0.703   7.206   7.194 -0.0325  0.0119  0.2479
   10MOL   C521 5399   0.768   7.221   7.073 -0.2575 -0.3313 -0.7640
   10MOL   O522 5400   0.843   7.315   7.048 -0.2980 -0.3051  0.2738
   10MOL   C523 5401   0.724   7.124   6.961 -0.1444  0.2879  0.2978
   10MOL   C524 5402   0.583   7.167   6.928 -0.3073 -0.6460  0.0039
   10MOL   C525 5403   0.815   7.139   6.827 -0.5395  0.2027  0.3830
   10MOL   H526 5404   0.539   7.669   7.058  0.8905 -1.8296 -1.1613
   10MOL   H527 5405   0.428   7.552   6.978  3.2445  0.1741 -0.9901
   10MOL   H528 5406   0.369   7.709   7.027  0.0089 -0.3968 -0.9224
   10MOL   H529 5407   0.430   7.660   7.265 -2.0692  0.6381  0.7633
   10MOL   H530 5408   0.295   7.593   7.193  0.5166  0.0736  1.1225
   10MOL   H531 5409   0.417   7.411   7.327  0.2751 -1.7699 -0.7795
   10MOL   H532 5410   0.411   7.386   7.154  0.1279 -0.2186  0.1615
   10MOL   H533 5411   0.647   7.531   7.286 -0.7325 -0.1549  1.9899
   10MOL   H534 5412   0.641   7.458   7.125 -1.6024  1.1470  0.1704
   10MOL   H535 5413   0.792   7.333   7.318 -0.9812  0.3779  1.9776
   10MOL   H536 5414   0.633   7.282   7.375  1.1645 -1.1439  0.2213
   10MOL   H537 5415   0.539   7.115   6.843 -2.8263  0.0599  0.8365
   10MOL   H538 5416   0.579   7.272   6.901  0.5430 -0.2751  1.2880
   10MOL   H539 5417   0.520   7.152   7.016  1.4412 -2.2257  1.0276
   10MOL   H540 5418   0.813   7.044   6.774 -1.5796  1.5260 -2.0319
   10MOL   H541 5419   0.918   7.159   6.856 -1.0842  1.5958  1.3808
   10MOL   H542 5420   0.781   7.228   6.774  1.1126  1.2576  1.0381
   11MOL     C1 5421   0.644   5.249   7.374 -0.7589 -0.8572  0.5038
   11MOL     C2 5422   0.608   5.212   7.229  1.1777  0.1419  0.3385
   11MOL     C3 5423   0.543   5.328   7.158  0.6942  0.0685  0.3255
   11MOL     C4 5424   0.442   5.287   7.049  0.5948  0.2411  0.5974
   11MOL     C5 5425   0.362   5.414   7.005  0.5359 -0.1980  0.5597
   11MOL     O6 5426   0.270   5.449   7.106  1.3265  0.8823 -0.0660
   11MOL     C7 5427   0.138   5.399   7.109  0.5031 -0.1615 -0.1191
   11MOL     O8 5428   0.089   5.325   7.020 -0.8646  0.1328  0.8394
   11MOL     C9 5429   0.050   5.448   7.222  0.2402 -0.0226 -0.5639
   11MOL    C10 5430   0.033   5.598   7.228 -0.5604 -0.6092  0.0070
   11MOL    C11 5431   0.107   5.392   7.356 -0.1725 -0.5798  0.0781
   11MOL    H12 5432   0.693   5.171   7.432 -0.5126 -1.3219 -0.3223
   11MOL    H13 5433   0.550   5.275   7.424 -0.9913  0.0331 -0.3829
   11MOL    H14 5434   0.713   5.333   7.370  0.5947 -2.0617 -2.4264
   11MOL    H15 5435   0.691   5.174   7.170  0.1541 -1.9556  0.2013
   11MOL    H16 5436   0.544   5.125   7.243 -1.1117  0.9669 -4.0153
   11MOL    H17 5437   0.480   5.385   7.227 -0.4526  0.2252 -0.8260
   11MOL    H18 5438   0.618   5.403   7.133  0.0456  1.2247  1.7212
   11MOL    H19 5439   0.377   5.208   7.088  2.4452 -0.2328  2.7936
   11MOL    H20 5440   0.505   5.256   6.965 -2.5271 -1.2849 -1.3082
   11MOL    H21 5441   0.438   5.489   6.983 -0.3198 -0.5051 -3.8965
   11MOL    H22 5442   0.314   5.390   6.910  0.1083  0.2951  0.6492
   11MOL    H23 5443   0.043   5.655   7.135 -0.0647  0.4929  0.7212
   11MOL    H24 5444   0.126   5.633   7.273 -0.4721  0.3758 -0.9205
   11MOL    H25 5445   7.753   5.629   7.274 -0.3278 -2.2801  1.6633
   11MOL    H26 5446   0.070   5.470   7.424  3.6515 -0.2891  1.9354
   11MOL    H27 5447   0.215   5.404   7.356 -0.3261  0.8856 -0.3037
   11MOL    H28 5448   7.761   5.416   7.213  0.0145 -0.1077  1.9673
   11MOL    C29 5449   0.557   5.445   0.243 -0.6607 -0.4091  0.3704
   11MOL    C30 5450   0.443   5.456   0.146  0.3864  0.1707  0.7428
   11MOL    C31 5451   0.490   5.425   7.814 -1.5784 -0.4769 -0.3500
   11MOL    C32 5452   0.376   5.431   7.711  0.1127  0.1351 -0.3850
   11MOL    C33 5453   0.262   5.340   7.746  0.4562  0.6363 -0.2378
   11MOL    O34 5454   0.159   5.323   7.639  0.3263  0.3598 -0.4977
   11MOL    C35 5455   0.183   5.245   7.539 -0.8948 -0.2911  0.1913
   11MOL    O36 5456   0.288   5.186   7.524 -0.2542  0.4601 -0.1488
   11MOL    C37 5457   0.083   5.253   7.418 -0.1165  0.4234 -0.6826
   11MOL    C38 5458   0.123   5.148   7.310  0.0022 -0.2316  0.3298
   11MOL    C39 5459   7.741   5.248   7.457  0.5579 -0.1028  0.2629
   11MOL    H40 5460   0.529   5.481   0.342  1.7865 -1.1632  1.3800
   11MOL    H41 5461   0.569   5.337   0.253  1.3344 -0.2273  0.1328
   11MOL    H42 5462   0.649   5.490   0.206 -1.8073  0.9784 -0.8432
   11MOL    H43 5463   0.388   5.550   0.153 -0.3220  0.0180 -1.9918
   11MOL    H44 5464   0.369   5.382   0.177  1.7989 -0.8890  1.5873
   11MOL    H45 5465   0.545   5.331   7.805 -2.0085 -0.6961 -0.7163
   11MOL    H46 5466   0.565   5.496   7.779  0.1467 -0.5913  2.9617
   11MOL    H47 5467   0.347   5.536   7.711  1.0683  0.4062 -0.1196
   11MOL    H48 5468   0.432   5.416   7.618 -0.8442  1.0491 -1.1284
   11MOL    H49 5469   0.202   5.385   0.012 -0.0832 -1.8781  0.8178
   11MOL    H50 5470   0.296   5.246   7.788 -0.3593 -1.0126 -3.1666
   11MOL    H51 5471   0.115   5.048   7.353 -1.2584 -0.0215  0.5993
   11MOL    H52 5472   0.219   5.160   7.260  0.1510 -1.6191  0.2494
   11MOL    H53 5473   0.054   5.157   7.227 -0.2525 -0.3524  0.5281
   11MOL    H54 5474   7.689   5.299   7.376  1.2887  0.4793  0.1597
   11MOL    H55 5475   7.737   5.313   7.544  1.5431  0.9727 -0.4898
   11MOL    C56 5476   7.677   5.099   6.839  0.1546  0.1340  0.2723
   11MOL    C57 5477   7.563   5.001   6.867  0.0090  0.0275 -0.2380
   11MOL    C58 5478   7.437   5.058   6.937  0.4261  0.0856 -0.7837
   11MOL    C59 5479   7.467   5.120   7.074  0.8153  0.3835 -0.6926
   11MOL    C60 5480   7.515   5.013   7.171  0.5563  0.6482 -0.5460
   11MOL    O61 5481   7.544   5.080   7.290  0.3561 -0.3328 -0.2251
   11MOL    C62 5482   7.639   5.020   7.369 -0.0018  0.9791 -0.4405
   11MOL    O63 5483   7.701   4.914   7.336 -0.1662 -0.1764  0.6317
   11MOL    C64 5484   7.660   5.111   7.498 -0.0195  0.4913 -0.0911
   11MOL    C65 5485   7.518   5.156   7.544 -0.0540 -0.2870 -0.4420
   11MOL    C66 5486   7.735   5.045   7.617 -0.0245 -0.0439 -0.2357
   11MOL    H67 5487   7.752   5.040   6.785  0.2385 -0.4387  1.0012
   11MOL    H68 5488   7.720   5.135   6.933 -0.3686 -0.8544  0.8991
   11MOL    H69 5489   7.663   5.174   6.762  0.2615 -1.1154 -1.0001
   11MOL    H70 5490   7.535   4.952   6.773  0.8451  0.1615 -0.5657
   11MOL    H71 5491   7.610   4.918   6.920  1.1357  1.9541  1.8440
   11MOL    H72 5492   7.387   5.130   6.871  0.2315 -0.3280 -1.0883
   11MOL    H73 5493   7.372   4.970   6.937 -0.0675  0.4441  0.4924
   11MOL    H74 5494   7.363   5.142   7.098  0.9354  1.4060 -1.0695
   11MOL    H75 5495   7.527   5.211   7.071 -0.6637  1.4065  0.0790
   11MOL    H76 5496   7.444   4.930   7.177  0.9260  0.0918 -3.3685
   11MOL    H77 5497   7.605   4.982   7.117  0.0096 -0.3062 -0.9301
   11MOL    H78 5498   7.526   5.195   7.646  0.1789 -0.3504 -0.4349
   11MOL    H79 5499   7.434   5.087   7.545  0.5018 -0.9927 -2.0958
   11MOL    H80 5500   7.493   5.241   7.481 -0.4211 -0.0163  0.0635
   11MOL    H81 5501   7.766   5.122   7.688 -0.9472  0.5754 -0.4941
   11MOL    H82 5502   0.013   5.007   7.572  0.3851  1.0908 -0.3648
   11MOL    C83 5503   7.533   5.118   0.704  0.0921 -0.2006  1.4380
   11MOL    C84 5504   7.622   5.111   0.575 -0.2912 -0.0058  0.1437
   11MOL    C85 5505   7.538   5.075   0.449  0.0050  0.1964 -0.0668
   11MOL    C86 5506   7.612   5.086   0.312  0.1632  0.2370  0.1179
   11MOL    C87 5507   7.507   5.062   0.191 -0.7292  0.1942  0.4752
   11MOL    O88 5508   7.595   5.056   0.087 -0.5715 -0.1651  0.7665
   11MOL    C89 5509   7.558   4.973   7.791  0.1083  0.0192 -1.6361
   11MOL    O90 5510   7.439   4.942   7.766 -0.9335  0.0116 -0.0989
   11MOL    C91 5511   7.681   4.926   7.701  1.1201  0.9421  1.3083
   11MOL    C92 5512   7.634   4.810   7.611  0.1245  0.3064 -0.1858
   11MOL    C93 5513   7.796   4.879   7.788 -0.4277 -0.1115  0.8034
   11MOL    H94 5514   7.462   5.201   0.698  1.6131  1.0800  0.7097
   11MOL    H95 5515   7.471   5.030   0.724  0.4111 -0.5746  0.7954
   11MOL    H96 5516   7.590   5.131   0.796  0.0189  0.1577  1.4341
   11MOL    H97 5517   7.692   5.029   0.588 -1.1380 -0.7973 -0.2354
   11MOL    H98 5518   7.679   5.205   0.569  2.2366 -1.4899 -0.0194
   11MOL    H99 5519   7.449   5.138   0.444 -0.3528 -0.3402 -0.4281
   11MOL   H100 5520   7.503   4.973   0.457  1.0032 -0.0490  1.5341
   11MOL   H101 5521   7.701   5.023   0.315 -0.6672 -0.9451  0.0945
   11MOL   H102 5522   7.646   5.189   0.303 -1.8085  0.8729 -0.2683
   11MOL   H103 5523   7.445   5.151   0.183  0.9964  1.3318 -0.5363
   11MOL   H104 5524   7.452   4.969   0.204  0.8008 -0.8927 -0.6390
   11MOL   H105 5525   7.582   4.737   7.673  0.8736  0.9251  1.2125
   11MOL   H106 5526   7.717   4.745   7.584 -2.3789 -2.5980 -1.1522
   11MOL   H107 5527   7.554   4.824   7.539 -1.9343 -0.3072  1.9163
   11MOL   H108 5528   0.072   4.869   7.727  0.0001  2.0752  1.0615
   11MOL   H109 5529   0.014   4.964   0.033 -1.3195  0.6157  0.2499
   11MOL   C110 5530   0.641   4.809   0.466  0.2144  0.3301  0.1656
   11MOL   C111 5531   0.509   4.824   0.391 -0.5471 -0.0759 -0.0074
   11MOL   C112 5532   0.458   4.966   0.386  0.3341 -0.0588  0.3777
   11MOL   C113 5533   0.337   4.979   0.288 -0.1172 -0.2873 -0.3381
   11MOL   C114 5534   0.207   4.914   0.334 -0.4326 -0.1159  0.2060
   11MOL   O115 5535   0.110   4.892   0.229 -0.5173 -0.2405 -0.2472
   11MOL   C116 5536   0.117   4.779   0.157  0.5789 -0.0073  0.0124
   11MOL   O117 5537   0.210   4.698   0.158  0.1277  0.3176  0.2292
   11MOL   C118 5538   7.808   4.754   0.072  0.2052  0.4890  0.5399
   11MOL   C119 5539   0.005   4.624   7.801  0.3854 -0.1002 -0.0226
   11MOL   C120 5540   7.674   4.740   0.163 -0.0634 -0.4123  0.1332
   11MOL   H121 5541   0.630   4.828   0.572 -2.4979  4.2817 -0.7320
   11MOL   H122 5542   0.667   4.705   0.444 -0.3785  0.4470 -1.1509
   11MOL   H123 5543   0.713   4.879   0.424  0.0595 -0.1980 -1.0014
   11MOL   H124 5544   0.518   4.783   0.290  1.8684  0.6488 -0.1030
   11MOL   H125 5545   0.439   4.763   0.448 -0.7147 -0.5143 -0.6688
   11MOL   H126 5546   0.427   4.991   0.488 -0.1368 -2.3067  0.8261
   11MOL   H127 5547   0.537   5.036   0.361  0.6692 -0.6941 -0.3449
   11MOL   H128 5548   0.360   4.945   0.187  0.5546 -1.2876  0.1420
   11MOL   H129 5549   0.319   5.086   0.280 -0.3207 -0.2943  0.0440
   11MOL   H130 5550   0.229   4.819   0.382  0.4525 -1.7315 -3.2065
   11MOL   H131 5551   0.153   4.979   0.403 -0.7704 -0.6266  0.4234
   11MOL   H132 5552   0.065   4.645   7.712 -0.1890 -0.6159 -0.5350
   11MOL   H133 5553   0.060   4.540   0.029 -0.5720 -0.7648 -0.0841
   11MOL   H134 5554   7.722   4.596   7.760  1.2882 -0.7591 -1.7874
   11MOL   H135 5555   7.664   4.830   0.225 -0.0815  0.0413 -0.5237
   11MOL   H136 5556   7.597   4.724   0.088 -0.0617 -0.2396  0.0944
   11MOL   C137 5557   7.381   3.979   0.166 -0.4580  0.2090  0.2842
   11MOL   C138 5558   7.513   4.044   0.126 -0.6715  1.1411  0.0834
   11MOL   C139 5559   7.479   4.163   0.043  0.8357 -0.1534 -0.2069
   11MOL   C140 5560   7.604   4.222   7.794  0.2014 -0.1427  0.1549
   11MOL   C141 5561   7.695   4.289   0.093  0.9372 -0.0388  0.2675
   11MOL   O142 5562   7.648   4.421   0.129 -0.4995  0.4650 -0.1883
   11MOL   C143 5563   7.715   4.483   0.228 -0.5412  1.3115 -0.0896
   11MOL   O144 5564   0.002   4.432   0.280  0.0131  0.0978 -0.6696
   11MOL   C145 5565   7.661   4.621   0.271 -0.5374  0.0026 -0.4770
   11MOL   C146 5566   7.737   4.659   0.394 -0.1823  0.5378  0.7356
   11MOL   C147 5567   7.511   4.619   0.313 -0.1442 -0.4446  0.0278
   11MOL   H148 5568   7.341   3.923   0.082 -1.5178 -1.5804  1.9211
   11MOL   H149 5569   7.305   4.053   0.192 -0.6392  0.9926 -2.3670
   11MOL   H150 5570   7.403   3.908   0.246 -1.4716 -2.6482 -1.8841
   11MOL   H151 5571   7.585   3.979   0.076  0.8132 -0.1502  3.7454
   11MOL   H152 5572   7.568   4.073   0.215 -0.8394  0.6296  0.3561
   11MOL   H153 5573   7.403   4.137   7.784 -0.7135  0.1514  1.2724
   11MOL   H154 5574   7.438   4.233   0.115 -0.4954 -2.3277  1.2030
   11MOL   H155 5575   7.655   4.136   7.750 -0.0172 -0.8140  1.1931
   11MOL   H156 5576   7.577   4.297   7.721 -0.7876 -2.6310 -2.0970
   11MOL   H157 5577   7.800   4.304   0.065  0.7337  1.7517  0.3508
   11MOL   H158 5578   7.687   4.242   0.191  2.8281 -0.1227  0.4066
   11MOL   H159 5579   0.027   4.680   0.367 -0.2387  0.9140  0.8131
   11MOL   H160 5580   7.733   4.584   0.473 -1.5758 -0.8620 -0.6435
   11MOL   H161 5581   7.692   4.745   0.443  0.5192  0.3586  1.7112
   11MOL   H162 5582   7.492   4.724   0.337  1.5872 -1.0613  4.5718
   11MOL   H163 5583   7.459   4.598   0.219 -0.9525 -1.3982  0.6770
   11MOL   C164 5584   7.738   4.294   1.074 -0.1068 -0.4208  0.1893
   11MOL   C165 5585   7.593   4.324   1.014 -0.3791  0.6088 -0.3859
   11MOL   C166 5586   7.586   4.441   0.927  0.0595  0.5484  0.1908
   11MOL   C167 5587   7.445   4.495   0.917  0.6459  0.0037  0.4582
   11MOL   C168 5588   7.409   4.592   0.801  0.2680  0.0604  0.9098
   11MOL   O169 5589   7.426   4.529   0.675 -0.1624  0.2301 -0.3963
   11MOL   C170 5590   7.447   4.596   0.560  0.2167 -0.5070 -0.8335
   11MOL   O171 5591   7.473   4.713   0.569 -0.3530 -0.0680  0.0781
   11MOL   C172 5592   7.440   4.525   0.420 -0.0963  0.2094  0.5023
   11MOL   C173 5593   7.512   4.385   0.446 -0.3582  0.1609  0.1118
   11MOL   C174 5594   7.293   4.494   0.380  0.3566 -0.1442  0.4760
   11MOL   H175 5595   0.002   4.306   0.999 -0.0410 -0.1381  0.3027
   11MOL   H176 5596   7.742   4.189   1.102  2.6405 -0.9451 -2.0372
   11MOL   H177 5597   7.751   4.362   1.159  1.7194  1.1963 -1.3484
   11MOL   H178 5598   7.524   4.330   1.098 -1.0996 -0.1500 -0.9118
   11MOL   H179 5599   7.550   4.240   0.959  0.3167 -0.0514  0.0611
   11MOL   H180 5600   7.655   4.520   0.956 -0.8958  2.0949 -1.6426
   11MOL   H181 5601   7.615   4.405   0.828 -1.3660 -0.0511 -0.0255
   11MOL   H182 5602   7.418   4.549   1.008  3.6718  1.4702  0.5581
   11MOL   H183 5603   7.377   4.410   0.911  0.4192  0.2597 -0.5841
   11MOL   H184 5604   7.469   4.682   0.810  1.7394 -0.7153 -0.8398
   11MOL   H185 5605   7.304   4.620   0.805  0.4580  0.7032  1.4452
   11MOL   H186 5606   7.531   4.337   0.350 -1.8683 -0.8766  0.3012
   11MOL   H187 5607   7.458   4.311   0.505 -0.1607  1.0299  1.4151
   11MOL   H188 5608   7.610   4.397   0.491 -0.5502 -1.0005  0.8641
   11MOL   H189 5609   7.304   4.444   0.283 -0.8602 -2.3974  1.4710
   11MOL   H190 5610   7.264   4.404   0.434 -2.8278 -0.0271 -0.9583
   11MOL   C191 5611   6.853   4.854   7.551 -0.3828 -0.4847  0.7465
   11MOL   C192 5612   6.952   4.743   7.522  0.3941  0.1930 -0.0114
   11MOL   C193 5613   7.074   4.753   7.614 -0.9081 -0.3293  0.2209
   11MOL   C194 5614   7.068   4.696   7.747  0.7793  0.1700 -0.8279
   11MOL   C195 5615   7.199   4.702   0.011  0.1765  0.4339  0.3050
   11MOL   O196 5616   7.177   4.625   0.128 -0.0381 -0.0436  0.0622
   11MOL   C197 5617   7.182   4.682   0.248 -0.3502 -0.8127 -0.0277
   11MOL   O198 5618   7.196   4.805   0.272  0.5191  0.4697 -0.1622
   11MOL   C199 5619   7.162   4.587   0.370  0.0693  0.2637 -0.1124
   11MOL   C200 5620   7.129   4.657   0.499 -0.2074  1.1526  0.0586
   11MOL   C201 5621   7.046   4.480   0.336 -0.0383 -0.2778 -0.8344
   11MOL   H202 5622   6.890   4.956   7.558  1.4573 -1.2150  1.6966
   11MOL   H203 5623   6.791   4.862   7.461  0.5423  0.9339  0.2197
   11MOL   H204 5624   6.789   4.840   7.638  0.1975  0.6878  1.3531
   11MOL   H205 5625   6.976   4.769   7.419  0.1271  1.0142  0.1284
   11MOL   H206 5626   6.907   4.644   7.522  0.7969  0.0107 -0.7304
   11MOL   H207 5627   7.115   4.854   7.617  1.2403 -1.1939  1.1061
   11MOL   H208 5628   7.149   4.698   7.558  0.8601  0.7920  1.4559
   11MOL   H209 5629   6.997   4.755   7.805  0.2745  0.3523 -1.6255
   11MOL   H210 5630   7.037   4.591   7.739 -2.4813  1.0003 -0.0269
   11MOL   H211 5631   7.276   4.658   7.762  0.1254  0.7229  0.0435
   11MOL   H212 5632   7.238   4.800   0.036 -1.0200  0.9760  0.0485
   11MOL   H213 5633   7.093   4.584   0.572 -0.0741  0.0861 -0.9318
   11MOL   H214 5634   7.061   4.742   0.489 -1.8308  0.1319  1.9393
   11MOL   H215 5635   7.220   4.705   0.534 -0.8216  3.0418 -0.8706
   11MOL   H216 5636   7.047   4.399   0.409  0.0068  0.8733  0.4518
   11MOL   H217 5637   7.088   4.426   0.251  0.2684 -0.6536 -0.4457
   11MOL   C218 5638   6.385   5.111   0.085  0.1605 -0.3340 -0.6699
   11MOL   C219 5639   6.448   4.982   0.132 -0.1079 -0.1307  0.7838
   11MOL   C220 5640   6.593   4.986   0.125 -0.0406  0.5462  0.2772
   11MOL   C221 5641   6.652   4.849   0.156 -0.1531 -0.6847 -0.0766
   11MOL   C222 5642   6.805   4.845   0.151 -0.2323 -0.2887  0.1716
   11MOL   O223 5643   6.841   4.706   0.179  0.3926  0.1933 -0.2516
   11MOL   C224 5644   6.859   4.670   0.312  0.6159  0.2770 -0.3415
   11MOL   O225 5645   6.831   4.746   0.409  0.3218 -0.1606  0.1680
   11MOL   C226 5646   6.883   4.516   0.330 -0.6959 -0.8320  0.1981
   11MOL   C227 5647   6.802   4.486   0.459 -0.7226 -0.3193 -0.1186
   11MOL   C228 5648   6.828   4.441   0.202  0.9549 -0.1155  0.0306
   11MOL   H229 5649   6.446   5.192   0.125 -0.5615 -0.0480 -0.1396
   11MOL   H230 5650   6.388   5.111   7.790 -2.3125  1.0293 -0.7849
   11MOL   H231 5651   6.287   5.141   0.121  0.7196  1.4828 -0.5801
   11MOL   H232 5652   6.402   4.898   0.079  0.0608 -1.3643  2.5372
   11MOL   H233 5653   6.415   4.965   0.235 -0.4889  1.3140  0.9125
   11MOL   H234 5654   6.626   5.045   0.211 -0.2967  0.8840  0.1439
   11MOL   H235 5655   6.630   5.030   0.032  1.1997 -0.4259  0.2979
   11MOL   H236 5656   6.608   4.817   0.250  1.5060  1.1238  1.3506
   11MOL   H237 5657   6.616   4.771   0.089 -0.1932  0.0427 -0.9187
   11MOL   H238 5658   6.854   4.918   0.215 -2.1312  1.4190 -0.2618
   11MOL   H239 5659   6.842   4.869   0.051 -1.9440 -0.8148 -0.6165
   11MOL   H240 5660   6.863   4.524   0.541 -0.3882 -0.9463 -0.0774
   11MOL   H241 5661   6.774   4.383   0.480 -2.7271  0.2984  0.4627
   11MOL   H242 5662   6.705   4.533   0.439 -0.2073  1.3772  1.2007
   11MOL   H243 5663   6.881   4.481   0.116  1.0447  1.0011  0.5985
   11MOL   H244 5664   6.728   4.481   0.182 -0.0861 -1.3102  2.5744
   11MOL   C245 5665   6.661   3.630   0.040  0.3369 -0.4033  0.3120
   11MOL   C246 5666   6.597   3.684   0.173 -0.7993 -0.9576 -0.2661
   11MOL   C247 5667   6.573   3.839   0.172  0.3040  0.2489  0.3237
   11MOL   C248 5668   6.555   3.895   0.316  0.4599  0.8888  0.1716
   11MOL   C249 5669   6.551   4.047   0.331  0.1165  0.5908  0.5885
   11MOL   O250 5670   6.666   4.104   0.273 -0.1492  0.0597  0.0820
   11MOL   C251 5671   6.673   4.237   0.266 -0.3898  0.6213 -0.0810
   11MOL   O252 5672   6.593   4.321   0.314 -0.2478 -0.1159  0.1300
   11MOL   C253 5673   6.810   4.278   0.200  0.1055 -0.8780 -0.2036
   11MOL   C254 5674   6.928   4.207   0.278  0.3409 -0.3298  0.2798
   11MOL   C255 5675   6.816   4.218   0.048  0.2787  0.1338 -0.4810
   11MOL   H256 5676   6.618   3.642   7.755 -1.0957 -0.7771  0.8668
   11MOL   H257 5677   6.768   3.649   0.029 -0.0044 -0.8632 -4.5964
   11MOL   H258 5678   6.657   3.521   0.044 -4.7016 -0.3606  0.1774
   11MOL   H259 5679   6.511   3.627   0.208 -1.6239  0.3760 -0.0509
   11MOL   H260 5680   6.661   3.661   0.258  1.9025  0.6374 -1.8117
   11MOL   H261 5681   6.494   3.870   0.103 -1.1637 -1.7179  1.0928
   11MOL   H262 5682   6.664   3.880   0.128 -1.1797  0.8282 -2.3310
   11MOL   H263 5683   6.458   3.857   0.347  0.7788  0.0677  0.1830
   11MOL   H264 5684   6.632   3.859   0.384  1.2402 -0.4164 -1.3627
   11MOL   H265 5685   6.460   4.077   0.279 -0.7697 -0.6186  1.4169
   11MOL   H266 5686   6.549   4.089   0.432  3.1170 -0.8812  1.3304
   11MOL   H267 5687   6.933   4.219   0.386  1.8239 -0.1568  0.2007
   11MOL   H268 5688   6.928   4.098   0.268 -1.3084 -0.2611 -0.6154
   11MOL   H269 5689   7.028   4.237   0.246  0.3117 -0.7436 -0.1958
   11MOL   H270 5690   6.920   4.227   0.020  0.9124  0.9158  1.9858
   11MOL   H271 5691   6.798   4.111   0.062 -0.1638  0.2691  0.0514
   11MOL   C272 5692   6.197   4.848   7.612 -0.0300 -0.9667 -0.2777
   11MOL   C273 5693   6.195   4.692   7.614 -0.3748  0.4995 -0.0251
   11MOL   C274 5694   6.329   4.622   7.668 -0.2128 -0.9687 -0.2877
   11MOL   C275 5695   6.301   4.479   7.722  1.1388 -0.4132 -0.4974
   11MOL   C276 5696   6.397   4.423   0.027 -0.6911  0.1630  0.3730
   11MOL   O277 5697   6.533   4.399   7.803 -0.5359  0.2715 -0.2716
   11MOL   C278 5698   6.576   4.273   7.768  0.1492 -0.1340  0.0490
   11MOL   O279 5699   6.508   4.172   7.776  0.1528  0.0866 -0.5730
   11MOL   C280 5700   6.725   4.261   7.733 -0.2136  0.2964 -0.3599
   11MOL   C281 5701   6.768   4.398   7.687 -0.2724 -0.0376  0.2817
   11MOL   C282 5702   6.745   4.153   7.613 -0.5935  1.1271  0.1061
   11MOL   H283 5703   6.270   4.890   7.543 -1.1146 -0.8623 -1.3847
   11MOL   H284 5704   6.101   4.887   7.579 -0.5179 -1.5613  0.4055
   11MOL   H285 5705   6.225   4.897   7.705 -0.3145 -0.3510 -0.5128
   11MOL   H286 5706   6.114   4.657   7.678 -1.6375  0.3585 -1.6591
   11MOL   H287 5707   6.165   4.650   7.518 -0.4064  0.7131 -0.1092
   11MOL   H288 5708   6.406   4.621   7.591 -1.0565 -0.0377 -1.1659
   11MOL   H289 5709   6.374   4.684   7.746  3.3840 -3.0164 -0.6009
   11MOL   H290 5710   6.201   4.486   7.763  0.9583  1.6236 -1.2325
   11MOL   H291 5711   6.294   4.411   7.637 -1.8987  0.2255 -0.7935
   11MOL   H292 5712   6.351   4.333   0.067  0.7641 -1.4767 -1.5632
   11MOL   H293 5713   6.401   4.494   0.109  0.0910  0.2818  0.2407
   11MOL   H294 5714   6.752   4.475   7.762  0.4190 -1.8160  2.3026
   11MOL   H295 5715   6.870   4.408   7.649 -0.4298 -2.0681 -0.7198
   11MOL   H296 5716   6.698   4.415   7.605 -1.2333 -1.8369  0.7030
   11MOL   H297 5717   6.844   4.108   7.617 -1.1280 -0.1274 -0.5951
   11MOL   H298 5718   6.685   4.068   7.646  2.0447 -1.9129 -2.6430
   11MOL   C299 5719   6.362   3.458   7.176 -0.2931  0.5498 -0.1326
   11MOL   C300 5720   6.407   3.570   7.266  0.4760  0.3880  0.5326
   11MOL   C301 5721   6.494   3.676   7.201 -0.3118  0.0514 -0.3070
   11MOL   C302 5722   6.514   3.799   7.293 -0.7203  0.4108 -0.9039
   11MOL   C303 5723   6.633   3.877   7.233  0.0662 -0.4046  0.2502
   11MOL   O304 5724   6.644   3.998   7.297 -0.3281  0.1087  0.2559
   11MOL   C305 5725   6.724   4.022   7.402  0.7303 -0.1636 -0.1331
   11MOL   O306 5726   6.785   3.935   7.456 -0.2367 -0.5548 -0.3766
   11MOL   C307 5727   6.709   4.166   7.461  0.8510  0.0186 -0.5105
   11MOL   C308 5728   6.563   4.211   7.447  0.1820  0.1591  0.0831
   11MOL   C309 5729   6.820   4.262   7.386 -0.8174 -0.2649  0.5510
   11MOL   H310 5730   6.301   3.388   7.233 -0.9910 -0.3843 -1.9871
   11MOL   H311 5731   6.452   3.413   7.132 -1.2770 -1.2941 -0.3099
   11MOL   H312 5732   6.300   3.497   7.096  0.9386  0.4199 -1.1824
   11MOL   H313 5733   6.459   3.526   7.351 -1.2844 -3.3431 -0.2009
   11MOL   H314 5734   6.319   3.622   7.305  0.7468  1.7565 -0.6388
   11MOL   H315 5735   6.452   3.716   7.109  1.0457  0.1779 -0.8792
   11MOL   H316 5736   6.591   3.633   7.176 -0.5572 -1.1901  0.7696
   11MOL   H317 5737   6.527   3.778   7.399 -0.0384 -0.8052 -1.2203
   11MOL   H318 5738   6.430   3.869   7.285  0.2370  1.7844  0.6280
   11MOL   H319 5739   6.725   3.819   7.238 -1.2304 -2.4531  1.3609
   11MOL   H320 5740   6.608   3.902   7.130 -1.6826 -0.3898  0.6642
   11MOL   H321 5741   6.548   4.314   7.479 -2.7748  0.3827 -1.8001
   11MOL   H322 5742   6.518   4.196   7.349 -0.9948  2.0196  0.3242
   11MOL   H323 5743   6.500   4.152   7.514 -0.9310  1.4821  0.2258
   11MOL   H324 5744   6.916   4.212   7.374 -0.5633  0.3689 -0.0780
   11MOL   H325 5745   6.845   4.341   7.457 -0.9493  0.0558  0.2415
   11MOL   C326 5746   7.258   4.372   7.623 -0.1399 -0.0358  0.5141
   11MOL   C327 5747   7.379   4.356   7.523  0.4733 -0.7101  0.7381
   11MOL   C328 5748   7.323   4.312   7.384  0.0896  0.4704  0.3621
   11MOL   C329 5749   7.271   4.435   7.306 -0.1430 -1.2998 -0.2306
   11MOL   C330 5750   7.187   4.403   7.184  0.6901  0.7159  0.6993
   11MOL   O331 5751   7.069   4.333   7.216  0.2776 -0.1281 -0.1758
   11MOL   C332 5752   6.954   4.411   7.239  0.5967  0.1913  0.0840
   11MOL   O333 5753   6.960   4.533   7.255  0.1379  0.4630  0.1333
   11MOL   C334 5754   6.824   4.326   7.241 -0.0982  0.2095 -0.4060
   11MOL   C335 5755   6.833   4.213   7.132  0.4316 -0.6105 -0.1622
   11MOL   C336 5756   6.701   4.428   7.227  0.6423  0.2251 -0.2301
   11MOL   H337 5757   7.304   4.389   7.720 -0.0246  1.5091  0.2053
   11MOL   H338 5758   7.206   4.277   7.635  0.0475 -0.0172  1.4809
   11MOL   H339 5759   7.203   4.460   7.590 -0.7444 -0.6578 -0.1583
   11MOL   H340 5760   7.449   4.281   7.560  0.5324 -0.4333  1.2004
   11MOL   H341 5761   7.449   4.440   7.520 -1.1796  0.6389 -1.2968
   11MOL   H342 5762   7.245   4.238   7.402  0.2080  0.1891 -0.2558
   11MOL   H343 5763   7.398   4.274   7.314  1.0629 -0.3575  1.8202
   11MOL   H344 5764   7.358   4.498   7.289 -1.1945 -0.1878 -1.5973
   11MOL   H345 5765   7.215   4.511   7.362 -2.2457 -1.2310 -2.3240
   11MOL   H346 5766   7.244   4.334   7.122 -0.5138  1.2949 -1.0781
   11MOL   H347 5767   7.175   4.492   7.123 -2.9068  0.2365  0.5933
   11MOL   H348 5768   6.911   4.139   7.152  1.5556 -0.4585 -3.6007
   11MOL   H349 5769   6.864   4.268   7.043  2.7288 -0.2982  0.8003
   11MOL   H350 5770   6.738   4.169   7.102 -0.4481  0.7510  0.5964
   11MOL   H351 5771   6.729   4.506   7.297  0.1491 -2.4307  3.0144
   11MOL   H352 5772   6.619   4.386   7.285 -0.0724 -0.5037 -1.7206
   11MOL   C353 5773   6.367   4.380   6.381 -0.1468  0.5761 -0.0836
   11MOL   C354 5774   6.476   4.444   6.474 -0.2447 -0.1571  0.4653
   11MOL   C355 5775   6.429   4.475   6.613  0.0686 -0.1444  0.1921
   11MOL   C356 5776   6.412   4.351   6.702 -0.1665  0.4914 -0.5986
   11MOL   C357 5777   6.367   4.397   6.844 -0.5369  0.0981 -0.1020
   11MOL   O358 5778   6.471   4.459   6.921  0.0588 -0.0982 -0.6163
   11MOL   C359 5779   6.535   4.401   7.027 -0.1143 -0.5496 -0.6400
   11MOL   O360 5780   6.515   4.286   7.068 -0.6804 -0.2287  0.1702
   11MOL   C361 5781   6.640   4.498   7.093 -0.2915  0.5135  0.5394
   11MOL   C362 5782   6.754   4.524   6.990 -0.1843 -0.5930  0.5103
   11MOL   C363 5783   6.585   4.643   7.131  0.0536 -0.3429 -0.2612
   11MOL   H364 5784   6.277   4.440   6.375 -2.1077 -1.7524  3.8364
   11MOL   H365 5785   6.327   4.285   6.416 -0.8290  0.8904 -0.0075
   11MOL   H366 5786   6.408   4.364   6.281 -1.8824  1.7996 -1.0089
   11MOL   H367 5787   6.573   4.394   6.479  0.9735  1.8542 -2.0790
   11MOL   H368 5788   6.491   4.545   6.438  4.0780 -0.9463 -0.2414
   11MOL   H369 5789   6.335   4.530   6.619  0.2376 -0.0556  2.9638
   11MOL   H370 5790   6.496   4.534   6.676 -1.9505  1.3307  1.0447
   11MOL   H371 5791   6.498   4.285   6.711 -0.1065  0.8046  1.1766
   11MOL   H372 5792   6.329   4.286   6.673 -0.2927  0.2113  0.3698
   11MOL   H373 5793   6.276   4.457   6.848 -1.7504 -1.7579  0.5545
   11MOL   H374 5794   6.331   4.312   6.902 -0.0146 -0.7740 -1.0437
   11MOL   H375 5795   6.836   4.584   7.029 -2.4643  1.5157  2.2635
   11MOL   H376 5796   6.804   4.438   6.945 -0.4783 -0.0453 -0.8828
   11MOL   H377 5797   6.708   4.576   6.906 -0.8034 -3.0653 -0.7318
   11MOL   H378 5798   6.668   4.693   7.180 -1.0702 -0.2817  1.6212
   11MOL   H379 5799   6.577   4.697   7.037 -1.5328  1.7149  1.0133
   11MOL   C380 5800   5.954   5.053   6.660  0.2356 -0.0553  0.0320
   11MOL   C381 5801   6.049   5.023   6.779 -0.0806  0.4379 -0.3939
   11MOL   C382 5802   6.100   4.881   6.769 -0.0840  0.0204 -0.8450
   11MOL   C383 5803   6.188   4.850   6.888 -0.0544  0.2144 -0.4342
   11MOL   C384 5804   6.241   4.709   6.894 -0.1735 -0.7215 -0.0466
   11MOL   O385 5805   6.338   4.700   6.997 -0.0719 -0.5630 -0.2585
   11MOL   C386 5806   6.318   4.694   7.129  0.2272  0.6304  0.6701
   11MOL   O387 5807   6.206   4.705   7.185  0.3597 -0.2814 -0.2537
   11MOL   C388 5808   6.449   4.675   7.210 -0.7347 -0.5500 -0.3376
   11MOL   C389 5809   6.424   4.561   7.306  0.2410  0.0099 -0.2990
   11MOL   C390 5810   6.476   4.793   7.309  0.9079  0.7172  0.4263
   11MOL   H391 5811   5.923   5.157   6.645  1.0654 -0.0481 -1.7460
   11MOL   H392 5812   6.002   5.020   6.568  2.1102  0.4207  0.8164
   11MOL   H393 5813   5.859   5.000   6.660 -0.8593  1.8610 -0.7060
   11MOL   H394 5814   5.981   5.036   6.863 -0.8420  1.0163 -1.1017
   11MOL   H395 5815   6.141   5.080   6.793  1.1125 -1.6469  0.5391
   11MOL   H396 5816   6.021   4.806   6.771  1.3903 -1.5238  0.9581
   11MOL   H397 5817   6.161   4.859   6.681  0.2289  0.0898 -0.6464
   11MOL   H398 5818   6.263   4.930   6.890  0.5587 -0.3622  0.1690
   11MOL   H399 5819   6.124   4.873   6.973 -1.3994 -0.9722 -1.1122
   11MOL   H400 5820   6.293   4.686   6.801 -0.5593 -0.4395 -0.3352
   11MOL   H401 5821   6.160   4.638   6.903 -1.1683  0.0610 -2.3516
   11MOL   H402 5822   6.340   4.585   7.371  0.3554  0.0876 -0.1811
   11MOL   H403 5823   6.502   4.539   7.378  1.1573  1.9607 -0.6456
   11MOL   H404 5824   6.382   4.471   7.261 -3.0725  1.1734  0.3411
   11MOL   H405 5825   6.567   4.784   7.369  0.8523 -0.2343  0.3735
   11MOL   H406 5826   6.391   4.792   7.377  0.9842 -2.8182  0.5592
   11MOL   C407 5827   7.113   5.142   7.464 -0.2581 -0.0018 -0.4388
   11MOL   C408 5828   7.096   5.063   7.335 -0.1251  0.6091 -0.1126
   11MOL   C409 5829   6.951   5.060   7.275  0.0131  0.0067 -0.2287
   11MOL   C410 5830   6.925   4.956   7.166 -0.3821 -0.0007  0.4326
   11MOL   C411 5831   6.796   4.976   7.093  0.4277 -0.2246  0.1945
   11MOL   O412 5832   6.691   4.975   7.180  0.3571 -0.2823  1.1522
   11MOL   C413 5833   6.565   4.972   7.141  1.2107 -0.7608 -0.3885
   11MOL   O414 5834   6.522   4.985   7.025  0.0529 -0.1690 -0.3429
   11MOL   C415 5835   6.469   4.948   7.262  0.2571  0.3768  0.2516
   11MOL   C416 5836   6.326   4.992   7.227 -1.4286 -0.0993 -0.0425
   11MOL   C417 5837   6.516   5.021   7.390 -0.2158 -0.0916  0.3659
   11MOL   H418 5838   7.218   5.135   7.493 -1.2565 -1.6888  2.9855
   11MOL   H419 5839   7.086   5.247   7.447  0.0135  0.5104  2.1435
   11MOL   H420 5840   7.057   5.105   7.549 -0.4419  2.0928  0.3767
   11MOL   H421 5841   7.115   4.958   7.357 -3.9910 -0.2237 -0.2870
   11MOL   H422 5842   7.174   5.106   7.272  1.7708 -2.1677  0.2505
   11MOL   H423 5843   6.874   5.054   7.352  0.4150 -1.6774  0.0609
   11MOL   H424 5844   6.938   5.160   7.233 -0.5776  0.7956  1.7661
   11MOL   H425 5845   6.924   4.853   7.204 -2.3066  0.1994  0.9914
   11MOL   H426 5846   7.005   4.943   7.094  0.4787 -2.0462  1.6990
   11MOL   H427 5847   6.810   5.062   7.027  1.6687  1.7682  2.9511
   11MOL   H428 5848   6.780   4.889   7.030  1.6179 -1.2779  1.3175
   11MOL   H429 5849   6.244   4.993   7.298 -2.7284  0.6113 -1.5222
   11MOL   H430 5850   6.288   4.962   7.129 -1.3610 -0.9320  0.1821
   11MOL   H431 5851   6.338   5.097   7.202  0.7026 -0.6292 -1.3445
   11MOL   H432 5852   6.621   4.992   7.397 -0.6580 -2.2226 -1.1852
   11MOL   H433 5853   6.458   4.983   7.474 -0.6637  0.8821  0.5058
   11MOL   C434 5854   5.905   5.344   0.045 -0.4144 -0.9045  0.3918
   11MOL   C435 5855   6.062   5.355   0.054  0.1535  0.1621 -0.5612
   11MOL   C436 5856   6.137   5.337   7.742  0.0381 -0.5500 -0.4686
   11MOL   C437 5857   6.109   5.198   7.674 -0.4402 -0.1127  0.3326
   11MOL   C438 5858   6.166   5.187   7.537 -0.5403 -0.3800 -0.3355
   11MOL   O439 5859   6.307   5.181   7.534  0.1840  0.4428 -0.1018
   11MOL   C440 5860   6.373   5.240   7.430 -0.2862 -0.1150  0.4214
   11MOL   O441 5861   6.319   5.321   7.353  0.0227  0.1711  0.4743
   11MOL   C442 5862   6.517   5.180   7.414 -0.3359 -0.0027 -0.7656
   11MOL   C443 5863   6.581   5.248   7.293  0.7048  0.1272  0.0098
   11MOL   C444 5864   6.601   5.204   7.556 -0.1285  0.4448  0.2292
   11MOL   H445 5865   5.845   5.382   0.127  0.8804  0.0184  0.9343
   11MOL   H446 5866   5.894   5.404   7.769  2.5383 -0.7866  0.0589
   11MOL   H447 5867   5.874   5.243   0.016 -0.1354 -0.9097  0.1035
   11MOL   H448 5868   6.092   5.450   0.098 -0.6838  0.2459 -0.1726
   11MOL   H449 5869   6.104   5.288   0.130  1.5952  2.0446  0.3428
   11MOL   H450 5870   6.095   5.412   7.675  0.2636  0.1537  0.1678
   11MOL   H451 5871   6.243   5.351   7.764 -0.1245 -0.9307  0.6014
   11MOL   H452 5872   6.001   5.197   7.664 -0.1337  2.2483 -4.6204
   11MOL   H453 5873   6.142   5.112   7.731  1.2670 -0.4881 -1.1893
   11MOL   H454 5874   6.135   5.280   7.489  0.8019  1.7736  2.7915
   11MOL   H455 5875   6.127   5.106   7.475 -1.0527 -0.8763  0.6274
   11MOL   H456 5876   6.584   5.356   7.307 -0.9312  0.1166  0.6071
   11MOL   H457 5877   6.684   5.213   7.290  0.4513 -0.6100 -0.2107
   11MOL   H458 5878   6.546   5.217   7.195 -0.1044  0.8936  0.0494
   11MOL   H459 5879   6.692   5.146   7.543 -0.3798  0.3639 -1.3406
   11MOL   H460 5880   6.549   5.146   7.633 -1.7882  0.4347 -0.8609
   11MOL   C461 5881   7.089   5.576   6.909 -0.1249  0.8533  0.2130
   11MOL   C462 5882   6.971   5.510   6.985  0.6976 -0.4017 -0.4782
   11MOL   C463 5883   6.994   5.514   7.132 -0.1409 -0.2395  0.0248
   11MOL   C464 5884   6.882   5.455   7.216  0.5578 -0.1119  0.2245
   11MOL   C465 5885   6.891   5.484   7.363 -0.3208  0.1061 -0.5925
   11MOL   O466 5886   6.773   5.441   7.427 -0.4363 -0.2062  0.4508
   11MOL   C467 5887   6.778   5.395   7.551 -0.5233  0.3717 -0.3535
   11MOL   O468 5888   6.887   5.392   7.618  0.0294  0.5769 -0.0084
   11MOL   C469 5889   6.639   5.348   7.607 -0.0382 -0.0856  0.6219
   11MOL   C470 5890   6.664   5.331   7.756  0.7127 -0.1052 -0.5759
   11MOL   C471 5891   6.527   5.463   7.580  0.3364 -0.5525 -0.2045
   11MOL   H472 5892   7.066   5.581   6.802 -0.9062  0.3593  0.3534
   11MOL   H473 5893   7.182   5.522   6.926 -0.5910 -0.2476 -0.6594
   11MOL   H474 5894   7.108   5.679   6.939  0.6798  1.1969 -1.3946
   11MOL   H475 5895   6.949   5.414   6.938 -0.2408  0.2089 -1.2947
   11MOL   H476 5896   6.887   5.575   6.961 -0.0298 -1.2075 -0.1102
   11MOL   H477 5897   7.012   5.618   7.160 -0.5930  0.0266 -0.6321
   11MOL   H478 5898   7.087   5.466   7.160 -1.1778 -1.5657  1.2574
   11MOL   H479 5899   6.873   5.347   7.203 -1.6588 -0.0157  0.8575
   11MOL   H480 5900   6.793   5.506   7.179  0.6567 -0.2377 -0.1882
   11MOL   H481 5901   6.978   5.425   7.392 -1.6438 -1.2179  0.7834
   11MOL   H482 5902   6.912   5.589   7.382  0.9961  0.4281 -3.5013
   11MOL   H483 5903   6.578   5.302   0.002 -0.2893 -0.9266 -2.3739
   11MOL   H484 5904   6.716   5.410   7.812 -0.1412  1.0886 -1.4517
   11MOL   H485 5905   6.728   5.245   7.773  0.9808  0.1792 -0.1115
   11MOL   H486 5906   6.426   5.431   7.603  0.6765 -1.7774 -0.3684
   11MOL   H487 5907   6.525   5.493   7.475 -1.2017 -1.0663 -0.3291
   11MOL   C488 5908   5.968   6.089   7.287 -0.2208 -0.4971  0.2430
   11MOL   C489 5909   6.090   6.028   7.352 -0.2231  0.0173 -0.2428
   11MOL   C490 5910   6.055   5.951   7.475  0.0357  1.0541  0.1527
   11MOL   C491 5911   6.181   5.894   7.544 -0.4289  0.4212  0.6360
   11MOL   C492 5912   6.214   5.755   7.492  0.4278 -0.3770  0.8064
   11MOL   O493 5913   6.293   5.671   7.572  0.1524 -0.2799 -0.2726
   11MOL   C494 5914   6.426   5.693   7.572 -0.1428 -0.4003 -0.0608
   11MOL   O495 5915   6.476   5.787   7.506  0.7020 -0.5529  0.4464
   11MOL   C496 5916   6.522   5.598   7.658  0.4181  0.0570  0.0020
   11MOL   C497 5917   6.659   5.669   7.663 -0.3677 -0.0124 -0.0993
   11MOL   C498 5918   6.468   5.589   7.807 -0.3475 -0.0735 -0.3948
   11MOL   H499 5919   5.999   6.169   7.220  0.2504 -0.5313  0.4187
   11MOL   H500 5920   5.894   6.016   7.254 -0.2625  0.5435 -2.0988
   11MOL   H501 5921   5.920   6.145   7.367 -1.4006 -1.6783  0.3855
   11MOL   H502 5922   6.157   6.109   7.382  0.5792 -0.0038 -1.9099
   11MOL   H503 5923   6.135   5.954   7.286 -1.7840  0.1070 -1.4352
   11MOL   H504 5924   6.009   6.021   7.545  0.7960  3.5754 -1.7797
   11MOL   H505 5925   5.983   5.872   7.458  0.2620  1.1743 -1.4780
   11MOL   H506 5926   6.161   5.877   7.650 -2.6016 -1.3107 -0.0084
   11MOL   H507 5927   6.268   5.958   7.528  0.9072 -2.1250 -2.7844
   11MOL   H508 5928   6.117   5.707   7.476  1.0940 -1.0251 -1.3950
   11MOL   H509 5929   6.255   5.767   7.392  2.9045 -0.2471  1.7976
   11MOL   H510 5930   6.654   5.773   7.696  0.9337 -0.6456  2.1510
   11MOL   H511 5931   6.693   5.672   7.559 -0.8232 -0.0848 -0.2531
   11MOL   H512 5932   6.738   5.619   7.718 -0.1794 -1.1688 -1.3906
   11MOL   H513 5933   6.496   5.499   0.048 -0.5698 -1.0738 -1.9118
   11MOL   H514 5934   6.361   5.574   7.794 -0.6619  1.5599  0.1356
   11MOL   C515 5935   7.290   5.648   0.194  0.0787 -0.2727  0.0519
   11MOL   C516 5936   7.147   5.643   0.149 -0.4211  0.1460  0.3924
   11MOL   C517 5937   7.052   5.565   0.254  0.1379  0.2111  0.0187
   11MOL   C518 5938   6.915   5.534   0.197 -0.3767 -0.2287 -0.1945
   11MOL   C519 5939   6.834   5.662   0.198 -0.8220 -0.4919 -0.1358
   11MOL   O520 5940   6.695   5.635   0.166  0.3167  0.5921  0.2862
   11MOL   C521 5941   6.611   5.741   0.156 -0.4260 -0.3612  0.2071
   11MOL   O522 5942   6.634   5.855   0.198  0.3515 -0.1702  0.4196
   11MOL   C523 5943   6.473   5.704   0.097 -0.8074  0.0202 -0.4040
   11MOL   C524 5944   6.389   5.662   0.221 -0.6825  0.0154 -0.3385
   11MOL   C525 5945   6.416   5.833   0.045  0.2830 -0.2324 -0.0512
   11MOL   H526 5946   7.355   5.678   0.112  2.1328 -1.2554  1.2881
   11MOL   H527 5947   7.302   5.728   0.266 -1.6346  1.2744 -1.3482
   11MOL   H528 5948   7.326   5.551   0.231  2.0647  0.7874  0.9794
   11MOL   H529 5949   7.112   5.745   0.133  1.4817  0.6760 -0.4392
   11MOL   H530 5950   7.145   5.614   0.044  0.7529  1.1700  0.0795
   11MOL   H531 5951   7.085   5.463   0.271 -2.2148 -0.4180  1.0672
   11MOL   H532 5952   7.038   5.627   0.343 -1.8731  0.5710 -0.5245
   11MOL   H533 5953   6.863   5.460   0.258 -1.8929  2.1953  1.5245
   11MOL   H534 5954   6.937   5.491   0.099  0.2479 -1.5119  0.4948
   11MOL   H535 5955   6.837   5.711   0.295  2.2527 -1.5016  0.3099
   11MOL   H536 5956   6.891   5.727   0.132 -2.4791  1.0479 -0.0974
   11MOL   H537 5957   6.283   5.643   0.204 -1.4644 -0.2500  4.1872
   11MOL   H538 5958   6.388   5.738   0.299  0.6289  0.1103 -0.4105
   11MOL   H539 5959   6.432   5.572   0.265 -0.4376  0.4655  0.3542
   11MOL   H540 5960   6.415   5.920   0.110  0.6038 -0.1523 -0.1559
   11MOL   H541 5961   6.322   5.833   7.803 -0.7956  1.8909  1.6819
   11MOL   H542 5962   6.492   5.860   7.785  1.1974 -2.6799 -0.0598
   12MOL     C1 5963   4.226   5.015   7.704  0.7368 -0.7664  0.2328
   12MOL     C2 5964   4.306   4.976   0.010  0.4034 -0.4360 -0.0100
   12MOL     C3 5965   4.444   5.045   0.040 -0.2427 -0.4784  0.4454
   12MOL     C4 5966   4.535   4.982   0.151  0.0635 -0.3888  0.5642
   12MOL     C5 5967   4.681   5.017   0.128 -0.3651  0.2623  0.6332
   12MOL     O6 5968   4.749   4.969   0.245  0.1997  0.2890 -0.5022
   12MOL     C7 5969   4.884   4.954   0.230 -0.8578  0.3882  0.1335
   12MOL     O8 5970   4.953   4.969   0.127  0.2005 -0.4103  0.7397
   12MOL     C9 5971   4.948   4.929   0.365 -0.0060 -0.2348 -0.6463
   12MOL    C10 5972   4.919   5.040   0.461  0.7561 -0.4418  0.2600
   12MOL    C11 5973   5.092   4.885   0.364 -0.2433  0.5200 -0.9847
   12MOL    H12 5974   4.131   4.961   7.706  1.0005 -1.2153  2.0045
   12MOL    H13 5975   4.279   4.994   7.611 -0.8128  1.3511 -1.1770
   12MOL    H14 5976   4.207   5.122   7.704  1.9226 -0.5207  2.7028
   12MOL    H15 5977   4.248   4.987   0.102  1.4117  0.4526  0.5276
   12MOL    H16 5978   4.338   4.873   0.003  2.5673  0.3466 -2.0486
   12MOL    H17 5979   4.495   5.055   7.758  3.1768 -0.0703  2.2429
   12MOL    H18 5980   4.433   5.148   0.074  0.7006 -0.5204  0.9065
   12MOL    H19 5981   4.533   4.873   0.158 -1.4562 -0.6196 -2.8279
   12MOL    H20 5982   4.497   5.026   0.243 -1.8771 -2.5764  0.8714
   12MOL    H21 5983   4.718   4.975   0.035 -2.4157  2.2840 -1.1503
   12MOL    H22 5984   4.692   5.124   0.118  0.6233  0.2848  1.8462
   12MOL    H23 5985   4.953   5.134   0.418 -1.6276  0.3359 -0.0172
   12MOL    H24 5986   4.979   5.045   0.552 -0.2199 -0.7735  0.9286
   12MOL    H25 5987   4.819   5.044   0.505  1.2957 -0.7853  1.5643
   12MOL    H26 5988   5.151   4.970   0.399 -0.4223  1.0530 -1.9487
   12MOL    H27 5989   5.120   4.862   0.261 -1.7368 -0.5569 -1.1723
   12MOL    H28 5990   4.891   4.847   0.408  0.9854  0.0583  1.3222
   12MOL    C29 5991   4.832   3.984   0.697  0.4801 -0.2993 -0.1010
   12MOL    C30 5992   4.883   4.122   0.719  0.5712  0.5196 -0.3065
   12MOL    C31 5993   4.887   4.209   0.595 -0.3320  0.7660  0.0280
   12MOL    C32 5994   4.982   4.330   0.613  0.0082  0.5500 -0.6421
   12MOL    C33 5995   5.005   4.409   0.481 -0.0367  0.1487 -0.3773
   12MOL    O34 5996   5.071   4.533   0.500 -0.0506  0.1690  0.4146
   12MOL    C35 5997   5.056   4.635   0.413  0.2730  1.1112 -0.0709
   12MOL    O36 5998   4.987   4.622   0.307 -0.1766 -0.7345 -0.0793
   12MOL    C37 5999   5.130   4.765   0.453  0.2519 -0.1681  0.0190
   12MOL    C38 6000   5.098   4.801   0.603 -0.0835 -0.4254 -0.8610
   12MOL    C39 6001   5.281   4.736   0.446  0.4408  0.0795 -0.4967
   12MOL    H40 6002   4.855   3.946   0.598 -1.1510 -1.0804 -0.1878
   12MOL    H41 6003   4.864   3.926   0.784  0.4035 -0.7675 -0.3849
   12MOL    H42 6004   4.723   3.994   0.697  0.0785 -3.9324  0.2707
   12MOL    H43 6005   4.977   4.118   0.775 -1.1706 -0.9326  2.6641
   12MOL    H44 6006   4.813   4.177   0.782  0.4247 -1.4402  1.3186
   12MOL    H45 6007   4.786   4.237   0.564  0.1855  3.7119  0.8184
   12MOL    H46 6008   4.931   4.155   0.511 -0.5423  1.4382 -0.5212
   12MOL    H47 6009   4.945   4.398   0.690  1.1335 -1.2545  1.5465
   12MOL    H48 6010   5.078   4.292   0.647  0.0107 -1.0967 -2.4451
   12MOL    H49 6011   4.924   4.418   0.408  0.2303  3.0972 -0.3473
   12MOL    H50 6012   5.081   4.354   0.425  0.5529 -0.3800  0.9193
   12MOL    H51 6013   4.991   4.815   0.623 -0.1080 -2.0658  0.3401
   12MOL    H52 6014   5.149   4.895   0.623 -2.4127  0.7343 -0.2235
   12MOL    H53 6015   5.140   4.728   0.673 -0.3202 -0.1429 -0.4193
   12MOL    H54 6016   5.306   4.643   0.499 -1.5901  0.1460  0.5975
   12MOL    H55 6017   5.335   4.792   0.523  0.7772  1.3358 -1.6239
   12MOL    C56 6018   5.600   5.199   7.626  0.4698  0.3377  0.8456
   12MOL    C57 6019   5.643   5.059   7.667 -0.0835 -0.4435  0.7616
   12MOL    C58 6020   5.543   4.948   7.640  0.2179  0.1027  0.0210
   12MOL    C59 6021   5.397   4.964   7.707  0.5895  0.2977 -0.6274
   12MOL    C60 6022   5.400   4.999   0.046  0.0135  0.5927 -0.5816
   12MOL    O61 6023   5.414   4.879   0.121  0.0703 -0.7677 -0.3609
   12MOL    C62 6024   5.385   4.872   0.252  0.2318  0.0349 -0.4460
   12MOL    O63 6025   5.379   4.970   0.325 -0.5668 -1.0154 -0.1579
   12MOL    C64 6026   5.364   4.727   0.311  0.6889 -0.3549 -0.1582
   12MOL    C65 6027   5.292   4.646   0.198  0.1094  0.4268 -0.1041
   12MOL    C66 6028   5.495   4.662   0.355 -0.6039 -0.0959  0.4502
   12MOL    H67 6029   5.565   5.212   7.524  0.4283  0.4335  0.8734
   12MOL    H68 6030   5.666   5.281   7.653 -0.5727  1.8105 -1.0411
   12MOL    H69 6031   5.511   5.221   7.684  1.4710 -0.2380  2.6796
   12MOL    H70 6032   5.733   5.039   7.608 -0.0848  0.2287  0.5327
   12MOL    H71 6033   5.681   5.056   7.769  1.3592  1.9006  0.3206
   12MOL    H72 6034   5.532   4.951   7.532 -1.6675  3.2007  0.2148
   12MOL    H73 6035   5.583   4.849   7.662 -2.6610 -1.0276  0.4293
   12MOL    H74 6036   5.340   4.872   7.693  0.2134 -0.2472  3.7387
   12MOL    H75 6037   5.338   5.046   7.667 -1.2802 -1.1414 -0.9121
   12MOL    H76 6038   5.471   5.079   0.069 -0.1880  0.5586  0.1793
   12MOL    H77 6039   5.307   5.051   0.069  0.6951  0.7142  2.0461
   12MOL    H78 6040   5.218   4.700   0.138  0.7961  2.8656  1.1927
   12MOL    H79 6041   5.238   4.553   0.219 -0.5130  0.2048 -2.4977
   12MOL    H80 6042   5.360   4.626   0.115 -2.2806 -2.2070 -1.5396
   12MOL    H81 6043   5.467   4.569   0.404  0.7837 -0.1193  1.2269
   12MOL    H82 6044   5.540   4.737   0.420  0.8182 -1.0520  0.5895
   12MOL    C83 6045   6.186   4.611   0.233 -0.1246  0.4009 -0.2571
   12MOL    C84 6046   6.142   4.753   0.269  0.3207  0.3170 -0.1482
   12MOL    C85 6047   6.020   4.802   0.192 -0.9363  0.1470 -0.4044
   12MOL    C86 6048   5.944   4.921   0.253 -0.8926  0.7930 -0.1712
   12MOL    C87 6049   5.803   4.928   0.186 -0.2996 -0.5114 -0.0164
   12MOL    O88 6050   5.725   4.823   0.249  0.4555  0.3775  0.1929
   12MOL    C89 6051   5.676   4.724   0.173  1.3616 -0.3861  0.4516
   12MOL    O90 6052   5.673   4.724   0.045 -0.2881  0.1267 -0.2434
   12MOL    C91 6053   5.614   4.613   0.260 -0.4713 -0.2683  0.4972
   12MOL    C92 6054   5.731   4.570   0.356  0.2207  0.5107 -0.0057
   12MOL    C93 6055   5.558   4.488   0.170  0.1384  0.5416 -0.8182
   12MOL    H94 6056   6.185   4.604   0.124 -2.1270 -1.3941 -0.1499
   12MOL    H95 6057   6.282   4.587   0.279 -0.1207  1.7375  0.4638
   12MOL    H96 6058   6.122   4.527   0.257  1.9230 -0.4750  2.3617
   12MOL    H97 6059   6.223   4.822   0.244  1.5390 -1.1225 -0.2242
   12MOL    H98 6060   6.130   4.743   0.377 -0.2578  1.6087 -0.0753
   12MOL    H99 6061   5.951   4.717   0.198 -2.0754  0.9980 -1.3174
   12MOL   H100 6062   6.062   4.816   0.093 -0.8707  0.1823 -0.3713
   12MOL   H101 6063   5.990   5.013   0.217  1.3496 -0.3257 -0.2517
   12MOL   H102 6064   5.940   4.927   0.362  2.3556 -1.7667  0.1875
   12MOL   H103 6065   5.810   4.917   0.078 -1.1020 -0.8928 -0.0358
   12MOL   H104 6066   5.755   5.025   0.195  1.6780  0.3046  2.1793
   12MOL   H105 6067   5.817   4.537   0.298 -0.2950  1.7877 -1.5420
   12MOL   H106 6068   5.681   4.487   0.407 -1.0290  1.4709  0.3582
   12MOL   H107 6069   5.753   4.652   0.424  1.1318  0.1975  0.0833
   12MOL   H108 6070   5.463   4.449   0.204  0.1857 -0.8587 -2.2629
   12MOL   H109 6071   5.536   4.537   0.075  1.1313  1.0938 -0.7746
   12MOL   C110 6072   5.237   4.043   0.740  0.2726 -0.2328 -0.8672
   12MOL   C111 6073   5.370   3.974   0.707  0.1340  0.5153 -0.4325
   12MOL   C112 6074   5.476   4.073   0.662 -0.8086  0.8720  0.7665
   12MOL   C113 6075   5.479   4.109   0.507  0.0378 -0.1060  0.8573
   12MOL   C114 6076   5.610   4.168   0.442 -0.9919 -0.3664  0.3837
   12MOL   O115 6077   5.579   4.226   0.312  0.1815  0.2047 -0.2534
   12MOL   C116 6078   5.681   4.279   0.247 -0.1899  0.1744  0.4180
   12MOL   O117 6079   5.794   4.275   0.289 -0.1206  0.1526 -0.3107
   12MOL   C118 6080   5.640   4.360   0.117  0.7474  0.7229 -0.2788
   12MOL   C119 6081   5.761   4.397   0.031  0.6357  0.0617 -0.0748
   12MOL   C120 6082   5.536   4.273   0.036  0.0442 -0.1509 -0.5978
   12MOL   H121 6083   5.158   3.968   0.748 -0.7319  0.7432 -1.5294
   12MOL   H122 6084   5.240   4.093   0.837 -0.3910  0.8603 -1.4025
   12MOL   H123 6085   5.205   4.120   0.670 -0.1145  0.2849 -0.1275
   12MOL   H124 6086   5.397   3.914   0.794 -0.3615 -1.0279 -1.3274
   12MOL   H125 6087   5.355   3.907   0.623 -3.7093  0.4544  0.2031
   12MOL   H126 6088   5.479   4.157   0.732  0.2002  1.5715 -0.1166
   12MOL   H127 6089   5.569   4.022   0.685 -1.5264 -0.9514 -0.2561
   12MOL   H128 6090   5.401   4.182   0.487  0.2710  0.7036  2.7517
   12MOL   H129 6091   5.466   4.021   0.444  0.4541  2.4019 -2.8559
   12MOL   H130 6092   5.667   4.229   0.512 -0.1424  2.7780 -2.9227
   12MOL   H131 6093   5.672   4.081   0.420 -2.1457 -1.3351  0.9036
   12MOL   H132 6094   5.816   4.486   0.061  0.4223  1.3754 -3.4240
   12MOL   H133 6095   5.834   4.317   0.024  1.5615  1.0402 -1.8259
   12MOL   H134 6096   5.731   4.429   7.745  1.4314 -1.0426 -0.6699
   12MOL   H135 6097   5.458   4.235   0.102  0.4073 -0.7761 -0.5286
   12MOL   H136 6098   5.480   4.338   7.782 -0.7659  3.9189  3.6855
   12MOL   C137 6099   5.562   3.465   7.775 -0.3117  1.1136 -0.3595
   12MOL   C138 6100   5.669   3.532   0.043  0.1453  0.2507 -0.4134
   12MOL   C139 6101   5.633   3.681   0.058  0.2927  0.0325 -0.4854
   12MOL   C140 6102   5.710   3.754   0.168 -0.0399  1.0081 -0.4235
   12MOL   C141 6103   5.634   3.877   0.217 -0.1563 -0.7379  0.1605
   12MOL   O142 6104   5.588   3.962   0.108  0.0618  0.2973 -0.1538
   12MOL   C143 6105   5.666   4.043   0.037 -0.2008  0.1870 -0.2147
   12MOL   O144 6106   5.789   4.048   0.046 -0.8229 -0.3133 -0.4079
   12MOL   C145 6107   5.579   4.143   7.766 -0.0406  0.2114 -0.5352
   12MOL   C146 6108   5.449   4.074   7.718 -0.1078  0.3580  0.7311
   12MOL   C147 6109   5.653   4.182   7.630 -0.1652 -0.8389 -0.1753
   12MOL   H148 6110   5.538   3.522   7.686  1.1540  4.6093  1.3944
   12MOL   H149 6111   5.473   3.455   0.022  0.1861  1.9675  0.5277
   12MOL   H150 6112   5.585   3.365   7.737  1.1484  1.1515  0.3760
   12MOL   H151 6113   5.768   3.519   7.812  0.0634  1.1431 -0.8513
   12MOL   H152 6114   5.682   3.493   0.144  0.5971 -1.8748 -1.2719
   12MOL   H153 6115   5.643   3.733   7.777 -1.1133  1.5783  0.1974
   12MOL   H154 6116   5.530   3.696   0.089  0.2036 -2.6123  0.6314
   12MOL   H155 6117   5.714   3.687   0.254  0.7435 -0.5314 -1.6377
   12MOL   H156 6118   5.807   3.792   0.139  0.9670  0.6176  2.2618
   12MOL   H157 6119   5.692   3.931   0.292 -1.2806 -0.5214  0.8886
   12MOL   H158 6120   5.545   3.844   0.271 -1.2366  1.2171 -0.3531
   12MOL   H159 6121   5.389   4.019   7.790 -0.4008  0.4298  0.5425
   12MOL   H160 6122   5.464   3.999   7.640 -3.1344 -1.8278  2.1743
   12MOL   H161 6123   5.390   4.151   7.670 -3.0430 -1.1034  1.8649
   12MOL   H162 6124   5.602   4.271   7.594 -1.3877 -1.4899 -0.0822
   12MOL   H163 6125   5.757   4.204   7.655  0.5262 -3.5788 -0.4238
   12MOL   C164 6126   5.415   3.462   7.411  0.3247 -0.3721  0.4228
   12MOL   C165 6127   5.339   3.585   7.358  0.5823 -0.0004 -0.0971
   12MOL   C166 6128   5.435   3.693   7.303 -0.4062  0.2834 -1.3770
   12MOL   C167 6129   5.368   3.824   7.285 -0.4425 -0.1531  0.2912
   12MOL   C168 6130   5.462   3.928   7.228  0.1209  1.1096  0.8472
   12MOL   O169 6131   5.569   3.969   7.311  0.2413 -0.0811  0.0464
   12MOL   C170 6132   5.549   4.066   7.404 -0.1328 -0.1240 -0.2993
   12MOL   O171 6133   5.442   4.128   7.411 -0.2318  0.1454  0.0688
   12MOL   C172 6134   5.673   4.086   7.498  0.5339 -0.5348 -0.5357
   12MOL   C173 6135   5.715   3.945   7.557 -0.3000  0.2643 -0.4526
   12MOL   C174 6136   5.799   4.139   7.407 -0.2035 -0.0505  0.4835
   12MOL   H175 6137   5.513   3.444   7.368 -0.0930  1.0391 -1.1522
   12MOL   H176 6138   5.358   3.372   7.390 -2.3852  2.0114 -3.1284
   12MOL   H177 6139   5.436   3.486   7.516  1.2825  2.0104 -0.2847
   12MOL   H178 6140   5.267   3.631   7.425 -0.5671  2.4280 -2.8700
   12MOL   H179 6141   5.279   3.551   7.273  3.2296 -1.5777 -1.3903
   12MOL   H180 6142   5.522   3.692   7.368 -1.0850 -3.2214 -0.4103
   12MOL   H181 6143   5.485   3.680   7.207 -0.3384 -0.5147 -1.2351
   12MOL   H182 6144   5.331   3.868   7.378 -2.9217  0.9628 -1.1553
   12MOL   H183 6145   5.283   3.822   7.216 -0.3209  0.6922  0.1039
   12MOL   H184 6146   5.405   4.019   7.210  1.0028  1.3512 -0.8463
   12MOL   H185 6147   5.493   3.905   7.126  0.7104 -1.2825  1.5266
   12MOL   H186 6148   5.794   3.953   7.632 -1.0403 -0.5845  0.4329
   12MOL   H187 6149   5.736   3.876   7.475  1.2756 -0.0940  0.2405
   12MOL   H188 6150   5.640   3.880   7.603 -0.4047  0.8449  0.2075
   12MOL   H189 6151   5.885   4.138   7.474  0.7139  0.2003 -0.6731
   12MOL   H190 6152   5.825   4.050   7.350  0.7329  1.2554 -1.1833
   12MOL   C191 6153   6.396   3.963   6.950  0.2444  0.4763  0.2802
   12MOL   C192 6154   6.258   3.935   7.006 -0.1128 -0.6265  0.1025
   12MOL   C193 6155   6.183   4.062   7.050 -0.6022  0.2787  1.0708
   12MOL   C194 6156   6.235   4.105   7.182  0.1435 -0.0280 -0.1312
   12MOL   C195 6157   6.166   4.231   7.235 -0.1854  0.4016  0.5954
   12MOL   O196 6158   6.030   4.215   7.244  0.4261  0.5773  0.2078
   12MOL   C197 6159   5.955   4.306   7.304  0.2624  0.0951  0.4793
   12MOL   O198 6160   6.008   4.413   7.345  1.3481  0.2292  0.2758
   12MOL   C199 6161   5.804   4.265   7.314 -0.4406  0.4371 -0.4369
   12MOL   C200 6162   5.727   4.376   7.383 -0.3081  0.1372  0.7053
   12MOL   C201 6163   5.728   4.234   7.180  0.6130 -0.0736 -0.5130
   12MOL   H202 6164   6.385   4.022   6.860  1.8003 -0.7962 -0.7698
   12MOL   H203 6165   6.467   4.016   7.014  1.1797  1.2999 -1.4051
   12MOL   H204 6166   6.434   3.865   6.921  0.6823  0.9516 -0.7574
   12MOL   H205 6167   6.278   3.873   7.093 -1.0863 -1.8526 -0.5370
   12MOL   H206 6168   6.190   3.880   6.942 -0.9819 -0.7551  1.1228
   12MOL   H207 6169   6.076   4.044   7.061 -1.3424  2.7178 -1.5322
   12MOL   H208 6170   6.200   4.142   6.978  0.9199 -1.0321 -0.0835
   12MOL   H209 6171   6.236   4.024   7.255  2.3544  0.4037  0.3485
   12MOL   H210 6172   6.339   4.132   7.165  0.0827  1.1347  1.2250
   12MOL   H211 6173   6.206   4.247   7.335  0.4210 -4.9202  1.3950
   12MOL   H212 6174   6.199   4.315   7.175 -1.5567  1.6927  1.6316
   12MOL   H213 6175   5.624   4.347   7.403 -1.1622  2.0443 -0.7723
   12MOL   H214 6176   5.720   4.461   7.316 -1.3918  0.7067  1.5302
   12MOL   H215 6177   5.775   4.397   7.478  1.3636  2.7536 -0.6682
   12MOL   H216 6178   5.622   4.247   7.201  0.9191 -0.0153  1.0307
   12MOL   H217 6179   5.753   4.129   7.164  2.8207  0.3460 -0.1019
   12MOL   C218 6180   5.466   3.734   6.860 -0.1101  0.5975  0.5374
   12MOL   C219 6181   5.567   3.808   6.774  0.2525  0.7583 -0.1002
   12MOL   C220 6182   5.667   3.891   6.857 -0.4904 -0.2702 -0.5117
   12MOL   C221 6183   5.764   3.975   6.775  0.6084 -0.1245 -0.0847
   12MOL   C222 6184   5.879   4.044   6.850 -0.5456 -0.0291 -0.2949
   12MOL   O223 6185   5.833   4.118   6.956 -0.0476 -0.0284  0.4687
   12MOL   C224 6186   5.854   4.247   6.969  0.0625 -0.5608  0.0021
   12MOL   O225 6187   5.952   4.310   6.920  0.5978 -0.1396 -0.7553
   12MOL   C226 6188   5.746   4.311   7.052  0.2993 -0.0978 -0.2878
   12MOL   C227 6189   5.779   4.467   7.063  0.1236  0.5776 -0.0070
   12MOL   C228 6190   5.615   4.292   6.956  0.0178 -0.0762 -0.6852
   12MOL   H229 6191   5.425   3.655   6.797 -1.0155 -0.3808  2.3022
   12MOL   H230 6192   5.501   3.676   6.946  0.4642  0.6053  0.3093
   12MOL   H231 6193   5.380   3.794   6.892  1.3722  2.8025  0.5207
   12MOL   H232 6194   5.511   3.874   6.707 -0.0186  1.3183  0.6665
   12MOL   H233 6195   5.623   3.737   6.713 -0.4493  0.2195 -0.1399
   12MOL   H234 6196   5.731   3.823   6.914 -0.9088 -1.6231 -1.6211
   12MOL   H235 6197   5.624   3.969   6.919 -0.9349 -0.6286 -0.3607
   12MOL   H236 6198   5.817   3.915   6.702  0.8798 -0.5750  0.4759
   12MOL   H237 6199   5.697   4.038   6.717 -0.6492 -0.2288  1.2180
   12MOL   H238 6200   5.937   4.100   6.776 -0.6642  0.4864 -0.0011
   12MOL   H239 6201   5.946   3.967   6.888 -0.2221  0.0681 -0.6643
   12MOL   H240 6202   5.701   4.534   7.099 -0.6698  0.7763 -2.0337
   12MOL   H241 6203   5.801   4.517   6.969 -2.9024  1.2066 -0.4317
   12MOL   H242 6204   5.860   4.493   7.131 -0.9092  0.9428  1.1076
   12MOL   H243 6205   5.589   4.188   6.977 -0.6438  0.2445  0.0979
   12MOL   H244 6206   5.655   4.292   6.854  0.7861 -0.1386 -0.3908
   12MOL   C245 6207   6.017   4.546   6.519 -0.4588  0.6970  0.5094
   12MOL   C246 6208   5.869   4.576   6.500 -0.2344  0.3752 -0.3344
   12MOL   C247 6209   5.789   4.588   6.634  0.0042  0.4490 -0.1611
   12MOL   C248 6210   5.651   4.653   6.626 -0.3448  0.4132  0.4687
   12MOL   C249 6211   5.590   4.669   6.765  0.4704 -0.3792  0.0980
   12MOL   O250 6212   5.567   4.538   6.816  0.4380  0.1785  0.3021
   12MOL   C251 6213   5.501   4.524   6.928 -0.4455 -0.8265  0.2570
   12MOL   O252 6214   5.465   4.616   7.001  0.0876  0.6983  0.0493
   12MOL   C253 6215   5.480   4.375   6.966  0.1406  0.0851  0.3675
   12MOL   C254 6216   5.418   4.368   7.107 -0.0076 -0.1621 -0.2551
   12MOL   C255 6217   5.383   4.308   6.860 -0.0195 -0.4011  0.3182
   12MOL   H256 6218   6.057   4.613   6.594 -1.0285  1.6238 -0.0111
   12MOL   H257 6219   6.022   4.445   6.560 -0.8972  1.3014  2.0918
   12MOL   H258 6220   6.067   4.549   6.422  0.3041  0.2367  0.8863
   12MOL   H259 6221   5.866   4.665   6.438 -0.1735 -0.6801 -1.8871
   12MOL   H260 6222   5.828   4.490   6.448  0.7739 -0.4874  0.2582
   12MOL   H261 6223   5.852   4.641   6.705 -0.2091 -0.7952  0.9707
   12MOL   H262 6224   5.782   4.485   6.671  1.6637  0.6536  0.7903
   12MOL   H263 6225   5.656   4.754   6.587 -0.5240  0.3948  0.4036
   12MOL   H264 6226   5.591   4.587   6.563  1.0594 -0.4184 -0.0306
   12MOL   H265 6227   5.666   4.700   6.836  1.6648 -0.5885 -1.0605
   12MOL   H266 6228   5.494   4.721   6.760  0.6859  0.2739  2.1717
   12MOL   H267 6229   5.321   4.416   7.111  1.1964  2.3725 -0.6243
   12MOL   H268 6230   5.393   4.267   7.139 -1.2924  0.0708 -0.5028
   12MOL   H269 6231   5.485   4.401   7.187  0.7592 -1.8110 -0.1761
   12MOL   H270 6232   5.446   4.275   6.777  1.1286  0.7655  0.7062
   12MOL   H271 6233   5.352   4.221   6.918  0.4001  0.7974  2.4000
   12MOL   C272 6234   5.364   3.714   6.466  0.2320  0.5891  0.7738
   12MOL   C273 6235   5.267   3.787   6.377  0.5764  0.2189 -0.0395
   12MOL   C274 6236   5.168   3.878   6.457  0.1278  0.2229 -0.4258
   12MOL   C275 6237   5.231   3.991   6.541 -0.1123 -0.2302  0.1133
   12MOL   C276 6238   5.136   4.074   6.624 -0.1491  0.1937  0.5812
   12MOL   O277 6239   5.210   4.172   6.681 -0.4719  0.2260  0.1251
   12MOL   C278 6240   5.155   4.269   6.754 -0.1605 -0.1403  0.1022
   12MOL   O279 6241   5.035   4.272   6.782 -0.7136  0.6623 -0.1952
   12MOL   C280 6242   5.249   4.382   6.803 -0.5209 -0.1333 -0.1764
   12MOL   C281 6243   5.162   4.455   6.909  0.0311 -0.8852  0.1490
   12MOL   C282 6244   5.287   4.483   6.684  0.0414  0.4420 -0.1299
   12MOL   H283 6245   5.437   3.665   6.401  1.9738  1.8572  1.7475
   12MOL   H284 6246   5.430   3.785   6.514  0.7740  0.7970 -0.2713
   12MOL   H285 6247   5.312   3.649   6.536  0.0022 -1.6230 -1.3607
   12MOL   H286 6248   5.331   3.846   6.311 -0.3287  1.0033 -0.2165
   12MOL   H287 6249   5.206   3.725   6.310 -0.8394  2.0539 -0.4863
   12MOL   H288 6250   5.092   3.920   6.391 -0.4564 -0.3383 -0.1151
   12MOL   H289 6251   5.106   3.816   6.522 -0.7823  0.7474 -0.7832
   12MOL   H290 6252   5.297   3.949   6.617 -1.8538 -1.6906  0.8574
   12MOL   H291 6253   5.295   4.054   6.479  4.2403 -2.8186  1.7526
   12MOL   H292 6254   5.085   4.018   6.702  0.7189 -1.4122  0.0185
   12MOL   H293 6255   5.065   4.116   6.553  0.1147  1.6302  1.1312
   12MOL   H294 6256   5.080   4.501   6.854  0.5420 -1.1079 -0.8082
   12MOL   H295 6257   5.135   4.395   6.996  0.1498 -2.5709 -0.9626
   12MOL   H296 6258   5.220   4.540   6.944 -0.5950 -0.1151 -0.6811
   12MOL   H297 6259   5.311   4.568   6.747 -1.2342  1.4360 -0.9795
   12MOL   H298 6260   5.385   4.451   6.649 -0.5149 -1.3951 -0.0890
   12MOL   C299 6261   5.490   5.298   6.434  0.2972  0.2252  0.2001
   12MOL   C300 6262   5.478   5.170   6.521 -0.5359  0.4493 -0.0023
   12MOL   C301 6263   5.331   5.125   6.541 -0.7610 -0.0326 -0.3835
   12MOL   C302 6264   5.313   4.992   6.602  0.2584  0.5637  0.5302
   12MOL   C303 6265   5.353   4.868   6.511 -0.3312 -0.5236  0.1302
   12MOL   O304 6266   5.279   4.754   6.560 -0.5848  0.3235  0.1962
   12MOL   C305 6267   5.282   4.636   6.489 -0.8740  0.4597  0.1237
   12MOL   O306 6268   5.339   4.622   6.384 -0.4566 -0.1691  0.3737
   12MOL   C307 6269   5.201   4.527   6.557 -0.0020 -0.1634  0.3689
   12MOL   C308 6270   5.188   4.402   6.468  0.4202  0.3549 -0.8250
   12MOL   C309 6271   5.063   4.574   6.607  0.2285 -0.4062  1.2621
   12MOL   H310 6272   5.588   5.344   6.444  1.0533 -1.4977  0.9822
   12MOL   H311 6273   5.420   5.369   6.479  0.7394  0.5851  0.3196
   12MOL   H312 6274   5.468   5.280   6.329 -0.8575  1.3126  0.2388
   12MOL   H313 6275   5.517   5.191   6.621  1.2281 -2.0299 -0.1257
   12MOL   H314 6276   5.553   5.098   6.488 -1.0975 -0.2707  0.3003
   12MOL   H315 6277   5.275   5.128   6.448 -0.1439  1.9982 -0.6972
   12MOL   H316 6278   5.283   5.195   6.609 -1.0307 -2.0342  1.5585
   12MOL   H317 6279   5.210   4.978   6.633  0.3078 -0.2110  0.3701
   12MOL   H318 6280   5.373   4.994   6.693 -0.8624  1.7717  1.2470
   12MOL   H319 6281   5.315   4.889   6.411  0.3024  0.8113  0.1541
   12MOL   H320 6282   5.460   4.849   6.503  0.0238  0.7825  1.5143
   12MOL   H321 6283   5.092   4.353   6.482  0.4944 -0.2464 -2.3469
   12MOL   H322 6284   5.182   4.438   6.365 -1.5976  0.8852 -0.5388
   12MOL   H323 6285   5.277   4.340   6.474  1.3577  1.6773 -0.6554
   12MOL   H324 6286   5.083   4.652   6.680  1.8576 -0.7136  1.1704
   12MOL   H325 6287   5.021   4.488   6.660 -0.2914 -0.5562  0.6117
   12MOL   C326 6288   4.814   3.873   6.488 -0.0370 -0.5280  0.0107
   12MOL   C327 6289   4.797   3.936   6.349  0.2500  0.1191  0.5969
   12MOL   C328 6290   4.729   4.070   6.345  0.0803 -0.2035  0.0866
   12MOL   C329 6291   4.817   4.187   6.392 -0.4000 -0.0799  0.8947
   12MOL   C330 6292   4.737   4.319   6.399  0.4833 -0.5772  0.3690
   12MOL   O331 6293   4.806   4.424   6.475  0.2989 -0.1367 -0.8868
   12MOL   C332 6294   4.886   4.506   6.414  0.0451 -0.0577  0.6006
   12MOL   O333 6295   4.906   4.499   6.292  1.2099  0.0014  0.0973
   12MOL   C334 6296   4.946   4.619   6.508  0.3424 -0.0398  0.2239
   12MOL   C335 6297   4.829   4.670   6.603 -0.4328 -0.1035  0.4331
   12MOL   C336 6298   4.996   4.740   6.411 -0.0653 -0.0363 -0.8058
   12MOL   H337 6299   4.728   3.894   6.553  0.8848  1.6472  0.5592
   12MOL   H338 6300   4.902   3.916   6.534 -0.7613  1.0851 -0.0853
   12MOL   H339 6301   4.838   3.767   6.479  0.1672 -0.3811 -1.2586
   12MOL   H340 6302   4.737   3.868   6.289 -1.2660 -1.4579  3.7508
   12MOL   H341 6303   4.887   3.957   6.292  0.3297 -1.9729 -0.0889
   12MOL   H342 6304   4.655   4.072   6.426 -0.5722  0.5914 -0.5173
   12MOL   H343 6305   4.678   4.079   6.249 -0.4894  0.6685  0.4548
   12MOL   H344 6306   4.918   4.197   6.352 -0.4552  0.1304  0.8055
   12MOL   H345 6307   4.836   4.174   6.498  1.8096 -1.9663  0.3228
   12MOL   H346 6308   4.638   4.304   6.441 -0.3579  1.0976 -0.9647
   12MOL   H347 6309   4.717   4.353   6.297  0.3410  0.0704  0.6108
   12MOL   H348 6310   4.873   4.764   6.635  2.5794 -0.8190 -1.3128
   12MOL   H349 6311   4.800   4.606   6.686 -1.4188  0.7085  0.7177
   12MOL   H350 6312   4.734   4.694   6.556 -1.0350 -0.0257  1.6699
   12MOL   H351 6313   5.063   4.695   6.337  0.8201 -0.9502  0.5237
   12MOL   H352 6314   5.059   4.807   6.469  3.0356 -1.9267 -1.8602
   12MOL   C353 6315   4.625   4.973   6.979 -0.1823  0.0680 -0.7698
   12MOL   C354 6316   4.742   5.072   6.979  0.6081 -0.8030  0.6037
   12MOL   C355 6317   4.779   5.136   6.839 -0.7853  0.4624  0.2209
   12MOL   C356 6318   4.837   5.039   6.740 -0.0610 -0.2288  0.3854
   12MOL   C357 6319   4.891   5.098   6.614 -0.2382 -0.8600  0.3178
   12MOL   O358 6320   4.930   5.008   6.515  0.6148 -0.1268  0.6862
   12MOL   C359 6321   4.835   4.949   6.430  0.5239  0.0333  0.1519
   12MOL   O360 6322   4.721   4.970   6.431  0.3516  0.2568 -0.1502
   12MOL   C361 6323   4.906   4.844   6.333 -0.2116  0.0881 -1.0768
   12MOL   C362 6324   4.803   4.777   6.243  0.3946 -0.3641  0.0818
   12MOL   C363 6325   5.010   4.924   6.245  0.2476  0.7936  0.5429
   12MOL   H364 6326   4.548   5.037   6.935 -0.0540 -0.2481 -1.4665
   12MOL   H365 6327   4.598   4.936   7.078  0.8837 -0.1734 -0.5714
   12MOL   H366 6328   4.635   4.894   6.905  2.4576  0.4401 -0.8360
   12MOL   H367 6329   4.726   5.149   7.054  0.9800 -0.8965  0.7759
   12MOL   H368 6330   4.827   5.015   7.015  0.7780 -0.4043  0.8277
   12MOL   H369 6331   4.852   5.214   6.861 -0.9558  0.9628 -0.9609
   12MOL   H370 6332   4.702   5.193   6.787 -1.1063 -0.7585 -0.6743
   12MOL   H371 6333   4.753   4.973   6.720  0.8324 -1.0313 -0.7734
   12MOL   H372 6334   4.915   4.973   6.777 -2.3245 -2.7600  0.7521
   12MOL   H373 6335   4.827   5.173   6.569 -0.9023 -0.5317  1.7986
   12MOL   H374 6336   4.981   5.154   6.638 -1.9075  2.4601 -0.9193
   12MOL   H375 6337   4.731   4.839   6.190  0.3635  0.2548  0.8544
   12MOL   H376 6338   4.852   4.736   6.154  2.1527  0.8054  0.4878
   12MOL   H377 6339   4.742   4.699   6.289  0.0852  0.5689  1.2510
   12MOL   H378 6340   5.080   4.956   6.322  0.4773 -2.0448  1.5352
   12MOL   H379 6341   5.053   4.854   6.174  0.4094  0.7267  0.7071
   12MOL   C380 6342   5.012   4.398   5.995  0.9693  0.2267 -0.4804
   12MOL   C381 6343   4.920   4.486   5.901  0.3348 -0.1976 -0.1984
   12MOL   C382 6344   4.989   4.622   5.867  0.2960 -0.2809 -0.2444
   12MOL   C383 6345   4.887   4.734   5.831  0.4677  0.9123  0.2357
   12MOL   C384 6346   4.944   4.872   5.828 -0.7004 -0.9311 -0.1230
   12MOL   O385 6347   4.974   4.916   5.956  0.2926  0.4114  0.4728
   12MOL   C386 6348   4.903   4.999   6.028 -0.4186 -0.0644 -0.1703
   12MOL   O387 6349   4.789   5.035   5.993 -0.0765 -0.1084 -0.2169
   12MOL   C388 6350   4.970   5.049   6.154 -0.0113 -0.3981 -0.6281
   12MOL   C389 6351   4.873   5.153   6.225 -0.3816  0.1786  0.4735
   12MOL   C390 6352   5.109   5.116   6.111 -0.5805  0.6482 -0.1898
   12MOL   H391 6353   4.967   4.303   6.024 -1.1927  1.5346  0.5600
   12MOL   H392 6354   5.098   4.374   5.932  0.5785 -0.4100 -0.7783
   12MOL   H393 6355   5.048   4.445   6.086  0.1778  0.4027 -0.2575
   12MOL   H394 6356   4.837   4.502   5.970  0.2208  1.3803 -0.6981
   12MOL   H395 6357   4.882   4.437   5.811 -0.8237  1.3786 -0.5710
   12MOL   H396 6358   5.054   4.653   5.949  0.0278  1.6872 -0.7535
   12MOL   H397 6359   5.060   4.600   5.787  0.9541  0.9094 -0.0079
   12MOL   H398 6360   4.854   4.703   5.731 -0.3286  1.7611  0.2279
   12MOL   H399 6361   4.793   4.729   5.887  0.5970 -3.0016  0.2332
   12MOL   H400 6362   4.872   4.939   5.782  1.4767  0.5457 -1.4524
   12MOL   H401 6363   5.037   4.880   5.772  1.2481  0.0281  3.0872
   12MOL   H402 6364   4.776   5.106   6.245 -0.6073  0.1275 -0.7314
   12MOL   H403 6365   4.852   5.238   6.161  0.3606  0.7198  0.9482
   12MOL   H404 6366   4.906   5.200   6.318  1.0544 -0.9256  0.5448
   12MOL   H405 6367   5.167   5.043   6.054  0.4927 -0.1792  1.8985
   12MOL   H406 6368   5.158   5.123   6.208 -2.7165  0.7238  0.9035
   12MOL   C407 6369   5.094   5.535   6.769  0.7912 -0.0528 -0.6268
   12MOL   C408 6370   4.981   5.458   6.707 -0.5296 -0.0871  1.1057
   12MOL   C409 6371   4.975   5.477   6.552  0.0745 -0.1816  0.1918
   12MOL   C410 6372   5.085   5.415   6.460 -0.5325 -0.5106 -0.0956
   12MOL   C411 6373   5.060   5.453   6.314  0.3706  0.3914  0.5226
   12MOL   O412 6374   5.125   5.364   6.226 -0.0722  0.4013 -0.2476
   12MOL   C413 6375   5.089   5.374   6.102  0.6401  0.0121  0.4548
   12MOL   O414 6376   5.019   5.461   6.057  0.4305 -0.2555 -0.1714
   12MOL   C415 6377   5.134   5.247   6.027  0.2920 -0.5835 -0.0991
   12MOL   C416 6378   5.291   5.256   6.018 -0.0931 -0.9735 -0.4404
   12MOL   C417 6379   5.066   5.231   5.881 -0.7688  0.0449  0.3109
   12MOL   H418 6380   5.090   5.643   6.759 -0.9612  0.1141  1.4871
   12MOL   H419 6381   5.108   5.505   6.873 -0.0100 -1.5784 -0.9400
   12MOL   H420 6382   5.187   5.508   6.719  0.8932 -1.7410  0.4090
   12MOL   H421 6383   4.886   5.489   6.752  0.2079  0.8062  2.0917
   12MOL   H422 6384   4.992   5.354   6.738 -1.0248  0.0233  1.6802
   12MOL   H423 6385   4.875   5.456   6.515  0.5420 -1.9263 -0.0991
   12MOL   H424 6386   4.985   5.584   6.532  0.1778 -0.3465 -0.6798
   12MOL   H425 6387   5.075   5.309   6.482 -1.1314 -0.6467 -0.9970
   12MOL   H426 6388   5.190   5.433   6.481 -0.2623  0.2633 -2.0391
   12MOL   H427 6389   4.953   5.443   6.294  0.5628  0.3849 -0.5602
   12MOL   H428 6390   5.101   5.552   6.297 -0.0899  0.4895 -0.0404
   12MOL   H429 6391   5.323   5.167   5.963 -1.6794 -1.1437 -1.1230
   12MOL   H430 6392   5.336   5.255   6.117 -0.7619  0.2755 -0.1218
   12MOL   H431 6393   5.318   5.347   5.965  1.2125  0.3336  2.3799
   12MOL   H432 6394   4.960   5.248   5.895 -0.3572  1.2593  2.0514
   12MOL   H433 6395   5.069   5.124   5.859 -0.0458 -0.1745  1.4107
   12MOL   C434 6396   5.317   4.688   6.006  0.5284 -0.2922 -0.2157
   12MOL   C435 6397   5.327   4.742   5.860  0.3419  0.4584  0.1908
   12MOL   C436 6398   5.407   4.869   5.835  0.2020 -0.3413 -0.2689
   12MOL   C437 6399   5.404   4.913   5.689  0.1569  0.5778  0.0076
   12MOL   C438 6400   5.403   5.071   5.681  0.0622  0.6138  0.3801
   12MOL   O439 6401   5.275   5.122   5.717  0.2050 -0.2269 -0.2329
   12MOL   C440 6402   5.261   5.254   5.711 -0.0268  0.3644  0.3161
   12MOL   O441 6403   5.353   5.330   5.679  0.0389  0.3209 -0.4321
   12MOL   C442 6404   5.126   5.309   5.749  0.3234 -0.4606  0.3956
   12MOL   C443 6405   5.121   5.456   5.776  0.4073 -0.2133 -0.2235
   12MOL   C444 6406   5.021   5.278   5.632  0.3171 -0.4096 -0.0769
   12MOL   H445 6407   5.417   4.672   6.045  0.3351 -0.4923  0.2022
   12MOL   H446 6408   5.260   4.754   6.072 -1.1596 -1.2587 -0.6883
   12MOL   H447 6409   5.250   4.602   6.010  3.4652 -2.7323 -1.7327
   12MOL   H448 6410   5.346   4.668   5.783  0.8335  0.8369 -0.0490
   12MOL   H449 6411   5.226   4.780   5.841 -0.0781 -0.7855 -0.1067
   12MOL   H450 6412   5.387   4.951   5.904  2.6494  1.2101 -1.3418
   12MOL   H451 6413   5.511   4.847   5.856  0.4980  0.3312 -0.9907
   12MOL   H452 6414   5.319   4.880   5.631 -0.5320 -1.0075  1.8570
   12MOL   H453 6415   5.496   4.881   5.640 -1.4808 -2.7544 -1.0104
   12MOL   H454 6416   5.430   5.107   5.582 -0.7009  1.3414  0.4258
   12MOL   H455 6417   5.473   5.114   5.752  0.1007 -0.6546  1.1329
   12MOL   H456 6418   5.154   5.517   5.692  2.2135 -0.9456 -0.0805
   12MOL   H457 6419   5.027   5.496   5.814  2.2353  1.9582  2.1689
   12MOL   H458 6420   5.197   5.485   5.849  1.6259  0.1239 -1.5908
   12MOL   H459 6421   4.931   5.331   5.664 -0.5365 -2.1559  0.4911
   12MOL   H460 6422   4.996   5.172   5.637 -2.4064  0.2384  0.9061
   12MOL   C461 6423   4.898   4.785   5.074 -0.2361 -0.9793 -0.5870
   12MOL   C462 6424   4.970   4.879   4.979  0.1277  0.0119 -0.6579
   12MOL   C463 6425   5.034   5.005   5.058  0.5444  0.3077  0.2917
   12MOL   C464 6426   5.146   4.980   5.151  0.7630  0.3237  0.0693
   12MOL   C465 6427   5.213   5.107   5.196  0.3921 -0.5518 -0.3431
   12MOL   O466 6428   5.128   5.193   5.280  0.1769  0.3295  0.2692
   12MOL   C467 6429   5.105   5.173   5.413  0.7165 -0.4271 -0.2097
   12MOL   O468 6430   5.152   5.081   5.483 -0.4137  0.3927  0.5862
   12MOL   C469 6431   5.019   5.288   5.477  0.7074  0.1437 -0.1275
   12MOL   C470 6432   5.078   5.425   5.425  0.1198  0.0588 -0.0510
   12MOL   C471 6433   4.874   5.290   5.420  0.0614 -0.4836 -0.4552
   12MOL   H472 6434   4.801   4.826   5.105  0.6343 -0.0038  0.9278
   12MOL   H473 6435   4.947   4.756   5.167  0.3228  0.7665 -0.3144
   12MOL   H474 6436   4.868   4.701   5.012 -1.0455  1.4012 -3.5802
   12MOL   H475 6437   4.900   4.910   4.901 -0.4121  2.0510  0.6178
   12MOL   H476 6438   5.054   4.829   4.931  1.0429  0.5140  0.4109
   12MOL   H477 6439   4.958   5.060   5.114  0.2156 -1.1506  1.3338
   12MOL   H478 6440   5.070   5.075   4.983  0.4276  0.4349  0.3551
   12MOL   H479 6441   5.220   4.921   5.097 -1.1824 -0.5906 -1.7033
   12MOL   H480 6442   5.119   4.921   5.239  0.7841 -0.7346 -0.6212
   12MOL   H481 6443   5.293   5.069   5.259 -0.1032 -0.0142  0.6142
   12MOL   H482 6444   5.247   5.171   5.115 -1.4537  1.2168  0.2312
   12MOL   H483 6445   5.069   5.446   5.318 -3.0380  0.4714  0.2536
   12MOL   H484 6446   5.184   5.441   5.446 -0.0628  0.8199  0.3367
   12MOL   H485 6447   5.025   5.514   5.460  0.2547 -0.6613  2.0275
   12MOL   H486 6448   4.879   5.320   5.315 -0.0769 -1.7642 -0.8332
   12MOL   H487 6449   4.833   5.379   5.467  1.1209 -1.1037  1.7384
   12MOL   C488 6450   4.741   5.673   5.999 -0.3555  0.1286 -0.2049
   12MOL   C489 6451   4.696   5.649   5.851 -0.2149 -1.0517  0.3025
   12MOL   C490 6452   4.731   5.508   5.799  0.1343  0.5475 -0.0146
   12MOL   C491 6453   4.607   5.417   5.805  0.6496 -0.4363  0.8534
   12MOL   C492 6454   4.631   5.281   5.759 -0.2851  0.0464  0.8383
   12MOL   O493 6455   4.681   5.276   5.629 -0.0035 -0.0191 -0.4397
   12MOL   C494 6456   4.724   5.156   5.585 -0.0768  0.1431  0.0403
   12MOL   O495 6457   4.725   5.048   5.654 -0.2690 -0.1291  0.8393
   12MOL   C496 6458   4.767   5.171   5.434 -0.1731  0.2561  0.1197
   12MOL   C497 6459   4.811   5.033   5.389  0.1872 -0.7334  0.1248
   12MOL   C498 6460   4.638   5.209   5.343 -0.6777 -0.0373  0.7115
   12MOL   H499 6461   4.701   5.597   6.067 -2.0640  0.9891 -0.2156
   12MOL   H500 6462   4.844   5.694   6.028  0.3561 -0.5670 -2.2012
   12MOL   H501 6463   4.718   5.773   6.035  1.7727  0.5464  0.0782
   12MOL   H502 6464   4.741   5.723   5.785 -0.2795  0.5947  2.0297
   12MOL   H503 6465   4.590   5.675   5.849  0.2849  1.2591  1.5576
   12MOL   H504 6466   4.760   5.520   5.695  0.6734 -0.6120  0.0013
   12MOL   H505 6467   4.812   5.464   5.857  0.3391 -0.2933 -0.9283
   12MOL   H506 6468   4.535   5.468   5.742  1.9599 -0.9592 -1.1069
   12MOL   H507 6469   4.576   5.427   5.909 -0.2603  1.2142  0.4281
   12MOL   H508 6470   4.711   5.243   5.823 -0.8334 -3.1967 -0.2654
   12MOL   H509 6471   4.549   5.209   5.766  0.0915 -0.2810  1.9823
   12MOL   H510 6472   4.889   4.993   5.454  1.3283  0.6957 -0.3293
   12MOL   H511 6473   4.865   5.039   5.295 -0.2464 -1.1686 -0.1561
   12MOL   H512 6474   4.729   4.963   5.372  1.3371 -1.9726 -0.4257
   12MOL   H513 6475   4.687   5.231   5.248 -0.1468  1.4200  1.3104
   12MOL   H514 6476   4.602   5.306   5.377 -1.4443 -0.4237  1.0109
   12MOL   C515 6477   4.110   4.673   5.861  0.1256 -0.2913 -0.7137
   12MOL   C516 6478   4.106   4.797   5.767  0.0308 -0.9106 -0.4874
   12MOL   C517 6479   4.227   4.885   5.774 -0.1421 -0.1021  0.3899
   12MOL   C518 6480   4.253   4.961   5.647 -0.5904 -0.2728  0.2033
   12MOL   C519 6481   4.400   5.024   5.654  0.4887 -0.0272 -0.4295
   12MOL   O520 6482   4.443   5.100   5.537  0.5274 -0.4155  0.2273
   12MOL   C521 6483   4.469   5.030   5.428  0.3189  0.0235  0.4203
   12MOL   O522 6484   4.455   4.906   5.414 -0.3711 -0.1440  0.5951
   12MOL   C523 6485   4.514   5.115   5.310  0.0029 -0.8728  0.1214
   12MOL   C524 6486   4.535   5.023   5.190 -0.3616  0.2203  0.3806
   12MOL   C525 6487   4.396   5.213   5.277 -0.4795 -0.5015 -0.4230
   12MOL   H526 6488   4.017   4.619   5.876  1.1196 -1.7425  0.3747
   12MOL   H527 6489   4.191   4.606   5.834  0.8585  0.4052 -0.2722
   12MOL   H528 6490   4.141   4.720   5.955  0.1111 -1.4002 -0.1428
   12MOL   H529 6491   4.096   4.755   5.666  0.5184 -0.0313 -0.9055
   12MOL   H530 6492   4.018   4.857   5.788  1.5735  1.6874 -1.2307
   12MOL   H531 6493   4.206   4.966   5.844 -1.8697  0.1964 -0.4364
   12MOL   H532 6494   4.322   4.839   5.800  0.0161  0.4208  0.7433
   12MOL   H533 6495   4.184   5.044   5.633 -1.9566 -1.1687  1.4617
   12MOL   H534 6496   4.264   4.892   5.563  2.4974  0.2025  0.1659
   12MOL   H535 6497   4.396   5.098   5.734  1.1505  0.9827 -1.3081
   12MOL   H536 6498   4.479   4.952   5.673  1.3242  0.2811 -2.6126
   12MOL   H537 6499   4.555   5.074   5.095  0.7114  0.6426  0.8246
   12MOL   H538 6500   4.435   4.980   5.180 -0.6466  0.7193  1.0799
   12MOL   H539 6501   4.616   4.951   5.195  0.1303  0.4961 -2.5930
   12MOL   H540 6502   4.376   5.276   5.364 -0.5429  1.6732 -1.9482
   12MOL   H541 6503   4.302   5.163   5.256  0.5850 -2.5946 -0.3268
   12MOL   H542 6504   4.406   5.288   5.198 -0.7606 -0.9163 -0.8487
   13MOL     C1 6505   2.240   3.836   1.171 -1.0347 -0.0200  0.3822
   13MOL     C2 6506   2.308   3.958   1.230  0.4540  0.5152  0.1027
   13MOL     C3 6507   2.210   4.045   1.299 -0.3542 -0.0840  0.3065
   13MOL     C4 6508   2.262   4.167   1.372 -0.0257  0.3953 -0.8130
   13MOL     C5 6509   2.179   4.211   1.499  0.0541  0.1023 -0.5996
   13MOL     O6 6510   2.188   4.118   1.604  0.2927 -0.1798 -0.3089
   13MOL     C7 6511   2.104   4.131   1.711 -0.1993 -0.2692 -0.3295
   13MOL     O8 6512   2.043   4.235   1.745 -0.8106  0.8136  0.1799
   13MOL     C9 6513   2.089   4.005   1.795  0.1318  0.0479  0.9742
   13MOL    C10 6514   2.218   3.987   1.882  0.5058 -0.5624 -0.3140
   13MOL    C11 6515   2.084   3.876   1.702 -0.5394  0.4980  0.3466
   13MOL    H12 6516   2.321   3.781   1.123 -1.2392  0.4773 -0.5577
   13MOL    H13 6517   2.159   3.857   1.101 -1.5413  2.3935  1.6580
   13MOL    H14 6518   2.194   3.773   1.247 -2.7490 -0.4684 -0.9730
   13MOL    H15 6519   2.387   3.920   1.295  0.7569 -0.7323 -0.9845
   13MOL    H16 6520   2.347   4.015   1.146  0.0730  0.6090 -0.0101
   13MOL    H17 6521   2.136   4.073   1.223  1.3361 -1.3364 -1.8635
   13MOL    H18 6522   2.155   3.991   1.376 -1.1511  0.3937  0.0853
   13MOL    H19 6523   2.284   4.252   1.308 -0.9966  0.8024 -0.6225
   13MOL    H20 6524   2.362   4.140   1.406 -0.7159 -0.8108  0.3093
   13MOL    H21 6525   2.218   4.307   1.532 -0.7584 -0.5069  2.3246
   13MOL    H22 6526   2.073   4.230   1.481 -0.6568 -1.6548  1.4575
   13MOL    H23 6527   2.232   4.077   1.943  0.2819  0.9153 -2.3918
   13MOL    H24 6528   2.304   3.983   1.816  0.5015  0.6330 -0.3970
   13MOL    H25 6529   2.209   3.895   1.939 -0.4303  1.4280  2.9077
   13MOL    H26 6530   2.131   3.805   1.770  0.6239  1.9184  1.0438
   13MOL    H27 6531   2.147   3.879   1.612  0.0753  1.5661  0.8043
   13MOL    H28 6532   1.994   4.018   1.846 -0.1423 -3.0712  1.3529
   13MOL    C29 6533   1.823   4.440   1.590 -0.6660 -0.1883 -0.1514
   13MOL    C30 6534   1.725   4.319   1.577  0.3150 -0.0681  0.1098
   13MOL    C31 6535   1.705   4.249   1.714  0.2273 -0.0817  0.2357
   13MOL    C32 6536   1.600   4.142   1.704  0.5966 -0.0903 -1.1148
   13MOL    C33 6537   1.629   4.022   1.619 -0.1331 -0.0915 -0.4065
   13MOL    O34 6538   1.732   3.946   1.673  0.6389 -0.6672  0.2834
   13MOL    C35 6539   1.847   3.910   1.598 -0.0704 -0.2205  0.4707
   13MOL    O36 6540   1.882   3.972   1.494 -0.3649 -0.2611  0.2710
   13MOL    C37 6541   1.948   3.805   1.665  0.0750 -0.7012  0.6753
   13MOL    C38 6542   1.898   3.743   1.795 -0.3107  0.1781  0.1444
   13MOL    C39 6543   1.988   3.682   1.571 -0.4147 -0.3978 -0.2565
   13MOL    H40 6544   1.813   4.497   1.682 -1.6918 -1.5162  0.5690
   13MOL    H41 6545   1.927   4.408   1.597 -0.3229  0.7764 -0.7862
   13MOL    H42 6546   1.820   4.506   1.503  0.1902 -0.4105 -0.3560
   13MOL    H43 6547   1.761   4.249   1.502  1.4590 -1.7670  2.1774
   13MOL    H44 6548   1.626   4.357   1.551  0.1887 -1.9383 -2.2719
   13MOL    H45 6549   1.665   4.332   1.773 -0.0941  0.3580 -0.5972
   13MOL    H46 6550   1.807   4.219   1.740  0.0733 -0.5150  0.3538
   13MOL    H47 6551   1.609   4.108   1.807  1.1023 -0.1986 -1.1932
   13MOL    H48 6552   1.495   4.165   1.692  0.1222 -2.0860 -1.0310
   13MOL    H49 6553   1.642   4.068   1.520  0.8866 -2.1187 -1.2430
   13MOL    H50 6554   1.544   3.955   1.611 -1.7086  1.6168  1.4161
   13MOL    H51 6555   1.950   3.654   1.829 -2.9260 -2.2438 -1.9723
   13MOL    H52 6556   1.791   3.725   1.808 -0.3590 -1.8943 -2.6908
   13MOL    H53 6557   1.908   3.815   1.876 -0.7992  0.3550  0.0503
   13MOL    H54 6558   2.073   3.630   1.616  1.8255  2.4014 -1.0889
   13MOL    H55 6559   2.038   3.720   1.482  0.2862 -0.9817 -0.1134
   13MOL    C56 6560   1.368   3.861   1.838 -0.0549  1.2224 -0.9447
   13MOL    C57 6561   1.315   3.721   1.795 -0.0639  0.7347  0.2769
   13MOL    C58 6562   1.431   3.632   1.733  0.2112 -0.0418  0.4434
   13MOL    C59 6563   1.534   3.575   1.838 -0.1158 -0.2160  0.1298
   13MOL    C60 6564   1.641   3.481   1.780 -0.3885 -0.7064  0.0086
   13MOL    O61 6565   1.718   3.548   1.688  0.3504 -0.8278 -0.1948
   13MOL    C62 6566   1.827   3.489   1.638 -0.1890 -0.7917 -0.5971
   13MOL    O63 6567   1.878   3.387   1.683  0.1221 -0.1247 -0.2046
   13MOL    C64 6568   1.890   3.572   1.520  0.1715 -0.4472  0.1712
   13MOL    C65 6569   1.988   3.472   1.435  0.1987 -0.7161 -0.3619
   13MOL    C66 6570   1.789   3.637   1.420  0.4891  0.1047 -0.5670
   13MOL    H67 6571   1.462   3.848   1.892 -0.0322  0.3668 -1.1786
   13MOL    H68 6572   1.301   3.922   1.898  0.4954  0.5534  0.3702
   13MOL    H69 6573   1.387   3.904   1.739  0.3821  0.1975 -1.3183
   13MOL    H70 6574   1.262   3.663   1.870  0.2168  1.3632  0.9715
   13MOL    H71 6575   1.236   3.742   1.723 -1.2463 -2.1684  0.6496
   13MOL    H72 6576   1.396   3.564   1.655  0.1267  1.4798 -0.8970
   13MOL    H73 6577   1.491   3.698   1.670 -0.3102  0.5283  0.5348
   13MOL    H74 6578   1.492   3.530   1.927 -1.2019 -0.3449 -0.4386
   13MOL    H75 6579   1.590   3.662   1.871 -0.7132 -0.1982  1.1065
   13MOL    H76 6580   1.701   3.442   1.862  1.2426 -0.8902 -1.2486
   13MOL    H77 6581   1.602   3.393   1.728  0.9371 -0.5677 -1.2329
   13MOL    H78 6582   1.943   3.377   1.405 -1.9602  0.1892 -0.0665
   13MOL    H79 6583   2.073   3.438   1.494 -0.3055  0.4734  1.1125
   13MOL    H80 6584   2.014   3.518   1.340 -0.8540 -0.2923 -0.4597
   13MOL    H81 6585   1.832   3.718   1.362  0.1985  0.3475 -0.4425
   13MOL    H82 6586   1.721   3.687   1.488  1.4412 -0.3426  0.7441
   13MOL    C83 6587   2.213   3.756   0.770  0.2409 -0.2736 -0.9926
   13MOL    C84 6588   2.083   3.835   0.778  0.6273  0.1611  0.3521
   13MOL    C85 6589   1.958   3.746   0.810  0.2640 -0.2663  0.1684
   13MOL    C86 6590   1.945   3.718   0.965 -0.2942 -0.2968  0.1547
   13MOL    C87 6591   1.834   3.621   0.987  0.0842  0.1293 -0.0535
   13MOL    O88 6592   1.785   3.635   1.118  0.1670 -0.0876 -0.1927
   13MOL    C89 6593   1.758   3.529   1.187  0.3286 -0.7473  0.5586
   13MOL    O90 6594   1.771   3.411   1.142 -0.2155 -0.1522 -0.1710
   13MOL    C91 6595   1.693   3.555   1.326  0.3889  0.2660 -0.0585
   13MOL    C92 6596   1.643   3.427   1.390  0.0318 -0.1935  0.0550
   13MOL    C93 6597   1.568   3.649   1.307 -0.5117  0.2284 -0.4937
   13MOL    H94 6598   2.296   3.826   0.774  2.7353 -3.2376  2.0552
   13MOL    H95 6599   2.213   3.683   0.851 -1.2700  1.1745  0.3497
   13MOL    H96 6600   2.221   3.686   0.687  1.5168 -1.6496  0.2399
   13MOL    H97 6601   2.064   3.887   0.684 -1.7750 -1.0264  0.1286
   13MOL    H98 6602   2.085   3.915   0.853  0.1291  2.1965 -1.7673
   13MOL    H99 6603   1.968   3.651   0.758 -0.3969 -1.4412  2.1083
   13MOL   H100 6604   1.866   3.791   0.773  0.8113 -0.2615 -1.1877
   13MOL   H101 6605   1.924   3.817   1.006 -0.5685 -0.1656 -0.2901
   13MOL   H102 6606   2.038   3.695   1.016  0.2728  1.7705  0.1091
   13MOL   H103 6607   1.856   3.517   0.962  1.8360  0.4953 -0.1193
   13MOL   H104 6608   1.747   3.651   0.931 -1.1826 -0.4063  1.5808
   13MOL   H105 6609   1.583   3.371   1.318  0.8935 -0.2460 -0.6310
   13MOL   H106 6610   1.583   3.449   1.478 -1.0918  0.4069 -0.8583
   13MOL   H107 6611   1.727   3.362   1.414  0.0123 -0.1096  0.3510
   13MOL   H108 6612   1.523   3.659   1.406 -0.7731  0.0561 -0.5967
   13MOL   H109 6613   1.610   3.748   1.289 -0.1522  0.2360  0.3607
   13MOL   C110 6614   0.932   3.594   1.691 -0.4425 -0.5256  0.4664
   13MOL   C111 6615   1.038   3.484   1.672 -0.2446 -0.1096  0.5137
   13MOL   C112 6616   1.089   3.472   1.533 -0.3203  0.3581 -0.1181
   13MOL   C113 6617   1.197   3.365   1.520  0.0810 -0.2645 -0.0515
   13MOL   C114 6618   1.265   3.349   1.380 -0.5686 -0.0441 -0.6007
   13MOL   O115 6619   1.328   3.474   1.349  0.3965  0.1500 -0.3364
   13MOL   C116 6620   1.378   3.493   1.224 -0.6984  0.4261 -0.0905
   13MOL   O117 6621   1.374   3.404   1.138  0.0317  0.0004 -0.3424
   13MOL   C118 6622   1.445   3.633   1.203  0.0172  0.0192  0.9981
   13MOL   C119 6623   1.487   3.652   1.050 -0.0334 -0.2976  0.0426
   13MOL   C120 6624   1.339   3.743   1.248  0.0158 -0.9198 -0.1673
   13MOL   H121 6625   0.979   3.692   1.689  0.1612 -0.8267 -2.2090
   13MOL   H122 6626   0.860   3.596   1.610  0.8713 -1.0561 -0.7451
   13MOL   H123 6627   0.892   3.604   1.792  0.6995  1.7840  0.7332
   13MOL   H124 6628   1.126   3.491   1.736 -0.1508 -0.0490  0.3781
   13MOL   H125 6629   1.000   3.387   1.704 -0.3310 -0.4591 -0.6298
   13MOL   H126 6630   1.013   3.446   1.460 -0.6609  0.2149  0.2844
   13MOL   H127 6631   1.130   3.569   1.504  0.5738  0.0195 -0.0014
   13MOL   H128 6632   1.158   3.266   1.546  0.0989 -0.6115 -1.3226
   13MOL   H129 6633   1.269   3.382   1.601 -0.8670 -0.8714  0.9389
   13MOL   H130 6634   1.338   3.268   1.380 -0.7626 -0.2461 -2.6537
   13MOL   H131 6635   1.192   3.319   1.304 -0.6839  1.6816 -1.1845
   13MOL   H132 6636   1.538   3.747   1.033  2.5375 -1.6293  0.1470
   13MOL   H133 6637   1.543   3.567   1.013  0.0921 -0.1524 -0.1015
   13MOL   H134 6638   1.407   3.656   0.976  1.7326  0.9961 -1.8557
   13MOL   H135 6639   1.318   3.736   1.355  0.9762 -0.8681  0.0301
   13MOL   H136 6640   1.407   3.828   1.257 -0.3387 -0.6496 -0.0316
   13MOL   C137 6641   1.762   4.011   1.182 -0.5575 -0.0086  0.2494
   13MOL   C138 6642   1.695   4.145   1.168  0.3559 -0.4716 -0.5332
   13MOL   C139 6643   1.545   4.135   1.152 -0.0395  0.3468  0.2490
   13MOL   C140 6644   1.512   4.100   1.005  0.4434  0.1996 -0.0819
   13MOL   C141 6645   1.362   4.095   0.993 -1.0499 -0.1031  0.2348
   13MOL   O142 6646   1.307   3.997   1.085 -0.2548  0.0677 -0.0056
   13MOL   C143 6647   1.250   3.881   1.046 -0.2583  0.2710  0.0618
   13MOL   O144 6648   1.240   3.847   0.928  0.0350 -0.2099  0.2367
   13MOL   C145 6649   1.206   3.788   1.171  0.0627 -0.6742 -0.1171
   13MOL   C146 6650   1.136   3.661   1.101 -0.5266 -0.2829 -0.0565
   13MOL   C147 6651   1.113   3.863   1.270  0.1848 -0.0273 -1.0050
   13MOL   H148 6652   1.751   3.956   1.089  3.1189  0.7972 -0.7574
   13MOL   H149 6653   1.730   3.953   1.269  1.0823 -1.2866  0.0451
   13MOL   H150 6654   1.867   4.025   1.210 -0.7854 -1.6887  2.1251
   13MOL   H151 6655   1.739   4.198   1.084  1.1347 -1.2684 -0.6412
   13MOL   H152 6656   1.711   4.212   1.252 -1.9561  2.2396 -2.1909
   13MOL   H153 6657   1.503   4.058   1.217 -0.9649  0.4370 -0.2406
   13MOL   H154 6658   1.492   4.228   1.171 -1.7320 -0.3214 -1.0926
   13MOL   H155 6659   1.544   4.189   0.951  1.1599  0.0845  0.1509
   13MOL   H156 6660   1.557   4.012   0.957 -2.7364 -0.4744 -1.9941
   13MOL   H157 6661   1.340   4.070   0.890  2.1916 -0.5739 -0.4143
   13MOL   H158 6662   1.305   4.187   1.003 -4.9244 -2.6085  2.0298
   13MOL   H159 6663   1.092   3.579   1.159  3.4043 -3.2130 -1.0221
   13MOL   H160 6664   1.193   3.616   1.020 -1.7611  0.0918 -1.1510
   13MOL   H161 6665   1.050   3.701   1.048  1.2514 -0.1818 -2.9187
   13MOL   H162 6666   1.103   3.790   1.350  2.1636  1.0457  0.2489
   13MOL   H163 6667   1.172   3.946   1.308 -1.7077  0.9027 -0.0206
   13MOL   C164 6668   0.304   3.981   0.866 -0.2813  0.6537 -0.1347
   13MOL   C165 6669   0.340   3.943   1.014  0.2175  0.4521 -0.2746
   13MOL   C166 6670   0.478   3.864   1.030 -1.3494  0.1990 -0.8123
   13MOL   C167 6671   0.496   3.810   1.173 -0.2506  0.7497  0.5964
   13MOL   C168 6672   0.633   3.743   1.199  0.8261 -0.0692 -0.6478
   13MOL   O169 6673   0.746   3.828   1.188 -0.2214 -0.2437  0.6081
   13MOL   C170 6674   0.870   3.794   1.226  0.4524 -0.1035  0.4708
   13MOL   O171 6675   0.898   3.685   1.266 -0.4603  0.1082  0.2452
   13MOL   C172 6676   0.968   3.913   1.226 -0.0093  0.1313  0.0457
   13MOL   C173 6677   0.960   3.982   1.081  0.6071 -0.3356 -0.1193
   13MOL   C174 6678   0.918   4.029   1.319  0.1702  0.3956  0.3171
   13MOL   H175 6679   0.383   4.046   0.828 -1.6542  1.0849 -2.4227
   13MOL   H176 6680   0.211   4.039   0.863 -0.8063 -0.0906  1.5503
   13MOL   H177 6681   0.289   3.904   0.790 -3.5318 -0.5241  1.5953
   13MOL   H178 6682   0.256   3.881   1.046  0.6973  0.6982  1.5004
   13MOL   H179 6683   0.333   4.028   1.081  0.5540  0.0823  0.2368
   13MOL   H180 6684   0.483   3.776   0.967 -0.1203 -2.1322  2.4143
   13MOL   H181 6685   0.557   3.936   1.010 -2.4390  1.1053 -1.8894
   13MOL   H182 6686   0.420   3.734   1.194  1.3273 -1.1814 -0.5420
   13MOL   H183 6687   0.490   3.887   1.250  1.0245  0.5896  0.8606
   13MOL   H184 6688   0.641   3.677   1.112 -0.6720 -1.0956 -0.0318
   13MOL   H185 6689   0.643   3.679   1.286  1.0619  0.4862 -0.2657
   13MOL   H186 6690   0.973   3.907   1.002  0.4637 -0.1582 -0.3118
   13MOL   H187 6691   1.030   4.065   1.074  1.8753 -1.4302 -0.8350
   13MOL   H188 6692   0.864   4.025   1.053  1.4351  0.1430 -2.3699
   13MOL   H189 6693   0.981   4.114   1.297  1.8152 -0.7470  0.5310
   13MOL   H190 6694   0.820   4.056   1.278  1.0741  3.3327  0.0043
   13MOL   C191 6695   1.144   4.356   1.260  0.0237  0.4105  0.3542
   13MOL   C192 6696   1.204   4.405   1.396 -0.6922 -0.2241  0.0581
   13MOL   C193 6697   1.335   4.339   1.433  0.1807  0.2835 -0.0563
   13MOL   C194 6698   1.337   4.188   1.436  0.1995  0.1112  0.0645
   13MOL   C195 6699   1.242   4.114   1.541  0.6344  0.1631  0.8254
   13MOL   O196 6700   1.110   4.106   1.488  0.0291 -0.1255  0.1456
   13MOL   C197 6701   1.029   4.019   1.541  0.3471  0.2008 -1.0159
   13MOL   O198 6702   1.066   3.931   1.616  0.8929  0.0602  0.2654
   13MOL   C199 6703   0.894   4.024   1.481  0.4128  0.1151  0.0974
   13MOL   C200 6704   0.812   3.898   1.521 -0.4121  0.7871 -0.0089
   13MOL   C201 6705   0.828   4.157   1.521  0.1656 -0.1217 -0.5550
   13MOL   H202 6706   1.203   4.380   1.173  0.3284 -2.6747 -0.3680
   13MOL   H203 6707   1.142   4.247   1.262  0.4186  0.4011  0.2961
   13MOL   H204 6708   1.045   4.397   1.242  1.3486  3.1928 -0.7639
   13MOL   H205 6709   1.129   4.391   1.474 -0.4785 -0.5076  0.2161
   13MOL   H206 6710   1.210   4.513   1.400  0.7278 -0.3069  0.3738
   13MOL   H207 6711   1.384   4.377   1.523  0.9658 -1.9831  0.5146
   13MOL   H208 6712   1.407   4.372   1.359  0.6051 -2.5452 -0.9825
   13MOL   H209 6713   1.310   4.139   1.343 -1.9769  1.7081 -0.1792
   13MOL   H210 6714   1.440   4.160   1.458 -0.0727  0.6659  2.1712
   13MOL   H211 6715   1.285   4.014   1.547 -1.0425 -0.6039  0.5562
   13MOL   H212 6716   1.262   4.145   1.643 -0.8748  3.0022  0.3027
   13MOL   H213 6717   0.855   3.801   1.497 -0.3794  0.5685  0.8975
   13MOL   H214 6718   0.709   3.908   1.488 -0.2274 -0.1347 -0.8823
   13MOL   H215 6719   0.815   3.883   1.629  4.7102  0.1506 -0.0965
   13MOL   H216 6720   0.761   4.191   1.442 -0.3908 -0.0169 -0.0347
   13MOL   H217 6721   0.904   4.235   1.515  1.5898 -1.4712 -0.3927
   13MOL   C218 6722   1.451   4.374   1.954  0.7732 -0.0477 -0.3104
   13MOL   C219 6723   1.340   4.365   2.067 -0.1756 -0.1982 -0.7377
   13MOL   C220 6724   1.229   4.260   2.028 -0.3472 -0.4392 -0.0656
   13MOL   C221 6725   1.130   4.308   1.922  0.0351  0.5131  0.9407
   13MOL   C222 6726   1.040   4.186   1.880  0.1061  1.1551  0.0847
   13MOL   O223 6727   0.944   4.221   1.783 -0.7429 -0.1339 -0.2284
   13MOL   C224 6728   0.835   4.151   1.775 -0.2325 -0.0465  0.0442
   13MOL   O225 6729   0.796   4.066   1.856  0.9632  0.7519 -0.0384
   13MOL   C226 6730   0.749   4.185   1.651  0.4644  0.3629  0.1877
   13MOL   C227 6731   0.622   4.094   1.646 -0.6322  0.1054  0.4127
   13MOL   C228 6732   0.708   4.344   1.647  0.2651 -0.8937  0.0427
   13MOL   H229 6733   1.423   4.410   1.855 -0.3327 -0.0865 -0.0220
   13MOL   H230 6734   1.516   4.453   1.992  0.6057 -0.0984  0.0863
   13MOL   H231 6735   1.508   4.282   1.942  0.2317 -0.4285  0.0171
   13MOL   H232 6736   1.291   4.458   2.093  1.2645 -0.1449  2.0076
   13MOL   H233 6737   1.378   4.336   2.165  0.7911  0.0910 -1.0182
   13MOL   H234 6738   1.173   4.235   2.118 -2.1293  0.9467 -0.7479
   13MOL   H235 6739   1.268   4.163   1.997  0.4698 -0.3354  0.6183
   13MOL   H236 6740   1.073   4.393   1.959  1.6315  1.4664  1.2141
   13MOL   H237 6741   1.199   4.329   1.841  0.3255 -3.3947  0.0898
   13MOL   H238 6742   0.987   4.150   1.969 -1.7879 -0.8443 -1.7920
   13MOL   H239 6743   1.092   4.100   1.839 -0.0845  1.9660 -1.8983
   13MOL   H240 6744   0.557   4.135   1.723 -0.9515 -0.2177  0.3200
   13MOL   H241 6745   0.624   3.988   1.670  2.8977 -0.0481 -0.3457
   13MOL   H242 6746   0.566   4.112   1.554 -2.3031 -0.7055  1.2422
   13MOL   H243 6747   0.679   4.379   1.548  3.8088  1.4435 -0.2331
   13MOL   H244 6748   0.803   4.397   1.652  1.1097 -2.3504 -0.2983
   13MOL   C245 6749   0.168   4.750   1.200  0.3395  0.2234  0.3270
   13MOL   C246 6750   0.126   4.736   1.351 -0.8622 -0.3983  0.4523
   13MOL   C247 6751   0.145   4.600   1.415 -0.3069  0.5648 -0.2740
   13MOL   C248 6752   0.293   4.593   1.459  0.1516  0.0676  0.0901
   13MOL   C249 6753   0.318   4.460   1.527 -0.7170 -0.2572 -0.2902
   13MOL   O250 6754   0.445   4.452   1.577 -0.2141 -0.1363  0.2144
   13MOL   C251 6755   0.466   4.398   1.700  0.8565 -0.0367  0.5990
   13MOL   O252 6756   0.384   4.338   1.772  0.1558  0.3978  0.6807
   13MOL   C253 6757   0.612   4.421   1.751 -0.2156 -0.1952  0.4745
   13MOL   C254 6758   0.644   4.574   1.724  0.2942 -0.9881  0.6229
   13MOL   C255 6759   0.639   4.378   1.898 -0.2605 -0.1423 -0.3334
   13MOL   H256 6760   0.277   4.752   1.198  0.2866  3.0825 -2.5929
   13MOL   H257 6761   0.117   4.672   1.144  0.3115  1.6158 -1.6357
   13MOL   H258 6762   0.136   4.844   1.155 -1.9324  0.3687  2.1555
   13MOL   H259 6763   0.177   4.820   1.397  1.7539 -1.7490  0.0937
   13MOL   H260 6764   0.021   4.765   1.355 -0.5400  0.7821  0.5909
   13MOL   H261 6765   0.103   4.524   1.349  1.0914 -0.8823  0.4954
   13MOL   H262 6766   0.087   4.596   1.507 -1.9062 -0.4074 -1.2928
   13MOL   H263 6767   0.348   4.603   1.366 -0.8270 -0.5699 -0.5686
   13MOL   H264 6768   0.327   4.674   1.524 -0.1884  0.6716 -0.4838
   13MOL   H265 6769   0.249   4.448   1.610 -0.3860  0.7634  0.1335
   13MOL   H266 6770   0.306   4.380   1.453 -2.3456  0.6637 -1.0532
   13MOL   H267 6771   0.743   4.594   1.763  0.3238  0.0590  0.0174
   13MOL   H268 6772   0.668   4.585   1.618 -1.1946  1.6115  0.5238
   13MOL   H269 6773   0.574   4.644   1.769  3.2391  1.8226  0.9704
   13MOL   H270 6774   0.601   4.276   1.905  3.3575 -1.4813  0.9741
   13MOL   H271 6775   0.747   4.361   1.906 -0.0661  0.0204 -2.2887
   13MOL   C272 6776   0.880   5.176   2.342 -0.2318  0.2584  0.1722
   13MOL   C273 6777   0.779   5.059   2.358  0.7065  0.7396 -0.1493
   13MOL   C274 6778   0.762   4.998   2.218 -0.1283 -0.5273 -1.0879
   13MOL   C275 6779   0.666   4.884   2.206 -0.0086 -0.5775  0.0189
   13MOL   C276 6780   0.664   4.830   2.059  0.0030  0.0894 -1.1744
   13MOL   O277 6781   0.615   4.696   2.058  0.1253 -0.0819 -0.5195
   13MOL   C278 6782   0.694   4.590   2.033 -0.8317  0.0230  0.0787
   13MOL   O279 6783   0.818   4.592   2.020 -0.3197 -0.2678  0.0341
   13MOL   C280 6784   0.604   4.458   2.024  0.0023 -0.0140 -0.5351
   13MOL   C281 6785   0.453   4.495   2.023  0.3680 -0.3612  0.0125
   13MOL   C282 6786   0.650   4.362   2.143  0.5280 -0.1838  0.5986
   13MOL   H283 6787   0.841   5.252   2.275  1.5384 -1.3155 -2.7515
   13MOL   H284 6788   0.890   5.219   2.442  1.1197 -1.9598  1.0285
   13MOL   H285 6789   0.975   5.134   2.308 -0.2082  0.9470 -0.6345
   13MOL   H286 6790   0.810   4.995   2.441 -2.2166  0.0479  0.4680
   13MOL   H287 6791   0.680   5.094   2.386 -0.0050 -2.3030  1.3692
   13MOL   H288 6792   0.718   5.075   2.154 -1.2912 -1.9688 -2.0388
   13MOL   H289 6793   0.856   4.967   2.174 -0.7120 -2.8277 -0.7828
   13MOL   H290 6794   0.696   4.810   2.280 -0.3752 -0.4368  0.3108
   13MOL   H291 6795   0.567   4.907   2.247 -1.0052  0.3512 -2.7108
   13MOL   H292 6796   0.765   4.824   2.017  0.9311  1.4830  0.7467
   13MOL   H293 6797   0.599   4.889   1.995  0.6106  0.7388 -1.2096
   13MOL   H294 6798   0.435   4.552   1.931  1.6076  1.2528  0.7291
   13MOL   H295 6799   0.403   4.399   2.027  2.7618 -1.7465 -1.5329
   13MOL   H296 6800   0.425   4.554   2.110 -0.4235 -0.1131 -0.4016
   13MOL   H297 6801   0.579   4.279   2.141  2.3904 -1.7584 -1.1611
   13MOL   H298 6802   0.738   4.305   2.117 -0.2312 -1.2854  0.4095
   13MOL   C299 6803   0.406   4.492   2.861  0.0145  0.2154 -0.8356
   13MOL   C300 6804   0.282   4.433   2.781 -0.1997  0.1053  0.1693
   13MOL   C301 6805   0.319   4.392   2.635  0.6199 -0.3966 -0.6677
   13MOL   C302 6806   0.305   4.508   2.537 -0.7032 -0.3782 -0.1947
   13MOL   C303 6807   0.313   4.449   2.400 -0.4264 -0.2489 -0.7893
   13MOL   O304 6808   0.439   4.390   2.369  0.0428 -0.1395  0.1694
   13MOL   C305 6809   0.550   4.466   2.350  0.2518 -0.2259  0.6205
   13MOL   O306 6810   0.548   4.589   2.371 -0.3492 -0.6851  0.1809
   13MOL   C307 6811   0.672   4.390   2.300  0.4780  0.1585  0.2658
   13MOL   C308 6812   0.679   4.240   2.362 -0.2299  0.0438 -0.2799
   13MOL   C309 6813   0.805   4.468   2.313 -0.7551  0.4949  0.1991
   13MOL   H310 6814   0.462   4.556   2.793  0.4000  1.6538  0.7837
   13MOL   H311 6815   0.474   4.416   2.899  0.2404  1.0792  0.5392
   13MOL   H312 6816   0.378   4.551   2.948  1.6287 -1.2157  0.6812
   13MOL   H313 6817   0.197   4.501   2.777  0.1004  0.3964 -1.5483
   13MOL   H314 6818   0.251   4.340   2.828  2.2433 -0.8620 -0.0138
   13MOL   H315 6819   0.240   4.324   2.604  0.4874 -0.3986 -0.3256
   13MOL   H316 6820   0.414   4.338   2.631  1.4722  1.1230 -1.6865
   13MOL   H317 6821   0.389   4.575   2.557 -2.6100  1.4941  1.7943
   13MOL   H318 6822   0.218   4.574   2.543 -1.2603 -1.1160 -0.0604
   13MOL   H319 6823   0.238   4.372   2.384  0.6792 -1.4217 -0.4878
   13MOL   H320 6824   0.285   4.528   2.331  0.6520 -0.1111 -1.0775
   13MOL   H321 6825   0.603   4.170   2.325  1.5532 -1.1271 -1.8342
   13MOL   H322 6826   0.762   4.186   2.317  0.4394  0.3025  0.6525
   13MOL   H323 6827   0.691   4.235   2.470 -1.0762  1.5525 -0.1065
   13MOL   H324 6828   0.791   4.574   2.292  0.4112  0.9136  1.4069
   13MOL   H325 6829   0.870   4.445   2.229 -1.1666  1.2309 -0.3332
   13MOL   C326 6830   1.064   4.645   1.786  0.5941  0.5900  0.1257
   13MOL   C327 6831   1.077   4.750   1.893 -0.2522  0.1504 -0.0309
   13MOL   C328 6832   1.116   4.682   2.030  0.2402  0.2137  0.1979
   13MOL   C329 6833   1.085   4.771   2.152  0.2671  0.3373  0.2225
   13MOL   C330 6834   1.139   4.712   2.286  0.4842 -0.5377  1.2828
   13MOL   O331 6835   1.072   4.598   2.317  0.7461 -0.3507  0.1212
   13MOL   C332 6836   0.991   4.598   2.426 -0.2916 -0.0234  0.8791
   13MOL   O333 6837   0.983   4.690   2.507 -0.2522  0.3133  0.2192
   13MOL   C334 6838   0.894   4.471   2.442  0.7624 -0.1453 -0.0308
   13MOL   C335 6839   0.798   4.498   2.564 -0.0098  0.5716  0.5144
   13MOL   C336 6840   0.983   4.340   2.463  0.0214  0.1974 -0.3806
   13MOL   H337 6841   1.148   4.577   1.774  0.1668 -0.3044  2.0177
   13MOL   H338 6842   1.045   4.679   1.684 -0.8340  0.2172  0.2546
   13MOL   H339 6843   0.984   4.575   1.813  0.0432  1.0177 -0.3567
   13MOL   H340 6844   0.979   4.797   1.899 -0.2602  0.1237  0.0482
   13MOL   H341 6845   1.141   4.829   1.854 -1.7587  0.7061 -1.4246
   13MOL   H342 6846   1.222   4.658   2.027  0.4148  1.0302 -0.4310
   13MOL   H343 6847   1.066   4.586   2.038 -0.5698  0.4883 -1.3234
   13MOL   H344 6848   0.978   4.789   2.155  0.4516  1.4430  0.3908
   13MOL   H345 6849   1.125   4.872   2.143  0.2371  0.1531 -2.1276
   13MOL   H346 6850   1.123   4.795   2.356 -1.7844  0.2409 -0.1280
   13MOL   H347 6851   1.247   4.695   2.288  0.9075  1.5740 -1.0951
   13MOL   H348 6852   0.736   4.408   2.569  0.4698  0.2565  0.8260
   13MOL   H349 6853   0.728   4.581   2.555 -1.5595 -0.7595  0.0570
   13MOL   H350 6854   0.850   4.519   2.658  2.4194  0.4920 -0.7784
   13MOL   H351 6855   1.054   4.347   2.381 -1.0027 -1.4449 -1.4317
   13MOL   H352 6856   0.926   4.251   2.438 -0.3862 -0.1685  1.7683
   13MOL   C353 6857   0.540   3.834   2.395  0.4889 -0.9367  0.3838
   13MOL   C354 6858   0.512   3.942   2.506  0.7197 -0.6917  0.1181
   13MOL   C355 6859   0.637   3.954   2.598  0.2260  0.2688  0.1263
   13MOL   C356 6860   0.622   4.072   2.696 -0.2561 -0.1117 -1.0651
   13MOL   C357 6861   0.758   4.125   2.747 -0.0899  0.1475 -0.9071
   13MOL   O358 6862   0.848   4.182   2.648  0.3278 -0.0535  0.1292
   13MOL   C359 6863   0.956   4.254   2.699 -0.2610 -0.4572 -0.0226
   13MOL   O360 6864   0.968   4.275   2.824 -0.0965  0.7555 -0.3778
   13MOL   C361 6865   1.059   4.305   2.597  0.3413 -0.1391  0.7389
   13MOL   C362 6866   1.134   4.433   2.647 -0.3250 -0.7480 -0.4642
   13MOL   C363 6867   1.174   4.200   2.568  0.1938  0.6289 -0.0242
   13MOL   H364 6868   0.625   3.865   2.335 -0.2410 -1.5109 -0.9667
   13MOL   H365 6869   0.465   3.834   2.316  2.5682  1.5442 -1.6455
   13MOL   H366 6870   0.562   3.737   2.441 -2.1788 -1.4128  0.7570
   13MOL   H367 6871   0.485   4.039   2.465  1.7196 -0.1649  0.7014
   13MOL   H368 6872   0.423   3.913   2.562  0.7056 -0.4114  0.2451
   13MOL   H369 6873   0.724   3.960   2.533  0.2294 -1.0857 -0.0128
   13MOL   H370 6874   0.661   3.866   2.659 -3.5608 -1.0872 -0.2226
   13MOL   H371 6875   0.560   4.044   2.782 -0.4784  2.1060 -0.4831
   13MOL   H372 6876   0.566   4.152   2.648 -0.7660  0.8451  1.0957
   13MOL   H373 6877   0.746   4.201   2.824 -0.5164 -0.7329 -0.1003
   13MOL   H374 6878   0.812   4.039   2.786  0.5415  0.6993 -0.5477
   13MOL   H375 6879   1.212   4.483   2.591 -2.1396  0.7724 -1.6966
   13MOL   H376 6880   1.060   4.507   2.678 -0.1018 -0.5522 -0.3966
   13MOL   H377 6881   1.174   4.408   2.746  1.1135  0.5383 -0.7081
   13MOL   H378 6882   1.226   4.245   2.483 -1.4344  1.3210 -0.6779
   13MOL   H379 6883   1.249   4.208   2.646 -0.6011 -1.0089  0.9397
   13MOL   C380 6884   1.313   4.123   3.408 -0.5665 -0.0076 -0.1937
   13MOL   C381 6885   1.330   4.141   3.253  0.1308 -0.4445  0.0699
   13MOL   C382 6886   1.244   4.041   3.170  0.1187  0.2305  0.3407
   13MOL   C383 6887   1.257   4.069   3.019  0.1689 -0.1040 -0.4053
   13MOL   C384 6888   1.173   3.975   2.923  0.2237  0.1430 -0.0645
   13MOL   O385 6889   1.195   4.010   2.786 -0.1002 -0.8179  0.0649
   13MOL   C386 6890   1.109   3.971   2.682 -0.1418 -0.4161 -0.1870
   13MOL   O387 6891   1.015   3.898   2.690 -0.0786 -0.0722 -0.1334
   13MOL   C388 6892   1.158   4.040   2.553  0.5106  0.1408  0.7502
   13MOL   C389 6893   1.055   4.011   2.440 -0.0020  0.1091  0.3931
   13MOL   C390 6894   1.298   3.973   2.514 -0.1627 -0.0039 -0.1505
   13MOL   H391 6895   1.205   4.120   3.423 -0.4515 -2.3529  0.4048
   13MOL   H392 6896   1.351   4.037   3.463  0.8202  0.2810 -0.6804
   13MOL   H393 6897   1.348   4.212   3.460  2.1063 -0.5972 -0.9417
   13MOL   H394 6898   1.436   4.145   3.231  0.5194  0.8769  2.0750
   13MOL   H395 6899   1.294   4.240   3.226 -2.6040 -1.3803  0.1362
   13MOL   H396 6900   1.267   3.937   3.194 -0.8027  0.1847  1.0988
   13MOL   H397 6901   1.143   4.046   3.211  0.0364  0.5993  0.0895
   13MOL   H398 6902   1.215   4.167   2.999  0.9706  0.2594 -0.3336
   13MOL   H399 6903   1.362   4.085   2.991  0.0239  0.5802 -0.5556
   13MOL   H400 6904   1.069   3.984   2.954  0.6611  0.1374  1.4623
   13MOL   H401 6905   1.195   3.870   2.943 -0.9661  0.0980  1.1206
   13MOL   H402 6906   0.955   4.027   2.479 -0.3568 -0.4836 -0.2708
   13MOL   H403 6907   1.062   3.906   2.414  2.4051  0.1059  0.9061
   13MOL   H404 6908   1.057   4.081   2.357 -0.8000 -1.7038 -1.1737
   13MOL   H405 6909   1.282   3.868   2.536  4.1738 -0.6288  0.6040
   13MOL   H406 6910   1.367   4.004   2.593 -4.0117  0.1667  3.2969
   13MOL   C407 6911   0.835   3.494   2.489 -0.2129 -0.4931  0.7422
   13MOL   C408 6912   0.860   3.600   2.388 -0.0746 -0.4057  0.1654
   13MOL   C409 6913   1.008   3.628   2.360  0.7692 -0.7023 -0.1808
   13MOL   C410 6914   1.026   3.718   2.228 -0.4480  0.2159 -0.1372
   13MOL   C411 6915   1.177   3.726   2.187  0.4688 -0.3915 -0.7171
   13MOL   O412 6916   1.262   3.795   2.281 -0.0587  0.0743 -0.4432
   13MOL   C413 6917   1.295   3.921   2.266 -0.5806  0.0767 -0.0835
   13MOL   O414 6918   1.260   3.990   2.173 -0.2022 -0.6536  0.6032
   13MOL   C415 6919   1.380   3.977   2.382 -0.5142 -0.4208  0.4818
   13MOL   C416 6920   1.427   4.121   2.354  0.2337 -0.0708  0.3828
   13MOL   C417 6921   1.509   3.894   2.398 -0.0172  0.2982  0.5625
   13MOL   H418 6922   0.729   3.469   2.488 -0.1515 -0.7112 -1.2004
   13MOL   H419 6923   0.897   3.404   2.482 -0.3406 -0.5198 -0.0765
   13MOL   H420 6924   0.849   3.540   2.587 -0.5789 -2.2468  1.6407
   13MOL   H421 6925   0.816   3.689   2.432 -0.5961 -1.4751  1.8725
   13MOL   H422 6926   0.810   3.582   2.293  1.4494  0.7398 -0.8656
   13MOL   H423 6927   1.057   3.675   2.446  1.0147 -0.9740 -0.1700
   13MOL   H424 6928   1.052   3.532   2.330  0.6739 -0.8810  0.2406
   13MOL   H425 6929   0.974   3.812   2.248 -1.0768 -0.6474  2.4708
   13MOL   H426 6930   0.979   3.669   2.143 -1.7014  1.0853  0.0424
   13MOL   H427 6931   1.222   3.626   2.187 -3.3261 -2.1965 -2.2551
   13MOL   H428 6932   1.188   3.764   2.085 -0.1959  1.0449 -0.2519
   13MOL   H429 6933   1.497   4.139   2.272 -0.9248 -3.3307 -1.4244
   13MOL   H430 6934   1.475   4.172   2.437 -0.2522 -2.7251  2.3412
   13MOL   H431 6935   1.345   4.187   2.322  0.6683 -0.1377 -0.9199
   13MOL   H432 6936   1.479   3.791   2.417  0.8791  0.0398  0.5661
   13MOL   H433 6937   1.551   3.912   2.497  1.1549  0.0776  0.1147
   13MOL   C434 6938   1.982   4.581   1.984 -1.1278 -0.1878  0.3053
   13MOL   C435 6939   1.878   4.484   2.048  0.1953 -0.2524  0.8249
   13MOL   C436 6940   1.939   4.357   2.105 -0.8600  0.5794 -0.8548
   13MOL   C437 6941   1.847   4.235   2.136  0.1606 -0.0792 -0.1492
   13MOL   C438 6942   1.909   4.118   2.205  0.1370 -0.1322  0.5365
   13MOL   O439 6943   1.825   4.010   2.219  0.4885 -0.0610  0.9529
   13MOL   C440 6944   1.723   4.006   2.310 -0.7434  0.7417  0.0864
   13MOL   O441 6945   1.714   4.094   2.392 -0.0183 -0.3415 -0.3937
   13MOL   C442 6946   1.637   3.879   2.302 -0.1367  0.1134  0.5890
   13MOL   C443 6947   1.583   3.869   2.154  0.5502  0.0270 -0.2984
   13MOL   C444 6948   1.724   3.745   2.321  0.1347 -0.2712 -0.5292
   13MOL   H445 6949   1.937   4.663   1.927 -1.3226 -0.2377  0.3881
   13MOL   H446 6950   2.036   4.628   2.066  0.8266 -0.3087 -0.8846
   13MOL   H447 6951   2.050   4.533   1.914 -1.7717 -0.1226 -0.3691
   13MOL   H448 6952   1.832   4.542   2.127 -1.5064  0.6938 -0.8322
   13MOL   H449 6953   1.805   4.459   1.971  0.4837 -0.6944  0.6888
   13MOL   H450 6954   2.017   4.319   2.038  1.1262  1.1530  1.0625
   13MOL   H451 6955   1.986   4.383   2.200 -1.4330 -0.5277 -0.2557
   13MOL   H452 6956   1.821   4.200   2.036 -0.9167  0.9563 -0.2395
   13MOL   H453 6957   1.761   4.273   2.191  1.3282 -1.2404  2.5488
   13MOL   H454 6958   1.939   4.137   2.308  0.6025  0.0473  0.3655
   13MOL   H455 6959   1.995   4.092   2.144 -0.6065  0.4591 -0.7785
   13MOL   H456 6960   1.539   3.964   2.122  0.5586 -0.6483 -2.3950
   13MOL   H457 6961   1.665   3.847   2.085  0.3784 -1.5390 -0.0122
   13MOL   H458 6962   1.514   3.788   2.133 -0.3386  0.3328  1.3761
   13MOL   H459 6963   1.781   3.733   2.229  1.6117 -0.5722  0.3956
   13MOL   H460 6964   1.654   3.665   2.302 -0.7312  0.0241  1.3135
   13MOL   C461 6965   1.470   3.488   3.171 -0.1505  0.0344  0.4617
   13MOL   C462 6966   1.548   3.488   3.041  0.1187 -0.5486 -0.2150
   13MOL   C463 6967   1.495   3.593   2.945 -1.0193 -0.0761 -0.1841
   13MOL   C464 6968   1.583   3.596   2.818 -0.2630  0.5328 -1.2210
   13MOL   C465 6969   1.539   3.700   2.703  0.1281 -0.3487 -0.0027
   13MOL   O466 6970   1.616   3.680   2.596  0.3200 -0.7879 -0.0312
   13MOL   C467 6971   1.735   3.744   2.577  0.1315 -0.0790 -0.0737
   13MOL   O468 6972   1.781   3.825   2.660  0.1198 -0.2565  0.6664
   13MOL   C469 6973   1.813   3.708   2.449  0.4204 -0.6350  0.1492
   13MOL   C470 6974   1.935   3.799   2.436 -0.2728 -0.0448  0.4182
   13MOL   C471 6975   1.870   3.561   2.452 -0.3705  0.2385  0.4549
   13MOL   H472 6976   1.489   3.586   3.214 -0.2069 -0.7222  2.2657
   13MOL   H473 6977   1.514   3.413   3.237  0.2418 -0.2540 -0.1237
   13MOL   H474 6978   1.363   3.481   3.153 -0.0796 -0.8378  0.3509
   13MOL   H475 6979   1.529   3.390   2.996 -0.1329 -1.3128  1.5038
   13MOL   H476 6980   1.655   3.495   3.056 -0.0861 -1.2762  1.6780
   13MOL   H477 6981   1.502   3.685   3.003 -0.4614 -0.3649  0.2061
   13MOL   H478 6982   1.391   3.571   2.921 -0.3901 -2.2464 -1.0726
   13MOL   H479 6983   1.585   3.497   2.772 -0.6644  0.7490 -1.7086
   13MOL   H480 6984   1.688   3.615   2.839 -0.5964  0.7129  0.3607
   13MOL   H481 6985   1.435   3.695   2.670  0.2328  3.1061 -0.9666
   13MOL   H482 6986   1.558   3.799   2.743  3.3393 -0.6549 -0.6154
   13MOL   H483 6987   1.920   3.901   2.469 -0.6196 -1.0522  3.5214
   13MOL   H484 6988   1.990   3.798   2.342  0.1318 -0.2936  0.6542
   13MOL   H485 6989   2.010   3.764   2.507  0.5411 -0.4759 -0.6492
   13MOL   H486 6990   1.895   3.550   2.557  1.9790  2.1469  0.1384
   13MOL   H487 6991   1.976   3.555   2.426 -0.7100 -1.6285 -0.6452
   13MOL   C488 6992   2.393   3.643   2.086  0.0449 -0.2892  0.0914
   13MOL   C489 6993   2.299   3.557   2.002 -0.4583 -0.7505 -0.3211
   13MOL   C490 6994   2.156   3.562   2.048 -0.2291  0.1275 -0.3546
   13MOL   C491 6995   2.070   3.445   1.992 -0.6950 -0.2522  0.0314
   13MOL   C492 6996   1.926   3.444   2.033  0.0945 -0.0526 -0.4591
   13MOL   O493 6997   1.916   3.444   2.178 -0.3261  0.6399 -0.0196
   13MOL   C494 6998   1.795   3.446   2.237 -0.0929 -0.4170  0.4849
   13MOL   O495 6999   1.694   3.449   2.166 -0.1929 -0.0501  0.2714
   13MOL   C496 7000   1.793   3.439   2.389 -0.2512  0.2724  0.1088
   13MOL   C497 7001   1.647   3.423   2.446 -0.2947  0.1579  0.2542
   13MOL   C498 7002   1.867   3.324   2.439 -0.0230 -0.1684  0.0896
   13MOL   H499 7003   2.497   3.615   2.068  0.7076  2.0416  0.1445
   13MOL   H500 7004   2.383   3.749   2.064 -0.9595 -0.1751  1.0137
   13MOL   H501 7005   2.368   3.623   2.190  0.7687  0.8818  0.4998
   13MOL   H502 7006   2.337   3.456   2.014 -0.3316 -0.4776  1.7373
   13MOL   H503 7007   2.295   3.586   1.896 -1.2700 -0.9652 -0.3550
   13MOL   H504 7008   2.161   3.559   2.157  1.2018 -1.7774 -0.4610
   13MOL   H505 7009   2.109   3.654   2.013  0.2991  0.2472 -0.7562
   13MOL   H506 7010   2.115   3.347   2.011 -1.1843 -0.3346  0.8092
   13MOL   H507 7011   2.079   3.449   1.884  0.9480 -0.3339  0.1532
   13MOL   H508 7012   1.865   3.523   1.989 -1.2012 -2.3535 -2.9499
   13MOL   H509 7013   1.890   3.348   1.997  1.9210 -0.5255 -1.0655
   13MOL   H510 7014   1.636   3.396   2.550 -1.7463 -0.8190 -0.1404
   13MOL   H511 7015   1.608   3.333   2.397  0.7382  1.4770 -3.1921
   13MOL   H512 7016   1.579   3.506   2.426  0.2563  0.2289 -1.4812
   13MOL   H513 7017   1.891   3.338   2.544 -0.2418  1.0047 -0.0156
   13MOL   H514 7018   1.969   3.343   2.406  0.9734 -0.5356  2.8366
   13MOL   C515 7019   1.849   3.180   3.189 -0.4400  0.3493  0.1319
   13MOL   C516 7020   1.890   3.253   3.062 -0.6918  0.3028  0.0167
   13MOL   C517 7021   1.802   3.241   2.938 -0.0658 -1.1048 -0.2591
   13MOL   C518 7022   1.786   3.096   2.887  0.7645 -0.0694  0.5589
   13MOL   C519 7023   1.691   3.082   2.763  0.1534  0.1146 -0.2698
   13MOL   O520 7024   1.759   3.152   2.658 -0.4039  0.2921 -0.2880
   13MOL   C521 7025   1.719   3.124   2.529 -0.2069 -0.3775 -0.5548
   13MOL   O522 7026   1.621   3.054   2.497 -0.0193 -0.6927  0.3174
   13MOL   C523 7027   1.818   3.170   2.418 -0.1871 -0.0460 -0.2653
   13MOL   C524 7028   1.945   3.085   2.445  0.2759  0.1640  0.3100
   13MOL   C525 7029   1.753   3.139   2.282 -0.0892 -0.0504  0.0124
   13MOL   H526 7030   1.883   3.225   3.282 -1.0099  0.3394  0.3476
   13MOL   H527 7031   1.741   3.187   3.203 -0.2436  0.3400  1.7474
   13MOL   H528 7032   1.871   3.074   3.183 -0.5726  0.4360 -2.1214
   13MOL   H529 7033   1.906   3.356   3.094  0.1811  0.1027  0.2549
   13MOL   H530 7034   1.991   3.231   3.027 -0.3209  2.3728 -0.2936
   13MOL   H531 7035   1.713   3.298   2.964  1.1750  0.4426  0.6368
   13MOL   H532 7036   1.840   3.310   2.863  1.2177  0.6437  1.9668
   13MOL   H533 7037   1.746   3.033   2.966 -3.8199  0.6082 -1.0497
   13MOL   H534 7038   1.883   3.056   2.857  1.1564  2.5895 -1.9303
   13MOL   H535 7039   1.678   2.978   2.735  0.2472  0.0569 -0.0984
   13MOL   H536 7040   1.597   3.136   2.768 -0.5884 -1.1275 -0.7786
   13MOL   H537 7041   1.917   2.979   2.439 -0.3587  0.4119 -1.3273
   13MOL   H538 7042   1.975   3.096   2.549 -1.7262 -0.2553  0.9670
   13MOL   H539 7043   2.040   3.099   2.394  0.2255  1.9668  0.6822
   13MOL   H540 7044   1.653   3.178   2.265 -0.0668  0.1502  0.3176
   13MOL   H541 7045   1.742   3.032   2.264  2.1843 -0.2661 -0.1984
   13MOL   H542 7046   1.816   3.173   2.200 -1.3666 -0.5849 -1.1962
   14MOL     C1 7047   5.600   7.462   2.342  0.4466  0.1534 -0.4091
   14MOL     C2 7048   5.669   7.453   2.475  0.1520  0.0834 -0.1538
   14MOL     C3 7049   5.577   7.524   2.583 -0.4713 -0.2801 -0.8090
   14MOL     C4 7050   5.570   7.676   2.572 -0.2404  0.6758  0.4593
   14MOL     C5 7051   5.471   7.743   2.676  0.1052  0.3455 -0.0265
   14MOL     O6 7052   5.337   7.717   2.626 -0.4242 -0.7650 -0.0227
   14MOL     C7 7053   5.265   7.607   2.671  0.0679  0.4961  0.2582
   14MOL     O8 7054   5.289   7.544   2.777 -0.0294  0.2029  0.3382
   14MOL     C9 7055   5.140   7.566   2.579  0.4907 -0.3420 -0.1863
   14MOL    C10 7056   5.065   7.450   2.651  0.5794  0.5529 -0.4411
   14MOL    C11 7057   5.193   7.535   2.434 -0.3189  0.5529 -0.0336
   14MOL    H12 7058   5.566   7.560   2.310  0.4039  0.5183  0.7326
   14MOL    H13 7059   5.520   7.393   2.368  2.5826 -2.5422 -0.7599
   14MOL    H14 7060   5.657   7.413   2.262  0.9295  0.0013  0.0315
   14MOL    H15 7061   5.709   7.352   2.487 -2.0324 -0.7296  0.5566
   14MOL    H16 7062   5.758   7.516   2.482  1.5582 -1.9135  0.7403
   14MOL    H17 7063   5.475   7.484   2.581 -1.0324  1.0423  0.8292
   14MOL    H18 7064   5.613   7.495   2.682 -3.3819 -1.1385  0.0550
   14MOL    H19 7065   5.557   7.711   2.470  0.6037  1.9729  0.7836
   14MOL    H20 7066   5.666   7.721   2.595 -0.3295  1.4644 -0.6481
   14MOL    H21 7067   5.479   7.706   2.778 -0.6041 -0.2367 -0.1770
   14MOL    H22 7068   5.488   0.036   2.680  2.2094  0.0892 -1.5538
   14MOL    H23 7069   5.132   7.366   2.670  0.5600  0.4660 -0.7555
   14MOL    H24 7070   4.973   7.413   2.605 -0.2090  0.6541  1.0202
   14MOL    H25 7071   5.027   7.486   2.747 -2.9613  0.3050 -1.6915
   14MOL    H26 7072   5.151   7.436   2.419 -1.6141  1.0143  0.4582
   14MOL    H27 7073   5.302   7.535   2.435 -0.2655  0.2740 -2.4069
   14MOL    H28 7074   5.059   7.638   2.570 -0.3438 -1.4282 -1.5122
   14MOL    C29 7075   5.190   7.046   1.821  0.0529 -0.2077  0.5724
   14MOL    C30 7076   5.269   7.164   1.765 -1.2905 -0.2165  0.1869
   14MOL    C31 7077   5.357   7.246   1.865  0.1323  0.6760  0.5129
   14MOL    C32 7078   5.286   7.291   1.996 -0.3113  0.4057  0.6596
   14MOL    C33 7079   5.344   7.413   2.071 -0.2973  0.3478  0.2672
   14MOL    O34 7080   5.253   7.467   2.172 -0.4660  0.0710  0.2212
   14MOL    C35 7081   5.252   7.601   2.199  0.0755 -0.7105 -0.7025
   14MOL    O36 7082   5.322   7.683   2.142  0.1073  0.0294  0.3389
   14MOL    C37 7083   5.158   7.634   2.316 -0.4184 -0.6475  0.6647
   14MOL    C38 7084   5.194   7.774   2.361  0.1218  0.1095  0.2315
   14MOL    C39 7085   5.007   7.612   2.274 -0.0615 -0.1591 -0.9072
   14MOL    H40 7086   5.116   7.076   1.894 -0.5878  0.2691 -0.2550
   14MOL    H41 7087   5.158   6.982   1.738  3.9666 -2.5478  0.7170
   14MOL    H42 7088   5.260   6.976   1.866 -0.7789 -0.9033  0.7989
   14MOL    H43 7089   5.190   7.228   1.724 -2.5195 -2.2530 -0.7208
   14MOL    H44 7090   5.338   7.136   1.685  0.5468 -0.2745  1.7646
   14MOL    H45 7091   5.405   7.332   1.817  1.3633 -2.1382 -3.5532
   14MOL    H46 7092   5.439   7.182   1.898 -0.3098  0.7470  1.7859
   14MOL    H47 7093   5.182   7.313   1.974 -0.6850  1.8211  3.5774
   14MOL    H48 7094   5.285   7.207   2.066 -1.8142 -0.0149  0.1498
   14MOL    H49 7095   5.361   7.491   1.998 -0.6478  1.7806  1.6813
   14MOL    H50 7096   5.439   7.382   2.116 -0.9558 -0.1203  1.3657
   14MOL    H51 7097   5.302   7.784   2.374  0.3440 -2.9559  1.1365
   14MOL    H52 7098   5.153   7.799   2.459 -0.5963 -1.2419  0.2857
   14MOL    H53 7099   5.171   0.037   2.287  1.5932  0.5231  0.1982
   14MOL    H54 7100   4.957   7.625   2.371  1.0919 -1.8175 -0.0570
   14MOL    H55 7101   5.003   7.504   2.261  1.2529 -0.3701  0.2482
   14MOL    C56 7102   4.376   0.277   2.385 -0.8655 -0.1730  0.4534
   14MOL    C57 7103   4.521   0.264   2.443 -0.1520 -0.5091  0.1866
   14MOL    C58 7104   4.635   0.238   2.350  0.0829 -0.2910 -0.3296
   14MOL    C59 7105   4.774   0.246   2.401 -0.4672 -0.4101  0.3159
   14MOL    C60 7106   4.880   0.206   2.296 -0.0074 -0.3175 -0.4387
   14MOL    O61 7107   4.871   0.075   2.265  0.4253 -0.2525  0.0696
   14MOL    C62 7108   4.940   0.023   2.169 -0.3136 -0.7717  0.2845
   14MOL    O63 7109   5.011   0.095   2.092  0.7991  0.2250  0.1518
   14MOL    C64 7110   4.922   7.684   2.158 -0.2971  0.0036 -0.4496
   14MOL    C65 7111   4.776   7.646   2.194  0.2313 -0.1633 -0.1263
   14MOL    C66 7112   4.987   7.621   2.023  0.4063  0.1286 -0.9008
   14MOL    H67 7113   4.289   0.268   2.451 -3.4604  2.7862 -2.3747
   14MOL    H68 7114   4.356   0.210   2.302 -0.6857  1.2968 -0.8162
   14MOL    H69 7115   4.360   0.372   2.334 -1.4029 -1.4178 -1.7610
   14MOL    H70 7116   4.536   0.357   2.498  1.9643 -0.6871 -0.0364
   14MOL    H71 7117   4.519   0.177   2.508 -1.6225 -1.1415 -0.6758
   14MOL    H72 7118   4.621   0.140   2.304  1.8695 -0.9178  0.3957
   14MOL    H73 7119   4.624   0.313   2.272  0.3483 -0.2064 -0.2857
   14MOL    H74 7120   4.798   0.181   2.486 -1.2881 -0.8656  0.2057
   14MOL    H75 7121   4.785   0.350   2.430 -1.1544  0.2426 -1.7137
   14MOL    H76 7122   4.875   0.270   2.207  2.9715  0.5689 -0.0252
   14MOL    H77 7123   4.982   0.229   2.328 -0.4558 -0.9588  1.4656
   14MOL    H78 7124   4.753   7.666   2.299 -1.3182  0.0412 -0.4925
   14MOL    H79 7125   4.758   7.540   2.175 -2.1771  0.2395 -0.2480
   14MOL    H80 7126   4.694   7.693   2.140  0.3779 -0.6588 -0.7802
   14MOL    H81 7127   5.002   7.516   2.046 -1.8922  0.1874  1.0134
   14MOL    H82 7128   5.082   7.673   2.010 -0.4383  1.7981 -0.4970
   14MOL    C83 7129   4.937   7.020   2.134 -0.4214  0.3180 -0.0245
   14MOL    C84 7130   4.844   7.113   2.199  0.2159 -0.0501  0.7158
   14MOL    C85 7131   4.821   7.235   2.119 -0.0106  0.8558  0.3232
   14MOL    C86 7132   4.741   7.211   1.992 -0.0000 -0.6132  0.8094
   14MOL    C87 7133   4.691   7.338   1.919  0.8952 -0.4490  0.6965
   14MOL    O88 7134   4.805   7.425   1.896 -0.2044  0.7812 -0.6738
   14MOL    C89 7135   4.786   7.556   1.877  0.2481  0.1284 -0.1578
   14MOL    O90 7136   4.674   7.605   1.855  0.4286  0.0878  0.2832
   14MOL    C91 7137   4.914   7.638   1.883 -0.0036  0.0324  1.4057
   14MOL    C92 7138   4.879   7.784   1.849 -0.2085 -0.0978  0.0880
   14MOL    C93 7139   5.021   7.594   1.775 -0.4880  0.0940 -0.6504
   14MOL    H94 7140   5.036   7.066   2.126 -0.6228  0.6023 -1.0075
   14MOL    H95 7141   4.956   6.929   2.191 -2.0048 -0.2913 -0.4375
   14MOL    H96 7142   4.905   6.992   2.033  0.0628  0.0093 -0.0943
   14MOL    H97 7143   4.877   7.143   2.298 -3.5022 -0.3076  2.1277
   14MOL    H98 7144   4.750   7.064   2.226 -0.6214  0.3504 -1.3742
   14MOL    H99 7145   4.915   7.288   2.107 -0.4497  0.9705 -3.2897
   14MOL   H100 7146   4.760   7.301   2.180 -1.8625 -0.6907  0.2281
   14MOL   H101 7147   4.675   7.130   2.021 -1.5926  0.0107 -0.9361
   14MOL   H102 7148   4.818   7.170   1.927  0.1156  0.2654  0.3727
   14MOL   H103 7149   4.614   7.383   1.982 -0.3461 -1.8033  0.1733
   14MOL   H104 7150   4.650   7.302   1.825  1.1366 -0.9319  0.7733
   14MOL   H105 7151   4.814   7.781   1.762 -1.4451  1.5403  0.9314
   14MOL   H106 7152   4.971   0.027   1.835 -0.2464  0.0737  0.5456
   14MOL   H107 7153   4.825   0.029   1.923  0.0615 -2.9521  2.6344
   14MOL   H108 7154   5.118   7.639   1.798 -0.2770 -1.5194  1.7452
   14MOL   H109 7155   5.044   7.492   1.804  2.4007  0.5901 -0.9719
   14MOL   C110 7156   5.229   0.279   1.958  0.0100  0.5238  0.0808
   14MOL   C111 7157   5.269   0.339   1.824  0.0176 -0.0983  0.0498
   14MOL   C112 7158   5.242   0.241   1.711 -0.7187 -0.1853 -0.4613
   14MOL   C113 7159   5.090   0.238   1.667 -0.0565 -0.6484 -0.3678
   14MOL   C114 7160   5.056   0.146   1.544 -0.0064  0.1006  0.6971
   14MOL   O115 7161   5.069   0.010   1.594 -0.0396 -0.0567 -0.0662
   14MOL   C116 7162   4.980   7.737   1.564  0.4880 -0.2893 -0.2889
   14MOL   O117 7163   4.879   7.766   1.502 -0.5287 -0.1185 -0.4384
   14MOL   C118 7164   5.007   7.591   1.619 -0.3306 -0.5641  0.1770
   14MOL   C119 7165   4.888   7.499   1.587 -0.6303 -0.0815  0.0923
   14MOL   C120 7166   5.149   7.535   1.566  0.2842 -0.5798 -0.5342
   14MOL   H121 7167   5.293   0.196   1.989  0.4765  0.6730 -0.4845
   14MOL   H122 7168   5.248   0.355   2.034 -2.0249  1.0257  0.0998
   14MOL   H123 7169   5.123   0.253   1.955  0.5405 -1.7368  0.0045
   14MOL   H124 7170   5.222   0.434   1.800  0.1426 -0.1737 -0.5055
   14MOL   H125 7171   5.377   0.355   1.826 -0.0735  1.3635 -3.1197
   14MOL   H126 7172   5.309   0.280   1.634 -0.0767  0.9980  0.6883
   14MOL   H127 7173   5.279   0.145   1.747 -0.2008  0.6986  1.4002
   14MOL   H128 7174   5.058   0.339   1.641  1.0777  0.3150  1.8667
   14MOL   H129 7175   5.016   0.218   1.745  0.1513  1.2978  0.3499
   14MOL   H130 7176   4.961   0.177   1.501 -0.4385 -0.5650  1.1561
   14MOL   H131 7177   5.133   0.155   1.468  0.5049  1.7076  1.3779
   14MOL   H132 7178   4.852   7.509   1.485 -0.4692  0.7802  0.1155
   14MOL   H133 7179   4.909   7.394   1.607 -1.1052  0.3514  3.0955
   14MOL   H134 7180   4.795   7.518   1.642 -1.3612  0.3026 -1.2398
   14MOL   H135 7181   5.225   7.583   1.627 -1.5028  0.5044  0.9175
   14MOL   H136 7182   5.160   7.431   1.595 -1.2241 -0.5682  0.1403
   14MOL   C137 7183   5.824   7.774   1.395  0.3863 -0.5676  0.4628
   14MOL   C138 7184   5.746   0.020   1.517 -0.3045  0.5547  0.2262
   14MOL   C139 7185   5.591   0.003   1.518 -0.1197 -0.6996 -0.3846
   14MOL   C140 7186   5.516   0.080   1.403 -0.2833 -0.0383 -0.3487
   14MOL   C141 7187   5.365   0.049   1.415 -0.4164 -0.0430  0.0404
   14MOL   O142 7188   5.333   7.725   1.434 -0.6781  0.5223  0.0631
   14MOL   C143 7189   5.234   7.670   1.362 -0.3823 -0.5311  0.2561
   14MOL   O144 7190   5.170   7.728   1.273 -0.1284  0.6106  0.4325
   14MOL   C145 7191   5.197   7.530   1.414  0.0845 -0.1366 -0.4509
   14MOL   C146 7192   5.325   7.442   1.416  0.3063 -0.0148  0.0657
   14MOL   C147 7193   5.079   7.461   1.336 -0.0221  0.3492  0.2856
   14MOL   H148 7194   5.800   0.014   1.303  0.7142 -0.3970  0.4790
   14MOL   H149 7195   5.793   7.671   1.373  0.0697 -0.8999  2.3546
   14MOL   H150 7196   5.932   7.784   1.401 -0.0285  3.2544  2.8697
   14MOL   H151 7197   5.771   0.126   1.526  0.2602  0.4917 -0.5858
   14MOL   H152 7198   5.781   7.781   1.605 -0.1178 -2.4087 -1.5721
   14MOL   H153 7199   5.570   7.710   1.516  1.2594 -1.0471  1.8855
   14MOL   H154 7200   5.554   0.037   1.615  1.4874 -2.0170  0.7190
   14MOL   H155 7201   5.533   0.187   1.408  1.0940 -0.3785  3.0136
   14MOL   H156 7202   5.553   0.039   1.309  0.1986 -1.1577  0.3236
   14MOL   H157 7203   5.327   0.092   1.322  2.5142  0.4279 -0.9882
   14MOL   H158 7204   5.319   0.096   1.502 -0.0771  0.5736 -0.1166
   14MOL   H159 7205   5.300   7.341   1.448 -0.2136  0.1424  0.1570
   14MOL   H160 7206   5.389   7.493   1.488  0.1834  2.0827 -1.2825
   14MOL   H161 7207   5.381   7.440   1.323  1.9468 -1.6874  1.0322
   14MOL   H162 7208   5.044   7.382   1.402  0.9707 -0.7242 -0.4575
   14MOL   H163 7209   4.999   7.535   1.340  1.1164  1.6646 -0.7134
   14MOL   C164 7210   5.552   6.970   1.317 -0.5988 -0.2368 -0.2808
   14MOL   C165 7211   5.479   6.930   1.445 -0.3435  0.3083 -0.7645
   14MOL   C166 7212   5.324   6.924   1.440  0.5136 -0.4056 -0.0189
   14MOL   C167 7213   5.259   7.060   1.404 -0.4492 -0.5926  0.1022
   14MOL   C168 7214   5.136   7.059   1.308 -0.6159  0.3121 -0.1289
   14MOL   O169 7215   5.095   7.193   1.292 -0.9494  0.5164  0.1425
   14MOL   C170 7216   5.148   7.257   1.202 -0.1098 -0.5024  0.3122
   14MOL   O171 7217   5.237   7.221   1.130 -0.4522  0.1160 -0.2951
   14MOL   C172 7218   5.092   7.404   1.188  0.2298  0.0133 -0.3027
   14MOL   C173 7219   5.186   7.493   1.102 -0.1231  0.4645  0.0438
   14MOL   C174 7220   4.955   7.410   1.117 -0.4352 -0.3840 -1.0184
   14MOL   H175 7221   5.533   7.074   1.288  1.1059 -0.3199 -1.7677
   14MOL   H176 7222   5.528   6.909   1.230 -0.9451  1.3285 -1.2995
   14MOL   H177 7223   5.659   6.967   1.335 -0.9115 -1.2741  1.5602
   14MOL   H178 7224   5.510   7.004   1.519  0.3597  0.4772 -1.2322
   14MOL   H179 7225   5.514   6.834   1.482  1.4163  1.9387  1.9598
   14MOL   H180 7226   5.296   6.861   1.356 -1.4018  0.1597  0.1698
   14MOL   H181 7227   5.281   6.890   1.534  0.7782  1.5979  0.8533
   14MOL   H182 7228   5.331   7.129   1.361 -1.9759 -0.0077 -1.5608
   14MOL   H183 7229   5.228   7.108   1.497 -0.4645 -0.2708 -0.0695
   14MOL   H184 7230   5.060   6.995   1.352  1.3319 -1.3086  0.9845
   14MOL   H185 7231   5.166   7.006   1.217 -0.5803 -1.6126  0.9850
   14MOL   H186 7232   5.143   7.591   1.083 -2.3539  0.2372  3.4397
   14MOL   H187 7233   5.205   7.442   1.008  2.4739  2.0200 -0.3416
   14MOL   H188 7234   5.286   7.501   1.145  0.3430 -0.1444 -0.9171
   14MOL   H189 7235   4.884   7.412   1.200 -0.4999  1.2007 -1.0872
   14MOL   H190 7236   4.943   7.516   1.093 -2.3216  0.0652  1.6592
   14MOL   C191 7237   4.889   7.014   1.585 -0.4074 -0.1126 -0.9577
   14MOL   C192 7238   4.779   7.116   1.599  0.2173 -0.0494  0.2607
   14MOL   C193 7239   4.758   7.181   1.463  1.2191 -0.4957 -0.4248
   14MOL   C194 7240   4.676   7.101   1.364  0.6584 -0.0572  0.2804
   14MOL   C195 7241   4.751   7.070   1.232 -0.1650  0.4875  0.6265
   14MOL   O196 7242   4.785   7.186   1.154 -0.6473  0.0169 -0.7113
   14MOL   C197 7243   4.868   7.179   1.049 -0.1218 -0.3147  0.1676
   14MOL   O198 7244   4.904   7.073   0.997  0.5281  0.0980 -0.4433
   14MOL   C199 7245   4.896   7.325   0.991 -0.5296 -0.5458 -0.0093
   14MOL   C200 7246   5.002   7.323   0.881  0.5766 -0.1462 -0.2827
   14MOL   C201 7247   4.756   7.378   0.947  0.3492  0.2342 -0.1652
   14MOL   H202 7248   4.982   7.056   1.545  0.4705 -0.9407  0.1561
   14MOL   H203 7249   4.917   6.986   1.687 -2.0895 -0.2361 -0.5174
   14MOL   H204 7250   4.865   6.917   1.542 -0.4883 -0.7976  0.5889
   14MOL   H205 7251   4.810   7.195   1.668  1.0941 -0.8917  0.8451
   14MOL   H206 7252   4.683   7.083   1.638  0.7754  0.1154  1.8170
   14MOL   H207 7253   4.848   7.230   1.426  1.2604  1.3603  2.0152
   14MOL   H208 7254   4.688   7.261   1.489 -0.0196 -1.5385 -0.4997
   14MOL   H209 7255   4.655   6.999   1.396  4.2689 -2.6587 -4.8781
   14MOL   H210 7256   4.579   7.144   1.340  0.9911 -0.5282 -1.9730
   14MOL   H211 7257   4.841   7.013   1.256  0.8884  1.5952 -0.5246
   14MOL   H212 7258   4.684   7.012   1.168 -0.1196 -0.2990  1.2887
   14MOL   H213 7259   5.083   7.263   0.921 -0.4399 -1.4966 -0.2450
   14MOL   H214 7260   5.032   7.426   0.859  0.2512 -0.3548 -1.7304
   14MOL   H215 7261   4.967   7.277   0.789 -0.4109 -0.1884  0.1047
   14MOL   H216 7262   4.698   7.402   1.037 -0.7618  0.6511 -0.9740
   14MOL   H217 7263   4.693   7.302   0.901  0.6836  1.0435 -2.0092
   14MOL   C218 7264   4.716   6.894   0.436  0.9730  0.0798  0.2206
   14MOL   C219 7265   4.664   6.940   0.573 -0.7484 -0.1618  0.4018
   14MOL   C220 7266   4.709   7.084   0.601  0.3654 -0.3571 -0.3924
   14MOL   C221 7267   4.680   7.195   0.499  0.4210 -0.6300 -0.0192
   14MOL   C222 7268   4.749   7.329   0.525 -0.3231  0.3367 -0.0243
   14MOL   O223 7269   4.707   7.368   0.656 -0.1840  0.2031  1.0121
   14MOL   C224 7270   4.781   7.462   0.716  0.0130 -0.9578 -0.4139
   14MOL   O225 7271   4.873   7.521   0.668  0.6468 -0.1515  0.1121
   14MOL   C226 7272   4.728   7.501   0.857  0.2801  0.3917 -0.5455
   14MOL   C227 7273   4.806   7.628   0.902  0.1186  0.3186  0.3610
   14MOL   C228 7274   4.571   7.518   0.865 -0.6051  0.3607 -0.0530
   14MOL   H229 7275   4.683   6.792   0.413  1.5238  0.0875 -0.6293
   14MOL   H230 7276   4.687   6.951   0.348  0.9102 -1.1679 -0.5869
   14MOL   H231 7277   4.823   6.895   0.415  0.7483 -1.4074 -1.1150
   14MOL   H232 7278   4.702   6.880   0.656 -0.5202  1.2882  1.3519
   14MOL   H233 7279   4.556   6.941   0.583 -0.6412  0.8017  1.5367
   14MOL   H234 7280   4.817   7.071   0.604  0.2536 -1.2839 -0.0679
   14MOL   H235 7281   4.678   7.111   0.702 -2.2060 -3.5873 -0.2248
   14MOL   H236 7282   4.700   7.176   0.394 -2.0344  0.1637 -0.6772
   14MOL   H237 7283   4.572   7.215   0.495  0.8127  1.2918 -1.5413
   14MOL   H238 7284   4.712   7.408   0.460 -0.2076 -0.3255 -0.9009
   14MOL   H239 7285   4.857   7.317   0.516 -0.2897  1.9359 -2.1552
   14MOL   H240 7286   4.909   7.593   0.910  0.5187  0.6262 -2.7687
   14MOL   H241 7287   4.766   7.661   0.998 -1.8049  1.6971 -0.8750
   14MOL   H242 7288   4.802   7.710   0.831  0.2482 -0.3878 -0.4792
   14MOL   H243 7289   4.538   7.510   0.968  0.0105  1.0829  0.2090
   14MOL   H244 7290   4.531   7.424   0.828  0.9359  0.4247 -1.9697
   14MOL   C245 7291   4.669   0.372   0.651  0.1533 -0.2897 -0.7456
   14MOL   C246 7292   4.704   0.220   0.659 -0.6806 -0.0912 -0.2548
   14MOL   C247 7293   4.765   0.190   0.524  0.3752  0.1490  0.3562
   14MOL   C248 7294   4.807   0.043   0.516  0.6398  0.0161  0.1497
   14MOL   C249 7295   4.684   7.758   0.518 -0.2593 -0.0149  0.0887
   14MOL   O250 7296   4.628   7.749   0.646 -0.0212 -0.3030  0.2075
   14MOL   C251 7297   4.524   7.664   0.664 -0.7089 -0.0013 -0.1731
   14MOL   O252 7298   4.476   7.601   0.571  0.1460  0.2861  0.2244
   14MOL   C253 7299   4.486   7.636   0.811 -0.2551 -0.3329 -0.2338
   14MOL   C254 7300   4.506   7.766   0.899 -0.2071  0.2276  0.0921
   14MOL   C255 7301   4.330   7.577   0.814 -0.4341 -0.1322  0.5265
   14MOL   H256 7302   4.600   0.403   0.729 -0.9017 -0.5606 -1.5502
   14MOL   H257 7303   4.751   0.441   0.667  0.8176 -1.0510 -0.8393
   14MOL   H258 7304   4.617   0.386   0.556 -1.2198 -0.8446 -0.0995
   14MOL   H259 7305   4.777   0.203   0.738  1.4443  0.8438 -1.9593
   14MOL   H260 7306   4.614   0.170   0.694 -0.2500 -0.4046  0.3923
   14MOL   H261 7307   4.840   0.268   0.510 -1.2911  2.2301  2.5331
   14MOL   H262 7308   4.694   0.208   0.444  0.5821  1.2635  0.4144
   14MOL   H263 7309   4.865   0.039   0.424 -2.5590  1.2415 -1.9926
   14MOL   H264 7310   4.881   0.027   0.595  0.0629 -1.0382  0.4811
   14MOL   H265 7311   4.607   7.798   0.452  0.4689  0.1504 -0.6718
   14MOL   H266 7312   4.714   7.655   0.495  2.2905  0.0907  2.6849
   14MOL   H267 7313   4.472   0.036   0.839 -0.3714  1.4702  1.8830
   14MOL   H268 7314   4.448   7.767   0.992  0.5340 -2.1941  0.6303
   14MOL   H269 7315   4.607   7.796   0.927 -0.4807  0.6754  0.5963
   14MOL   H270 7316   4.326   7.507   0.730  0.8202 -0.4474  0.7039
   14MOL   H271 7317   4.328   7.514   0.903 -1.0584  0.4719  0.9358
   14MOL   C272 7318   4.405   0.507   0.255 -0.4239 -0.2364  0.0281
   14MOL   C273 7319   4.328   0.447   0.370 -0.2696 -0.0159  0.4303
   14MOL   C274 7320   4.367   0.297   0.388  0.2753  0.2659  0.0965
   14MOL   C275 7321   4.298   0.241   0.522  0.8345  0.0763 -0.0171
   14MOL   C276 7322   4.332   0.092   0.524 -0.1375 -0.3485 -0.2126
   14MOL   O277 7323   4.285   0.031   0.642 -0.4360  0.3108  0.2913
   14MOL   C278 7324   4.210   7.736   0.644  0.3609 -0.5977  0.7155
   14MOL   O279 7325   4.147   7.697   0.547  0.0489 -0.3432  0.3989
   14MOL   C280 7326   4.201   7.668   0.788 -0.0519 -0.1823  0.4532
   14MOL   C281 7327   4.090   7.557   0.789 -0.1896 -0.3298  0.0058
   14MOL   C282 7328   4.185   7.780   0.899  0.6848 -0.1195 -0.5121
   14MOL   H283 7329   4.395   0.445   0.166  2.4096  1.4225 -1.5247
   14MOL   H284 7330   4.367   0.606   0.230 -1.6354 -0.6283  0.2529
   14MOL   H285 7331   4.510   0.503   0.283 -0.1559  2.8199 -0.3876
   14MOL   H286 7332   4.354   0.503   0.460  2.1229  0.9643 -0.8055
   14MOL   H287 7333   4.220   0.453   0.358 -0.2140  1.8607  0.6490
   14MOL   H288 7334   4.329   0.242   0.301  1.1950 -0.8488  0.4002
   14MOL   H289 7335   4.474   0.280   0.387  0.1961 -0.3916  1.6241
   14MOL   H290 7336   4.326   0.285   0.617  0.1767 -1.1396  0.7514
   14MOL   H291 7337   4.189   0.246   0.514  0.5029 -3.0594  1.6118
   14MOL   H292 7338   4.439   0.099   0.538 -0.2295 -0.4860  0.5327
   14MOL   H293 7339   4.303   0.036   0.434 -1.0548  1.1512 -0.8849
   14MOL   H294 7340   3.987   7.592   0.789  0.0389  0.4067  1.5861
   14MOL   H295 7341   4.099   7.482   0.711  0.2959  0.4442 -0.6983
   14MOL   H296 7342   4.098   7.512   0.888  0.0663 -0.1861  0.0510
   14MOL   H297 7343   4.210   7.741   0.997  0.5768 -1.4899 -1.0164
   14MOL   H298 7344   4.258   0.046   0.886 -2.6651  2.9992 -0.9582
   14MOL   C299 7345   4.575   7.777   1.309  0.6961  0.1782  0.0323
   14MOL   C300 7346   4.535   0.112   1.287 -0.3320  0.4467 -0.0779
   14MOL   C301 7347   4.388   0.126   1.243  0.3905 -0.5534 -0.4095
   14MOL   C302 7348   4.326   0.268   1.234  0.3330 -0.1026  0.2063
   14MOL   C303 7349   4.173   0.260   1.196 -0.6106 -0.4130  0.5303
   14MOL   O304 7350   4.141   0.157   1.103 -0.4617  0.2778  0.2105
   14MOL   C305 7351   4.092   0.175   0.983  0.6109  0.3169  0.4306
   14MOL   O306 7352   4.097   0.283   0.925  0.6525  0.2357 -0.3484
   14MOL   C307 7353   4.047   0.045   0.913  0.1236  0.0896 -0.0841
   14MOL   C308 7354   3.980   0.084   0.782 -0.0315 -0.2603  0.0644
   14MOL   C309 7355   3.949   7.782   1.012 -0.4738 -0.4575 -0.0400
   14MOL   H310 7356   4.681   7.793   1.330  0.7086 -0.3202  0.3659
   14MOL   H311 7357   4.569   7.722   1.215 -0.2664  1.1001 -0.4521
   14MOL   H312 7358   4.533   7.731   1.398  0.8524  0.0690  0.0492
   14MOL   H313 7359   4.582   0.151   1.196  1.2131 -0.0847  0.4883
   14MOL   H314 7360   4.554   0.165   1.380  1.9219 -2.9187  1.4580
   14MOL   H315 7361   4.322   0.051   1.287  1.4995 -1.4367 -0.2262
   14MOL   H316 7362   4.387   0.090   1.141 -0.6932 -0.5831 -0.4005
   14MOL   H317 7363   4.382   0.337   1.172  1.1562 -1.5181 -0.6430
   14MOL   H318 7364   4.333   0.324   1.327  0.2773  1.5261 -0.7629
   14MOL   H319 7365   4.101   0.256   1.278 -0.4001  2.9315  0.9370
   14MOL   H320 7366   4.146   0.357   1.156 -1.6352 -0.7344  0.4240
   14MOL   H321 7367   4.046   0.127   0.706 -0.4745  0.0609 -0.1375
   14MOL   H322 7368   3.942   7.803   0.743  0.0943  0.1996 -1.2061
   14MOL   H323 7369   3.898   0.155   0.780 -0.0603 -0.2939  0.0351
   14MOL   H324 7370   4.006   7.776   1.104  2.2470 -2.0535 -1.7526
   14MOL   H325 7371   3.953   7.677   0.982 -1.3314 -0.9864  1.6283
   14MOL   C326 7372   3.669   0.827   0.903 -0.4137  0.0317 -0.4149
   14MOL   C327 7373   3.759   0.709   0.932  0.7716  0.8554 -0.4145
   14MOL   C328 7374   3.688   0.597   1.009 -0.3023 -0.1919  0.0255
   14MOL   C329 7375   3.744   0.461   1.001 -0.1335 -0.2693  0.8702
   14MOL   C330 7376   3.652   0.352   1.060  0.6813 -0.1592 -0.1903
   14MOL   O331 7377   3.699   0.226   1.023 -0.0558  0.0005 -0.0147
   14MOL   C332 7378   3.794   0.164   1.086  0.1167  0.5754  0.4008
   14MOL   O333 7379   3.865   0.211   1.175 -0.3795  0.3625 -0.5043
   14MOL   C334 7380   3.801   0.015   1.046  0.5119  0.4849 -1.0335
   14MOL   C335 7381   3.701   7.796   0.924  0.5117  0.0298 -0.1011
   14MOL   C336 7382   3.751   7.760   1.186  0.1619 -0.1099 -0.3553
   14MOL   H337 7383   3.706   0.918   0.857 -1.9185  0.6898 -0.3518
   14MOL   H338 7384   3.625   0.854   0.999  1.5033 -2.1963  1.1551
   14MOL   H339 7385   3.580   0.798   0.847 -1.0349  0.5105  0.3052
   14MOL   H340 7386   3.838   0.738   1.002 -0.2189 -1.6735  1.8927
   14MOL   H341 7387   3.801   0.668   0.840  0.4088  0.4297 -0.3958
   14MOL   H342 7388   3.589   0.593   0.963 -0.8817  1.1028  1.1489
   14MOL   H343 7389   3.695   0.630   1.113  0.3119  1.8979 -0.6474
   14MOL   H344 7390   3.842   0.472   1.048 -0.3126  0.0767  1.1619
   14MOL   H345 7391   3.765   0.432   0.898 -1.6929  1.0441  0.1718
   14MOL   H346 7392   3.547   0.361   1.033  0.5523 -1.4562 -0.1758
   14MOL   H347 7393   3.668   0.357   1.168  0.0522  1.9145 -0.1800
   14MOL   H348 7394   3.708   0.047   0.837  1.4781 -0.1730 -0.1730
   14MOL   H349 7395   3.596   7.794   0.955  1.6034  2.9032  4.2925
   14MOL   H350 7396   3.720   7.699   0.878  1.5463  0.7083 -1.1287
   14MOL   H351 7397   3.660   7.809   1.220 -0.0295 -0.5437 -0.2487
   14MOL   H352 7398   3.824   7.791   1.261 -1.7956  0.2665  1.4447
   14MOL   C353 7399   4.426   7.438   1.435 -0.3363  0.0887 -0.0684
   14MOL   C354 7400   4.295   7.521   1.467  0.3966  0.1146  0.2595
   14MOL   C355 7401   4.213   7.541   1.339  0.5439 -0.3329  0.5927
   14MOL   C356 7402   4.136   7.414   1.304 -0.4048  0.3894 -0.8538
   14MOL   C357 7403   4.045   7.423   1.184  0.4408 -0.6423  0.0325
   14MOL   O358 7404   3.942   7.520   1.214 -0.6595 -0.0691 -0.1620
   14MOL   C359 7405   3.830   7.522   1.142 -0.5958  0.8725  0.4417
   14MOL   O360 7406   3.815   7.454   1.041 -0.5499  0.0825 -0.5861
   14MOL   C361 7407   3.716   7.608   1.206  0.3248  0.0144 -0.5700
   14MOL   C362 7408   3.579   7.577   1.145 -0.3475  0.1998 -0.6817
   14MOL   C363 7409   3.716   7.601   1.368  0.3747 -0.1118 -0.4135
   14MOL   H364 7410   4.457   7.446   1.331 -2.8271 -0.8339 -0.9299
   14MOL   H365 7411   4.405   7.333   1.456 -0.8347 -0.6144 -3.7297
   14MOL   H366 7412   4.509   7.471   1.497  0.0866  0.0462 -0.6103
   14MOL   H367 7413   4.237   7.471   1.545 -0.5718  3.5819  1.8555
   14MOL   H368 7414   4.326   7.616   1.510  1.1089  0.4851 -1.0502
   14MOL   H369 7415   4.279   7.576   1.260  1.2394 -0.0858  1.2732
   14MOL   H370 7416   4.146   7.627   1.349  2.0688  1.0943 -1.1859
   14MOL   H371 7417   4.077   7.388   1.392 -0.2187  0.1648 -0.7934
   14MOL   H372 7418   4.203   7.331   1.282 -1.2253 -0.2652 -0.8776
   14MOL   H373 7419   4.111   7.458   1.104  0.4330  1.2360  0.8259
   14MOL   H374 7420   4.000   7.327   1.159 -0.3905 -0.6538  1.4870
   14MOL   H375 7421   3.490   7.616   1.193 -1.2548  1.4699 -3.2786
   14MOL   H376 7422   3.576   7.602   1.038 -0.7841  0.3612 -0.6315
   14MOL   H377 7423   3.573   7.468   1.141  0.8481  0.1103 -0.2693
   14MOL   H378 7424   3.822   7.607   1.392  0.4571  0.6424 -0.9519
   14MOL   H379 7425   3.669   7.690   1.410  1.6748  0.3632  0.0445
   14MOL   C380 7426   3.472   7.113   0.928  0.3413  0.0551  0.3466
   14MOL   C381 7427   3.376   7.202   1.012  0.4668 -0.2507  0.4348
   14MOL   C382 7428   3.407   7.193   1.157  0.5002  1.4612  0.0724
   14MOL   C383 7429   3.321   7.294   1.240  0.8012  1.2266 -0.1735
   14MOL   C384 7430   3.351   7.283   1.389  0.0981 -0.1797  0.0964
   14MOL   O385 7431   3.485   7.316   1.414  0.0826 -0.5558 -0.3149
   14MOL   C386 7432   3.518   7.445   1.433  0.1260  0.0789  0.6545
   14MOL   O387 7433   3.440   7.535   1.422 -0.7274  0.6673  1.2267
   14MOL   C388 7434   3.672   7.470   1.451  0.6788 -0.2564 -0.7404
   14MOL   C389 7435   3.746   7.343   1.400  0.1453 -1.3221 -0.3720
   14MOL   C390 7436   3.698   7.488   1.606  0.4787 -0.5102 -0.1875
   14MOL   H391 7437   3.568   7.164   0.922  0.8406 -1.0687 -1.9350
   14MOL   H392 7438   3.467   7.015   0.974  1.3954  1.0430  2.6386
   14MOL   H393 7439   3.449   7.101   0.822 -1.2421  1.3129  0.5363
   14MOL   H394 7440   3.269   7.183   0.999 -0.0935  3.0614 -0.3031
   14MOL   H395 7441   3.368   7.304   0.975  0.5589 -0.1891  0.5850
   14MOL   H396 7442   3.394   7.091   1.195  1.8885  1.2993  0.1372
   14MOL   H397 7443   3.511   7.217   1.179  1.2929 -1.1694 -0.5531
   14MOL   H398 7444   3.339   7.396   1.207  3.3611  1.6143  2.2779
   14MOL   H399 7445   3.214   7.273   1.236  1.1131 -0.4440 -0.2981
   14MOL   H400 7446   3.354   7.179   1.420 -0.4049 -0.0975  0.4314
   14MOL   H401 7447   3.282   7.343   1.449 -2.1540 -2.7142  0.1194
   14MOL   H402 7448   3.851   7.368   1.409 -0.2991  0.2069  0.8220
   14MOL   H403 7449   3.710   7.326   1.299  1.4697  2.6612 -1.5884
   14MOL   H404 7450   3.720   7.250   1.451  1.0212 -1.7334 -0.6780
   14MOL   H405 7451   3.696   7.384   1.639 -0.8838 -0.9709 -1.6680
   14MOL   H406 7452   3.604   7.527   1.647  1.2468  1.2490 -0.0417
   14MOL   C407 7453   3.484   7.097   1.910 -0.0423 -0.4469  0.4188
   14MOL   C408 7454   3.524   7.237   1.979 -0.1229 -0.0047 -0.4725
   14MOL   C409 7455   3.494   7.369   1.908  0.1909 -0.3010 -0.4683
   14MOL   C410 7456   3.515   7.490   2.006  0.2050 -0.2378  0.2569
   14MOL   C411 7457   3.655   7.541   2.007  0.4141  0.8086  0.8427
   14MOL   O412 7458   3.707   7.586   1.883  0.1920 -0.1846  0.0838
   14MOL   C413 7459   3.809   7.521   1.818 -0.4204 -0.2365 -0.2149
   14MOL   O414 7460   3.887   7.440   1.874  0.9581 -0.1835 -0.3465
   14MOL   C415 7461   3.813   7.571   1.667 -0.0303 -0.1162  0.3034
   14MOL   C416 7462   3.954   7.534   1.603  0.4810 -1.1045 -0.4344
   14MOL   C417 7463   3.781   7.725   1.660  0.1469 -0.0307 -0.7815
   14MOL   H418 7464   3.474   7.018   1.984  0.1427 -2.6670 -1.8897
   14MOL   H419 7465   3.382   7.103   1.873  0.0166  0.0011  0.3211
   14MOL   H420 7466   3.552   7.063   1.832 -2.3872 -2.6175 -0.7732
   14MOL   H421 7467   3.632   7.231   1.989  0.1152  2.9177 -0.6801
   14MOL   H422 7468   3.478   7.222   2.077  2.5126 -0.8705  0.6717
   14MOL   H423 7469   3.559   7.377   1.821 -1.4585  0.7613 -1.6422
   14MOL   H424 7470   3.392   7.364   1.869  0.1705 -1.2885 -0.3221
   14MOL   H425 7471   3.495   7.467   2.110  2.1346  0.3833  0.7932
   14MOL   H426 7472   3.443   7.568   1.981 -0.0104 -0.5814 -0.2194
   14MOL   H427 7473   3.643   7.631   2.066 -0.6087  1.0821  0.2113
   14MOL   H428 7474   3.719   7.466   2.054  0.7994 -1.0170 -2.4393
   14MOL   H429 7475   3.963   7.426   1.589  2.1348 -0.8193 -1.6722
   14MOL   H430 7476   4.032   7.557   1.675  0.1443  0.9597 -0.7136
   14MOL   H431 7477   3.975   7.584   1.509 -0.6683 -0.5889 -0.4273
   14MOL   H432 7478   3.682   7.746   1.701  0.9660 -0.1497  1.3616
   14MOL   H433 7479   3.777   7.759   1.557  1.1420 -0.2611 -0.8951
   14MOL   C434 7480   4.456   0.160   2.014  0.4684  0.3910  0.9217
   14MOL   C435 7481   4.456   0.138   1.862  0.1848 -1.0632  0.0479
   14MOL   C436 7482   4.340   0.203   1.782 -0.4341 -0.2878  0.1111
   14MOL   C437 7483   4.344   0.142   1.635 -0.1252 -0.1210  0.8534
   14MOL   C438 7484   4.210   0.163   1.565  0.5502  0.6723  0.1322
   14MOL   O439 7485   4.105   0.123   1.654  0.3916 -0.5282  0.8350
   14MOL   C440 7486   4.001   0.040   1.616 -0.3066 -0.6629 -0.8793
   14MOL   O441 7487   4.001   7.811   1.497  0.3133 -0.0126 -0.2192
   14MOL   C442 7488   3.885   0.019   1.716  0.0137 -0.3722  0.3433
   14MOL   C443 7489   3.941   7.798   1.857 -0.3141  0.3046  0.4280
   14MOL   C444 7490   3.823   0.168   1.726 -1.1722  0.2636  0.3603
   14MOL   H445 7491   4.548   0.132   2.066  0.2118 -2.9415 -0.3188
   14MOL   H446 7492   4.427   0.264   2.026 -1.7684  0.0008 -0.8634
   14MOL   H447 7493   4.380   0.102   2.067 -0.3710  0.6777  0.0384
   14MOL   H448 7494   4.548   0.170   1.814  0.5573 -1.9183  0.1795
   14MOL   H449 7495   4.450   0.029   1.852 -1.9684 -1.1030  1.2975
   14MOL   H450 7496   4.249   0.180   1.837 -1.1605 -0.1139 -1.0186
   14MOL   H451 7497   4.340   0.312   1.784 -0.5575 -0.2513 -1.5835
   14MOL   H452 7498   4.362   0.034   1.636 -1.7077 -0.4295 -0.5889
   14MOL   H453 7499   4.421   0.187   1.573 -1.3409  0.3437 -0.3746
   14MOL   H454 7500   4.207   0.105   1.473 -2.3212 -0.2168  0.7278
   14MOL   H455 7501   4.205   0.270   1.545  1.1546  0.8472  0.8731
   14MOL   H456 7502   3.853   7.764   1.913 -0.2662 -0.0512  0.2901
   14MOL   H457 7503   4.006   7.710   1.860  1.8554  1.9217  2.0101
   14MOL   H458 7504   3.992   0.070   1.899  1.3324 -0.2926 -0.3053
   14MOL   H459 7505   3.904   0.241   1.731  1.4295 -2.3153 -2.1761
   14MOL   H460 7506   3.780   0.170   1.826  0.7990  2.7837  1.2259
   14MOL   C461 7507   3.595   0.143   2.253 -0.6844  0.0364 -0.0682
   14MOL   C462 7508   3.448   0.176   2.211  1.0238  0.3812  0.2754
   14MOL   C463 7509   3.425   0.204   2.063  0.6286 -0.0469 -0.0643
   14MOL   C464 7510   3.441   0.072   1.977  0.6919  0.1023 -0.1034
   14MOL   C465 7511   3.431   0.089   1.827 -0.1981  0.0006  0.3659
   14MOL   O466 7512   3.530   0.181   1.773  0.3502  0.4975 -0.6808
   14MOL   C467 7513   3.575   0.166   1.646  0.2215  0.5483  0.0201
   14MOL   O468 7514   3.514   0.101   1.558 -0.1314 -0.6083 -0.5910
   14MOL   C469 7515   3.711   0.233   1.631  0.4072 -0.1437 -0.4545
   14MOL   C470 7516   3.753   0.229   1.480 -0.8818 -0.1207  0.3009
   14MOL   C471 7517   3.700   0.385   1.671  0.9261 -0.6274 -0.2658
   14MOL   H472 7518   3.667   0.215   2.214  0.9409 -1.7747 -0.4842
   14MOL   H473 7519   3.624   0.041   2.228 -0.9112 -0.0872  0.1676
   14MOL   H474 7520   3.602   0.134   2.362 -2.9499 -1.2490  0.0098
   14MOL   H475 7521   3.407   0.260   2.267  1.1001  0.1362  0.6990
   14MOL   H476 7522   3.380   0.097   2.243  0.2179  0.2456 -1.6683
   14MOL   H477 7523   3.491   0.288   2.041  0.1114  0.6180  0.8899
   14MOL   H478 7524   3.325   0.247   2.052  0.1609 -0.8159  1.1376
   14MOL   H479 7525   3.371   0.000   2.020  0.4104  1.0142  0.9847
   14MOL   H480 7526   3.537   0.021   1.984  0.7238  0.0158 -1.0671
   14MOL   H481 7527   3.434   7.802   1.784  1.2084 -0.2274  0.9526
   14MOL   H482 7528   3.335   0.127   1.793  0.2944  1.0144  0.0949
   14MOL   H483 7529   3.768   0.125   1.450  0.0174  0.6230 -1.9077
   14MOL   H484 7530   3.836   0.295   1.454  1.1455 -2.8473 -0.3130
   14MOL   H485 7531   3.672   0.262   1.414 -0.8555 -0.2281  0.2164
   14MOL   H486 7532   3.802   0.424   1.672  1.0673 -1.0201  0.1784
   14MOL   H487 7533   3.691   0.398   1.779 -0.0783  1.0420 -0.5254
   14MOL   C488 7534   4.284   0.630   1.576 -0.2169 -0.3724 -0.4532
   14MOL   C489 7535   4.191   0.636   1.448  0.1912  0.3638 -0.1025
   14MOL   C490 7536   4.083   0.529   1.454  0.8323  0.3773  0.4367
   14MOL   C491 7537   3.977   0.549   1.350  0.3007 -0.2258  0.0370
   14MOL   C492 7538   3.868   0.651   1.389 -0.0088  0.3599  0.5966
   14MOL   O493 7539   3.786   0.609   1.498  0.4531  0.1154 -0.2688
   14MOL   C494 7540   3.673   0.546   1.472 -0.4215  0.1075 -0.1947
   14MOL   O495 7541   3.630   0.520   1.364 -0.7729 -0.5356 -0.3125
   14MOL   C496 7542   3.613   0.501   1.607 -0.1660 -0.2008  0.0676
   14MOL   C497 7543   3.604   0.624   1.698  0.5214 -0.0020 -0.2152
   14MOL   C498 7544   3.467   0.444   1.575 -0.5771 -0.1780  0.7029
   14MOL   H499 7545   4.358   0.709   1.566 -0.2281 -0.2374  0.5160
   14MOL   H500 7546   4.231   0.635   1.671  1.3093  0.3741  0.3623
   14MOL   H501 7547   4.333   0.533   1.565  0.8230  0.3179 -2.1088
   14MOL   H502 7548   4.258   0.607   1.367 -1.0220  0.8222 -1.2922
   14MOL   H503 7549   4.145   0.734   1.436 -0.2746  0.1451 -0.1524
   14MOL   H504 7550   4.117   0.427   1.438 -2.3093 -0.9150  1.5657
   14MOL   H505 7551   4.027   0.523   1.548  1.4041 -0.9077  0.7056
   14MOL   H506 7552   3.924   0.455   1.339 -1.2200  0.6146  0.0104
   14MOL   H507 7553   4.015   0.578   1.252  1.3222  1.5416  0.9313
   14MOL   H508 7554   3.908   0.750   1.410 -1.0101  0.2948  2.9739
   14MOL   H509 7555   3.799   0.670   1.307  1.8809  0.1301 -1.0786
   14MOL   H510 7556   3.698   0.674   1.721  1.5726 -1.2703 -1.6515
   14MOL   H511 7557   3.562   0.591   1.794  0.5149  0.2724 -0.1233
   14MOL   H512 7558   3.546   0.711   1.668  0.5526  0.0259 -0.1960
   14MOL   H513 7559   3.443   0.412   1.676  0.9356 -0.4101  0.9973
   14MOL   H514 7560   3.477   0.361   1.505  0.3601  1.9829 -1.8169
   14MOL   C515 7561   2.878   0.369   1.039 -0.0292 -0.5709 -0.8803
   14MOL   C516 7562   2.987   0.484   1.021 -0.2600  0.6336 -0.3988
   14MOL   C517 7563   3.108   0.473   1.110  0.0701  0.3017  0.3915
   14MOL   C518 7564   3.200   0.592   1.109  0.6455 -0.6397 -0.5492
   14MOL   C519 7565   3.344   0.563   1.168  0.5256  1.0679  1.1388
   14MOL   O520 7566   3.348   0.500   1.294  0.1716  0.5844 -0.0818
   14MOL   C521 7567   3.338   0.590   1.406 -0.2681  0.8743 -0.8384
   14MOL   O522 7568   3.329   0.714   1.393  0.7639 -0.1328  0.2947
   14MOL   C523 7569   3.334   0.515   1.543  0.2760 -0.0013  0.1865
   14MOL   C524 7570   3.297   0.619   1.657  0.4090  0.4440  0.0984
   14MOL   C525 7571   3.231   0.404   1.530 -0.6004 -0.2889  0.0772
   14MOL   H526 7572   2.916   0.267   1.047 -0.1119 -0.6253 -1.1547
   14MOL   H527 7573   2.815   0.398   1.123  0.3957  0.2783 -0.8481
   14MOL   H528 7574   2.808   0.373   0.955  0.2789 -1.3472 -1.1785
   14MOL   H529 7575   3.028   0.485   0.921 -0.0079  1.3236 -0.2905
   14MOL   H530 7576   2.939   0.582   1.032  0.0821  0.6490  1.0652
   14MOL   H531 7577   3.076   0.461   1.214  0.3139 -2.0772  0.2108
   14MOL   H532 7578   3.164   0.387   1.073 -0.3982  0.3261 -0.3673
   14MOL   H533 7579   3.165   0.670   1.176  1.3590  2.0724 -3.2213
   14MOL   H534 7580   3.197   0.643   1.013 -3.1450 -0.5985 -0.4932
   14MOL   H535 7581   3.394   0.500   1.093 -2.0835  0.8665 -0.4870
   14MOL   H536 7582   3.414   0.646   1.175  1.4226  0.3573  0.8548
   14MOL   H537 7583   3.332   0.580   1.753 -2.5567 -0.5303  0.8381
   14MOL   H538 7584   3.193   0.651   1.664 -0.6895 -3.0639  1.0054
   14MOL   H539 7585   3.343   0.716   1.640  2.3205 -0.6552 -1.3257
   14MOL   H540 7586   3.265   0.323   1.466  0.1285 -1.1420  1.5177
   14MOL   H541 7587   3.132   0.441   1.504 -0.7085  0.3605  1.3655
   14MOL   H542 7588   3.208   0.349   1.622 -2.7567 -2.3769 -1.6519
   15MOL     C1 7589   4.400   1.234   7.217  0.2158 -0.0740  0.1591
   15MOL     C2 7590   4.385   1.388   7.206  0.3923  0.6486 -0.2453
   15MOL     C3 7591   4.258   1.445   7.273 -0.2443  0.6716  0.6285
   15MOL     C4 7592   4.131   1.385   7.207  0.1062  0.4523 -0.1304
   15MOL     C5 7593   3.998   1.442   7.269 -0.6512 -0.1465  0.1460
   15MOL     O6 7594   3.955   1.391   7.393  0.1711 -0.3708  0.4907
   15MOL     C7 7595   3.882   1.282   7.384 -0.6344 -0.1853  0.2900
   15MOL     O8 7596   3.846   1.231   7.281 -0.0123  0.3523 -0.1038
   15MOL     C9 7597   3.845   1.233   7.523  0.0496 -1.0403 -0.7165
   15MOL    C10 7598   3.936   1.118   7.563  0.1966  0.2505  0.0797
   15MOL    C11 7599   3.693   1.206   7.556  0.3774 -0.4488  0.1638
   15MOL    H12 7600   4.399   1.207   7.322 -3.2425 -0.3578  0.0918
   15MOL    H13 7601   4.487   1.209   7.155  0.5042 -2.4089  1.4502
   15MOL    H14 7602   4.328   1.172   7.164 -0.3301 -0.4290  1.3060
   15MOL    H15 7603   4.472   1.434   7.253  0.5007 -0.6678  0.8670
   15MOL    H16 7604   4.400   1.430   7.107  0.8625 -0.8237 -0.8157
   15MOL    H17 7605   4.248   1.431   7.380  0.5552  0.2424  0.6571
   15MOL    H18 7606   4.252   1.552   7.252 -2.5072  0.0845 -2.1066
   15MOL    H19 7607   4.130   1.277   7.188  0.6821  0.7472 -1.9074
   15MOL    H20 7608   4.122   1.435   7.111 -1.5411  0.9120  0.2427
   15MOL    H21 7609   3.997   1.551   7.273  2.2470 -0.0230 -1.2467
   15MOL    H22 7610   3.914   1.437   7.200 -0.1452 -1.4439 -0.3871
   15MOL    H23 7611   3.919   1.095   7.668 -1.4824 -2.6056 -0.7734
   15MOL    H24 7612   4.037   1.160   7.562  0.0741  0.5665  0.5526
   15MOL    H25 7613   3.912   1.036   7.496  0.3922  0.1279  0.1600
   15MOL    H26 7614   3.696   1.106   7.599 -0.8975 -0.0088  1.3198
   15MOL    H27 7615   3.633   1.190   7.467  1.9914 -0.2380 -0.9898
   15MOL    H28 7616   3.881   1.314   7.587 -0.1710 -1.1680 -0.4284
   15MOL    C29 7617   3.780   1.786   7.009 -0.1801 -0.1072  0.0243
   15MOL    C30 7618   3.646   1.727   7.036 -0.2106  0.4365 -0.2603
   15MOL    C31 7619   3.595   1.702   7.176 -0.4134 -0.3090  0.2553
   15MOL    C32 7620   3.659   1.583   7.252  0.1016 -0.2591  0.6968
   15MOL    C33 7621   3.620   1.582   7.399 -0.9124 -0.7611  0.2579
   15MOL    O34 7622   3.650   1.459   7.459 -0.1061  0.0934  0.3494
   15MOL    C35 7623   3.644   1.456   7.590 -0.0126 -0.0048 -0.3427
   15MOL    O36 7624   3.634   1.556   7.655 -0.2538 -0.5090 -0.0575
   15MOL    C37 7625   3.628   1.311   7.652 -0.0011  0.3638  0.4215
   15MOL    C38 7626   3.718   1.326   7.782 -0.3478  0.1212  0.1124
   15MOL    C39 7627   3.477   1.286   7.684  0.9349 -0.1670 -0.0139
   15MOL    H40 7628   3.786   1.814   6.904 -0.0394  2.9675  0.7956
   15MOL    H41 7629   3.790   1.880   7.063  0.3273  0.9653 -1.8859
   15MOL    H42 7630   3.862   1.720   7.037 -2.0141 -1.8970  1.3319
   15MOL    H43 7631   3.646   1.629   6.988  1.5203  0.2311  0.1398
   15MOL    H44 7632   3.571   1.795   6.995  0.4069  1.4700  0.2994
   15MOL    H45 7633   3.490   1.677   7.160 -0.0783 -0.9925 -0.9622
   15MOL    H46 7634   3.621   1.788   7.238 -0.4795 -0.1360  0.0403
   15MOL    H47 7635   3.626   1.489   7.207  1.7435 -0.3117 -0.4477
   15MOL    H48 7636   3.768   1.590   7.253  0.2846 -2.9137  3.2324
   15MOL    H49 7637   3.513   1.597   7.395 -0.8911 -0.8568 -1.2810
   15MOL    H50 7638   3.671   1.664   7.449 -2.1857 -0.2697  0.7474
   15MOL    H51 7639   3.794   1.404   7.772 -1.4822  1.0511 -1.6672
   15MOL    H52 7640   3.763   1.230   7.804 -1.5326 -0.0471  1.8782
   15MOL    H53 7641   3.650   1.361   0.045 -0.6426  2.4973 -1.1686
   15MOL    H54 7642   3.422   1.291   7.590  0.2458 -2.2530  0.2292
   15MOL    H55 7643   3.452   1.370   7.749 -0.5119 -0.6908  0.1238
   15MOL    C56 7644   4.007   0.722   7.694  0.6742 -0.4954 -0.1079
   15MOL    C57 7645   3.981   0.825   7.802  0.0912  0.1923 -0.7914
   15MOL    C58 7646   3.827   0.834   0.015  0.6489 -0.1709  0.0317
   15MOL    C59 7647   3.788   0.924   0.142  0.1985  0.0153  0.2362
   15MOL    C60 7648   3.636   0.950   0.169 -0.7092  0.5671  0.3644
   15MOL    O61 7649   3.586   1.016   0.050  0.1821  0.4471 -0.0650
   15MOL    C62 7650   3.496   1.118   0.068 -0.4751  1.0417 -0.0732
   15MOL    O63 7651   3.472   1.166   0.177  1.0999 -0.1019  0.5226
   15MOL    C64 7652   3.418   1.156   7.750  0.9428  0.4268 -1.0578
   15MOL    C65 7653   3.421   1.035   7.652 -0.0735  0.2055 -0.3998
   15MOL    C66 7654   3.271   1.194   7.783  0.5427  0.1720 -0.4239
   15MOL    H67 7655   4.114   0.724   7.672  1.0729 -0.4808  1.7376
   15MOL    H68 7656   3.965   0.755   7.599  0.5860 -1.4500 -0.4009
   15MOL    H69 7657   3.987   0.616   7.710  1.9899 -1.2047 -2.9304
   15MOL    H70 7658   4.034   0.772   0.067 -1.9562 -1.4584 -0.4767
   15MOL    H71 7659   4.026   0.924   7.791  0.2088  0.3156  0.6605
   15MOL    H72 7660   3.779   0.880   7.743  0.8211 -0.1460 -0.0501
   15MOL    H73 7661   3.783   0.735   0.028 -0.0790 -0.0001 -1.0778
   15MOL    H74 7662   3.845   1.016   0.147  0.5843 -0.2096  0.0108
   15MOL    H75 7663   3.829   0.870   0.228 -0.1883 -2.2048 -0.9255
   15MOL    H76 7664   3.583   0.859   0.195 -0.7481  0.0075 -1.6077
   15MOL    H77 7665   3.634   1.024   0.249  1.1717  0.0222  0.9345
   15MOL    H78 7666   3.363   1.059   7.562 -1.2551  0.7160  0.4879
   15MOL    H79 7667   3.383   0.938   7.685 -0.5139  0.4098 -0.3010
   15MOL    H80 7668   3.518   1.009   7.611  1.1690  3.0269  0.6467
   15MOL    H81 7669   3.231   1.259   7.706  1.1281 -1.0337 -1.7600
   15MOL    H82 7670   3.279   1.262   0.054 -2.4408  2.4672 -1.8892
   15MOL    C83 7671   3.169   0.286   7.491  0.4753 -0.5782  0.0997
   15MOL    C84 7672   3.223   0.423   7.544  0.3367  0.2918  0.5818
   15MOL    C85 7673   3.119   0.525   7.572 -0.0044 -0.7433 -0.2783
   15MOL    C86 7674   3.175   0.663   7.630 -0.1158  0.5665 -0.5632
   15MOL    C87 7675   3.073   0.776   7.636 -0.0420 -0.5026  0.3660
   15MOL    O88 7676   3.099   0.874   7.732  0.2766 -0.3289 -0.1457
   15MOL    C89 7677   3.116   1.006   7.699 -0.7917 -0.2616  0.0517
   15MOL    O90 7678   3.113   1.053   7.585 -0.3487  0.1656 -0.4466
   15MOL    C91 7679   3.154   1.092   0.005  0.1965 -0.2576 -0.4213
   15MOL    C92 7680   3.202   0.997   0.120  0.3830  0.1407 -0.0484
   15MOL    C93 7681   3.028   1.185   0.048  0.5282 -0.0143  0.4566
   15MOL    H94 7682   3.244   0.208   7.507 -1.3981 -1.9044  2.8300
   15MOL    H95 7683   3.078   0.249   7.539  0.1997 -2.4870 -1.8041
   15MOL    H96 7684   3.153   0.287   7.383 -2.4595 -2.0673  0.4606
   15MOL    H97 7685   3.294   0.469   7.476 -0.0879  0.8216  0.4937
   15MOL    H98 7686   3.285   0.404   7.632  0.5063  1.0088  0.6187
   15MOL    H99 7687   3.056   0.468   7.641 -2.2930 -1.5011 -2.8788
   15MOL   H100 7688   3.057   0.538   7.483 -0.5725 -0.4468  0.1568
   15MOL   H101 7689   3.250   0.703   7.562  0.1498  1.5298  0.2850
   15MOL   H102 7690   3.234   0.661   7.721  1.6617 -0.4839 -1.7045
   15MOL   H103 7691   2.988   0.724   7.682  0.2061 -0.8605  0.4217
   15MOL   H104 7692   3.033   0.807   7.540 -0.8798 -2.1261  0.1748
   15MOL   H105 7693   3.124   0.928   0.151  0.2036  0.6992  0.7430
   15MOL   H106 7694   3.242   1.056   0.203 -1.3250 -0.5632  1.3032
   15MOL   H107 7695   3.288   0.936   0.091  0.6864  0.3578  0.3964
   15MOL   H108 7696   3.069   1.266   0.108  1.2492  1.1123 -1.4866
   15MOL   H109 7697   2.988   1.230   7.771  0.8175  1.4752  1.0478
   15MOL   C110 7698   3.261   1.618   0.576  0.3089  0.4199 -0.1856
   15MOL   C111 7699   3.347   1.496   0.516  0.2687 -0.4592  0.3046
   15MOL   C112 7700   3.274   1.389   0.438  0.1297 -0.5994  0.4626
   15MOL   C113 7701   3.170   1.303   0.520 -0.4814 -0.4031  0.8990
   15MOL   C114 7702   3.113   1.173   0.452  0.7469 -0.7247  0.5664
   15MOL   O115 7703   3.043   1.194   0.326  0.1832  0.8307  0.2698
   15MOL   C116 7704   2.968   1.098   0.281  0.0638 -0.5327 -0.1518
   15MOL   O117 7705   2.946   0.991   0.341 -0.2433 -0.2740 -0.4220
   15MOL   C118 7706   2.906   1.132   0.143 -0.7035  0.5758 -0.3803
   15MOL   C119 7707   2.846   1.008   0.080 -0.5233  0.1367  0.7075
   15MOL   C120 7708   2.803   1.254   0.134 -0.6537  0.5216 -0.0915
   15MOL   H121 7709   3.327   1.698   0.608 -0.5328  0.2293  2.1229
   15MOL   H122 7710   3.192   1.652   0.499 -0.6350  0.9306  0.8823
   15MOL   H123 7711   3.203   1.575   0.657 -2.6766  1.5126 -1.6785
   15MOL   H124 7712   3.418   1.533   0.442 -0.6454  2.2137  0.7246
   15MOL   H125 7713   3.417   1.457   0.589  0.0234 -0.6486  0.4422
   15MOL   H126 7714   3.230   1.440   0.353  1.1320  0.5725  0.6298
   15MOL   H127 7715   3.345   1.318   0.394  0.5994 -0.0714  0.3586
   15MOL   H128 7716   3.086   1.365   0.549 -0.2981 -0.2434  1.0892
   15MOL   H129 7717   3.231   1.278   0.607  0.1206 -2.1505  0.0027
   15MOL   H130 7718   3.197   1.106   0.430  1.3303 -0.2846  1.4142
   15MOL   H131 7719   3.042   1.119   0.514 -1.6550  1.3578 -0.2694
   15MOL   H132 7720   2.752   0.976   0.125 -0.0670 -2.1837  0.0877
   15MOL   H133 7721   2.810   1.023   7.792  0.4895 -1.4390  0.0892
   15MOL   H134 7722   2.916   0.925   0.071 -1.5197 -0.5270 -1.0990
   15MOL   H135 7723   2.857   1.345   0.109  2.0960 -0.7007  1.1565
   15MOL   H136 7724   2.745   1.224   0.047  2.2704 -3.9646 -0.6500
   15MOL   C137 7725   2.753   1.778   7.489  0.2073 -0.9713 -0.0832
   15MOL   C138 7726   2.613   1.708   7.486  0.0762  0.0743  0.4943
   15MOL   C139 7727   2.555   1.686   7.626  0.4599  0.3669  0.1424
   15MOL   C140 7728   2.635   1.589   7.718  0.1579  0.3866  0.3691
   15MOL   C141 7729   2.563   1.583   0.039  0.0202  0.1452  1.1949
   15MOL   O142 7730   2.637   1.504   0.132  0.0835  0.0367 -0.0387
   15MOL   C143 7731   2.590   1.384   0.181 -0.4159 -0.2985 -0.5113
   15MOL   O144 7732   2.471   1.345   0.167 -0.7806  0.0046 -0.2934
   15MOL   C145 7733   2.701   1.296   0.250  0.0879 -0.4499  0.4570
   15MOL   C146 7734   2.636   1.164   0.302  0.5554 -0.4690 -0.1714
   15MOL   C147 7735   2.774   1.377   0.363  0.6701 -0.2684  0.3758
   15MOL   H148 7736   2.755   1.880   7.527  0.2752 -1.0871  0.2258
   15MOL   H149 7737   2.794   1.778   7.389  3.9623 -2.0197  1.3656
   15MOL   H150 7738   2.822   1.715   7.546 -0.6416 -1.3227  0.5732
   15MOL   H151 7739   2.633   1.615   7.435 -0.8030 -0.4181  1.0183
   15MOL   H152 7740   2.553   1.775   7.425 -2.7999 -2.1277  0.8051
   15MOL   H153 7741   2.557   1.786   7.669 -0.2495 -0.4706  2.1818
   15MOL   H154 7742   2.450   1.658   7.620  0.8510 -1.2357  0.4118
   15MOL   H155 7743   2.637   1.492   7.668  0.5751  0.6163 -0.0666
   15MOL   H156 7744   2.738   1.623   7.731  0.4839  1.0298 -3.2183
   15MOL   H157 7745   2.460   1.547   0.030  0.2961 -0.3758 -0.1696
   15MOL   H158 7746   2.542   1.683   0.075  0.9343  1.0712 -0.7662
   15MOL   H159 7747   2.717   1.105   0.346  1.1882 -0.5053 -1.3597
   15MOL   H160 7748   2.596   1.104   0.220 -3.7596  0.6286  1.0407
   15MOL   H161 7749   2.559   1.182   0.376  1.7545  0.1694  0.9415
   15MOL   H162 7750   2.833   1.304   0.419  0.2678  0.7215  2.1043
   15MOL   H163 7751   2.842   1.445   0.311  1.4407 -1.8404 -0.7364
   15MOL   C164 7752   3.007   0.946   0.925  0.1199  0.4531 -0.7719
   15MOL   C165 7753   2.884   1.028   0.972  0.5622 -0.0120 -0.1512
   15MOL   C166 7754   2.821   1.121   0.866 -0.3088 -0.3549 -0.0558
   15MOL   C167 7755   2.730   1.056   0.761 -0.7319 -0.5481  0.8907
   15MOL   C168 7756   2.627   1.146   0.685 -0.4109 -0.5072 -0.8732
   15MOL   O169 7757   2.697   1.247   0.616 -0.3659 -0.0090  0.8427
   15MOL   C170 7758   2.622   1.352   0.565  0.0403  0.1949  0.3566
   15MOL   O171 7759   2.500   1.368   0.587 -0.3175 -0.4046  0.2700
   15MOL   C172 7760   2.703   1.452   0.478 -0.7336  0.3453  0.0290
   15MOL   C173 7761   2.611   1.570   0.419 -0.0895  0.4921  0.7879
   15MOL   C174 7762   2.821   1.520   0.573  0.0479 -0.1686 -0.3950
   15MOL   H175 7763   2.960   0.876   0.857  0.3110 -0.7679  0.3350
   15MOL   H176 7764   3.067   0.892   0.998 -0.6967 -1.3754 -1.4404
   15MOL   H177 7765   3.085   1.011   0.884  0.6629  0.8749  0.8557
   15MOL   H178 7766   2.911   1.085   1.061 -1.1231 -0.9658  1.0110
   15MOL   H179 7767   2.804   0.963   1.008 -0.4858  1.2124 -0.2403
   15MOL   H180 7768   2.762   1.195   0.920  1.1706 -0.4001  1.6647
   15MOL   H181 7769   2.890   1.184   0.811  0.1239 -0.3872  0.4440
   15MOL   H182 7770   2.657   0.983   0.798 -2.2141  0.3954 -0.1444
   15MOL   H183 7771   2.790   0.996   0.693 -1.1552 -0.1772  0.1851
   15MOL   H184 7772   2.558   1.188   0.759 -0.8982  1.6245 -2.4814
   15MOL   H185 7773   2.572   1.083   0.615  1.3662  1.6021 -4.3267
   15MOL   H186 7774   2.517   1.526   0.386  0.2798  1.6313 -1.8931
   15MOL   H187 7775   2.659   1.629   0.341 -2.0122  1.8786  0.6114
   15MOL   H188 7776   2.582   1.644   0.494  0.8156  0.3262  1.3009
   15MOL   H189 7777   2.891   1.444   0.610 -0.1757 -0.0702  0.2377
   15MOL   H190 7778   2.878   1.572   0.496 -1.2337  2.4879  0.3970
   15MOL   C191 7779   2.398   2.197   0.859 -0.2374  0.0463  0.1768
   15MOL   C192 7780   2.431   2.073   0.941  0.0499  0.0941  0.1148
   15MOL   C193 7781   2.458   1.947   0.851  0.2622 -0.4186  0.4803
   15MOL   C194 7782   2.440   1.818   0.928 -0.0783 -0.2866  0.0534
   15MOL   C195 7783   2.443   1.698   0.834 -0.5014  0.3438  0.4772
   15MOL   O196 7784   2.558   1.689   0.746  0.0544  0.1832  0.1743
   15MOL   C197 7785   2.664   1.608   0.779 -0.4419  0.4205  0.3573
   15MOL   O198 7786   2.663   1.524   0.866  0.3071  0.0227 -0.0869
   15MOL   C199 7787   2.797   1.630   0.687 -0.1303  0.4620 -0.1599
   15MOL   C200 7788   2.787   1.766   0.614  0.1375  0.2550 -0.6014
   15MOL   C201 7789   2.925   1.633   0.765  0.2522  0.0213  0.7955
   15MOL   H202 7790   2.371   2.282   0.923  0.7290 -0.1920  0.9154
   15MOL   H203 7791   2.481   2.236   0.799  1.4095 -0.8017  1.8494
   15MOL   H204 7792   2.325   2.179   0.780 -1.8212 -1.3252  1.9236
   15MOL   H205 7793   2.340   2.048   0.995  0.4004 -2.4811 -0.4233
   15MOL   H206 7794   2.514   2.090   1.010 -0.3902 -0.4008  0.7667
   15MOL   H207 7795   2.565   1.948   0.827  0.0646 -0.0768 -0.4161
   15MOL   H208 7796   2.394   1.944   0.763  0.9058  1.3021 -0.0822
   15MOL   H209 7797   2.516   1.800   1.004  0.1331  0.8147  0.1077
   15MOL   H210 7798   2.346   1.811   0.983  0.2487  0.9012  0.7921
   15MOL   H211 7799   2.430   1.602   0.882  0.1732  0.2342  0.4471
   15MOL   H212 7800   2.355   1.706   0.771  1.1349 -1.6596 -2.1269
   15MOL   H213 7801   2.725   1.779   0.526 -1.5162  0.0481  0.4976
   15MOL   H214 7802   2.882   1.803   0.574 -0.8267  1.6265 -1.6734
   15MOL   H215 7803   2.757   1.848   0.680 -1.4977 -1.4267  0.8082
   15MOL   H216 7804   3.000   1.661   0.692 -1.3016 -1.7820 -1.5970
   15MOL   H217 7805   2.942   1.529   0.794  0.4982 -0.1435  0.0916
   15MOL   C218 7806   2.726   1.185   1.533  0.0024  0.0241  0.3703
   15MOL   C219 7807   2.838   1.237   1.435  0.7951  0.8171  0.2195
   15MOL   C220 7808   2.781   1.313   1.316  0.6637 -0.0975  1.0498
   15MOL   C221 7809   2.882   1.394   1.232 -0.2372  0.3229 -0.7283
   15MOL   C222 7810   2.818   1.481   1.124  0.4246  0.3920 -0.2649
   15MOL   O223 7811   2.901   1.549   1.031 -0.1622 -0.1012  0.0514
   15MOL   C224 7812   2.873   1.680   1.007  0.1602  0.2981  0.4565
   15MOL   O225 7813   2.795   1.758   1.061  0.5150  0.7346 -0.2871
   15MOL   C226 7814   2.964   1.723   0.891  0.1689 -0.3493  0.8595
   15MOL   C227 7815   2.941   1.875   0.863 -0.4501  0.9849 -0.2269
   15MOL   C228 7816   3.122   1.689   0.919 -0.3075  0.0325 -0.1316
   15MOL   H229 7817   2.665   1.273   1.554  0.7202  0.9264 -1.2016
   15MOL   H230 7818   2.661   1.106   1.495 -0.8728  1.1090 -0.4350
   15MOL   H231 7819   2.771   1.157   1.628  0.0357  0.4542  0.4829
   15MOL   H232 7820   2.891   1.152   1.392 -3.2468 -0.9954 -1.4993
   15MOL   H233 7821   2.898   1.292   1.507  1.0316  1.0534 -0.1577
   15MOL   H234 7822   2.703   1.379   1.352  0.1440 -2.1224  3.8270
   15MOL   H235 7823   2.729   1.244   1.249  0.0117  0.8121  0.6079
   15MOL   H236 7824   2.940   1.465   1.292 -2.0879  0.3015  1.1556
   15MOL   H237 7825   2.944   1.317   1.187  0.1018  0.2872 -0.2095
   15MOL   H238 7826   2.749   1.544   1.180  0.1227 -0.9226  0.8579
   15MOL   H239 7827   2.751   1.423   1.060 -0.9703  0.9643  0.6601
   15MOL   H240 7828   2.838   1.906   0.847 -1.6542 -1.6749  2.0063
   15MOL   H241 7829   3.010   1.915   0.788 -0.5334 -2.6654 -2.3727
   15MOL   H242 7830   2.966   1.928   0.955  2.0791  0.8695 -0.8126
   15MOL   H243 7831   3.175   1.697   0.824 -1.4877 -1.6805 -0.9662
   15MOL   H244 7832   3.129   1.582   0.939  2.9418 -0.2345 -2.2082
   15MOL   C245 7833   2.683   2.156   1.263  0.4692 -0.2099  0.0084
   15MOL   C246 7834   2.789   2.113   1.359  0.5603 -0.4088 -0.1643
   15MOL   C247 7835   2.836   1.975   1.322 -0.7667 -0.3724 -0.0504
   15MOL   C248 7836   2.960   1.940   1.405 -0.5050  0.2706  0.4757
   15MOL   C249 7837   3.041   1.810   1.362 -0.0221 -0.1042  0.0009
   15MOL   O250 7838   3.094   1.833   1.235 -0.1423  0.5185 -0.2456
   15MOL   C251 7839   3.150   1.725   1.171 -0.0478 -0.3079 -0.2623
   15MOL   O252 7840   3.151   1.609   1.217  0.2387  0.4098 -0.5089
   15MOL   C253 7841   3.212   1.751   1.030 -0.3658  0.3106 -0.5900
   15MOL   C254 7842   3.240   1.902   1.005 -0.2219  0.3350  0.7063
   15MOL   C255 7843   3.346   1.665   1.024 -0.0568 -0.4561 -0.2292
   15MOL   H256 7844   2.711   2.145   1.159  2.2347  1.6566  0.2543
   15MOL   H257 7845   2.590   2.101   1.276 -0.2183  1.1633  1.0153
   15MOL   H258 7846   2.645   2.257   1.278 -1.0444 -0.9602  1.3581
   15MOL   H259 7847   2.868   2.188   1.352  0.3628 -0.0580  1.1733
   15MOL   H260 7848   2.763   2.116   1.465  1.5437 -1.7564  0.1302
   15MOL   H261 7849   2.854   1.975   1.214  1.7442  0.9907  0.3465
   15MOL   H262 7850   2.763   1.893   1.327 -2.1499  0.7962 -0.6544
   15MOL   H263 7851   3.024   2.028   1.404 -1.9848  1.3764  0.8363
   15MOL   H264 7852   2.928   1.943   1.509  3.6608  0.5706  1.8158
   15MOL   H265 7853   3.128   1.818   1.428 -0.6110  2.4270  0.5508
   15MOL   H266 7854   2.990   1.714   1.370 -1.8817  0.9061  0.5311
   15MOL   H267 7855   3.278   1.928   0.906  0.5454 -0.7667  0.7020
   15MOL   H268 7856   3.159   1.965   1.041  0.5181  0.6493  1.8379
   15MOL   H269 7857   3.323   1.934   1.068  1.4143 -0.6691 -0.9086
   15MOL   H270 7858   3.326   1.561   1.051 -0.4685 -0.7498 -1.6104
   15MOL   H271 7859   3.362   1.644   0.919 -3.3195  1.7074 -1.2500
   15MOL   C272 7860   3.873   2.078   1.546  0.5749 -0.1716 -0.0821
   15MOL   C273 7861   3.926   2.067   1.402  0.3181  0.3456 -0.4128
   15MOL   C274 7862   3.828   1.989   1.309 -0.1701 -0.4583 -0.2825
   15MOL   C275 7863   3.890   1.938   1.185 -0.3444  0.1388  0.5411
   15MOL   C276 7864   3.776   1.911   1.079 -0.4674  0.3120 -0.3551
   15MOL   O277 7865   3.669   1.830   1.122  0.0442  0.5084  0.1989
   15MOL   C278 7866   3.560   1.805   1.044 -0.3935  0.1750 -0.2406
   15MOL   O279 7867   3.530   1.866   0.941  0.3667 -0.6707  0.0824
   15MOL   C280 7868   3.479   1.686   1.094  0.4725 -0.4455 -0.4140
   15MOL   C281 7869   3.458   1.722   1.241  0.0151  0.9575  0.5695
   15MOL   C282 7870   3.575   1.562   1.076 -0.7011 -0.3799 -0.5215
   15MOL   H283 7871   3.882   1.985   1.603  2.2252 -0.8786 -1.4557
   15MOL   H284 7872   3.923   2.150   1.609  0.9128 -0.7924  0.3667
   15MOL   H285 7873   3.772   2.120   1.547  1.0622  1.0261 -0.7337
   15MOL   H286 7874   3.943   2.166   1.359  0.4223 -0.3404 -1.9870
   15MOL   H287 7875   4.025   2.020   1.405 -0.4763 -1.4082 -0.9669
   15MOL   H288 7876   3.776   1.910   1.362 -0.6305 -0.8654 -1.3297
   15MOL   H289 7877   3.743   2.055   1.291  1.2570  1.4369 -0.2125
   15MOL   H290 7878   3.970   2.002   1.149  0.3813 -0.2285  1.4744
   15MOL   H291 7879   3.941   1.847   1.214 -0.4732 -0.0145  0.2964
   15MOL   H292 7880   3.835   1.856   1.005  0.9215  0.8872  0.2951
   15MOL   H293 7881   3.742   2.010   1.049  0.9733  0.6106 -1.0728
   15MOL   H294 7882   3.551   1.723   1.298  1.1643 -1.4644 -1.1713
   15MOL   H295 7883   3.412   1.818   1.263 -0.1716 -0.0180  4.7718
   15MOL   H296 7884   3.402   1.645   1.294 -2.0779  2.1965  0.2125
   15MOL   H297 7885   3.676   1.599   1.094 -1.6798  2.3127 -0.3842
   15MOL   H298 7886   3.550   1.491   1.155  1.1858 -0.2768  0.1925
   15MOL   C299 7887   3.257   1.299   1.505  0.5166 -0.5604  0.8916
   15MOL   C300 7888   3.271   1.191   1.393 -0.3815 -0.4141  0.6700
   15MOL   C301 7889   3.297   1.261   1.254 -0.1865 -0.4323 -0.5881
   15MOL   C302 7890   3.295   1.177   1.128  0.3800  0.4290 -0.3171
   15MOL   C303 7891   3.320   1.245   0.998  0.4088  0.6026 -0.1613
   15MOL   O304 7892   3.445   1.316   1.000  0.3088  0.4227 -0.2664
   15MOL   C305 7893   3.463   1.403   0.906  0.2250  0.2646  0.1831
   15MOL   O306 7894   3.374   1.414   0.818  0.3754 -0.3928  0.3680
   15MOL   C307 7895   3.583   1.489   0.934  0.1818  0.5879  0.1377
   15MOL   C308 7896   3.605   1.592   0.811  0.0572 -0.5927  0.1441
   15MOL   C309 7897   3.711   1.398   0.940 -0.7276  0.1216  0.2703
   15MOL   H310 7898   3.349   1.357   1.504  1.6577 -2.3260 -1.4786
   15MOL   H311 7899   3.222   1.257   1.599  0.3683 -2.2759  0.0968
   15MOL   H312 7900   3.177   1.367   1.475  1.2658  0.8190  1.9706
   15MOL   H313 7901   3.177   1.137   1.383 -0.3133 -0.7544  1.8428
   15MOL   H314 7902   3.350   1.117   1.403  0.7751  0.8339  1.0791
   15MOL   H315 7903   3.401   1.292   1.261 -0.5015  0.4871 -0.0010
   15MOL   H316 7904   3.244   1.356   1.248  0.6093  0.1963  1.7772
   15MOL   H317 7905   3.198   1.129   1.118  1.5256 -2.5285  1.9696
   15MOL   H318 7906   3.363   1.093   1.138 -2.9275 -2.1422  1.2448
   15MOL   H319 7907   3.305   1.173   0.917  0.6747  0.7019 -0.2975
   15MOL   H320 7908   3.243   1.321   0.980  2.7792  3.2230  0.4977
   15MOL   H321 7909   3.610   1.535   0.718 -0.1126  0.7606 -0.7026
   15MOL   H322 7910   3.522   1.658   0.788  0.6520  0.3689  0.7330
   15MOL   H323 7911   3.699   1.645   0.827  1.5755 -3.0751 -0.1814
   15MOL   H324 7912   3.687   1.321   1.014 -1.4079  1.0211  0.9886
   15MOL   H325 7913   3.786   1.460   0.987 -0.5496  2.0642 -2.4469
   15MOL   C326 7914   4.113   1.180   0.291  0.1664  0.1009 -0.1127
   15MOL   C327 7915   3.999   1.280   0.267  0.5568 -0.0340 -0.3801
   15MOL   C328 7916   3.893   1.257   0.372 -0.1811  0.7701  0.5495
   15MOL   C329 7917   3.760   1.313   0.346  0.0035  0.2266 -0.4747
   15MOL   C330 7918   3.655   1.287   0.461 -0.4837  0.3132 -0.8186
   15MOL   O331 7919   3.716   1.340   0.581  0.0854 -0.1701 -0.9983
   15MOL   C332 7920   3.688   1.283   0.699  0.0292  0.1986  0.2694
   15MOL   O333 7921   3.596   1.200   0.712 -0.9588  0.7927  0.1334
   15MOL   C334 7922   3.786   1.328   0.818 -0.1303 -0.0490  0.5693
   15MOL   C335 7923   3.887   1.427   0.759 -0.0403 -0.7232  0.2096
   15MOL   C336 7924   3.853   1.196   0.854 -0.7307  0.1653  0.4828
   15MOL   H337 7925   4.078   1.078   0.277  0.3677 -0.0529  0.5014
   15MOL   H338 7926   4.164   1.183   0.387  1.9324 -1.0270 -0.9860
   15MOL   H339 7927   4.190   1.192   0.214 -0.6723 -0.7836 -1.0976
   15MOL   H340 7928   3.966   1.281   0.163  0.8424  1.7425 -0.4678
   15MOL   H341 7929   4.038   1.381   0.281  0.2372  0.2608 -1.5505
   15MOL   H342 7930   3.932   1.288   0.469  0.0938  1.6630  0.1609
   15MOL   H343 7931   3.877   1.149   0.378  3.2230  0.2483  1.3533
   15MOL   H344 7932   3.729   1.273   0.249  1.6405  2.2843 -1.9070
   15MOL   H345 7933   3.758   1.421   0.335 -0.2975  0.2230 -0.4707
   15MOL   H346 7934   3.631   1.181   0.462  0.0388  0.1976  0.2168
   15MOL   H347 7935   3.561   1.341   0.459  0.6581  2.3902 -0.3857
   15MOL   H348 7936   3.859   1.520   0.710  4.2901  1.2474  1.1998
   15MOL   H349 7937   3.943   1.370   0.684  2.0297 -0.7759  1.7490
   15MOL   H350 7938   3.962   1.469   0.827 -0.1473 -0.4390  0.1523
   15MOL   H351 7939   3.886   1.145   0.763  1.3685  0.4086  1.0682
   15MOL   H352 7940   3.779   1.133   0.902 -2.4710  1.5179 -0.3789
   15MOL   C353 7941   3.679   0.916   1.332 -0.0307 -0.9092 -0.6131
   15MOL   C354 7942   3.638   1.043   1.263  0.0035 -0.0523 -0.2021
   15MOL   C355 7943   3.668   1.167   1.352 -0.1808 -0.2370 -0.4756
   15MOL   C356 7944   3.810   1.189   1.393 -0.1425  0.3819 -0.5741
   15MOL   C357 7945   3.885   1.276   1.286 -0.3663 -0.0223  0.3525
   15MOL   O358 7946   3.898   1.210   1.159 -0.2553 -0.7422 -0.3851
   15MOL   C359 7947   3.974   1.264   1.064  0.3182  0.5105 -0.1746
   15MOL   O360 7948   4.019   1.376   1.074 -0.2201 -0.1894 -0.3332
   15MOL   C361 7949   3.985   1.178   0.935 -0.1761 -0.3026  0.8014
   15MOL   C362 7950   4.104   1.216   0.845  0.4051  0.2797 -0.2257
   15MOL   C363 7951   4.000   1.024   0.967  0.1301  0.3633 -0.7800
   15MOL   H364 7952   3.617   0.829   1.310 -1.4964 -0.6642  2.3324
   15MOL   H365 7953   3.680   0.923   1.441  0.9935 -0.0179 -0.6791
   15MOL   H366 7954   3.782   0.910   1.296 -0.0724 -0.2850 -0.8464
   15MOL   H367 7955   3.685   1.043   1.164 -1.4185  2.1383 -0.9198
   15MOL   H368 7956   3.529   1.039   1.255  0.0808 -0.3240 -1.2417
   15MOL   H369 7957   3.597   1.177   1.434 -0.5918 -1.1826 -0.7064
   15MOL   H370 7958   3.640   1.260   1.304 -0.4182  0.1186  0.3414
   15MOL   H371 7959   3.870   1.103   1.423 -1.9947 -1.1898 -1.3009
   15MOL   H372 7960   3.794   1.248   1.484  2.6312  0.3543 -0.0038
   15MOL   H373 7961   3.834   1.370   1.269 -0.5856 -0.1275  0.4346
   15MOL   H374 7962   3.984   1.310   1.319  0.9004 -0.7073 -2.6011
   15MOL   H375 7963   4.095   1.318   0.808  0.6857 -0.1642 -1.5414
   15MOL   H376 7964   4.192   1.215   0.909  0.0669 -0.6519  0.2381
   15MOL   H377 7965   4.113   1.153   0.756 -2.7857 -1.1177  0.3658
   15MOL   H378 7966   3.922   0.998   1.039  1.6954  0.4245  0.9823
   15MOL   H379 7967   3.977   0.958   0.883 -0.4867  0.6209 -0.8115
   15MOL   C380 7968   4.686   1.282   0.841 -0.3258  0.2711  0.8944
   15MOL   C381 7969   4.588   1.348   0.935 -0.6006 -0.4369  0.1191
   15MOL   C382 7970   4.518   1.255   1.032  0.3350  0.6317 -0.3567
   15MOL   C383 7971   4.406   1.327   1.117 -0.1430  0.1845 -0.2833
   15MOL   C384 7972   4.327   1.219   1.198 -0.3391  0.2925 -0.3913
   15MOL   O385 7973   4.274   1.121   1.106  0.0888 -0.3617  0.2156
   15MOL   C386 7974   4.190   1.032   1.144 -0.4230 -0.5665 -0.6750
   15MOL   O387 7975   4.160   1.015   1.265 -0.1506  0.4109 -0.5371
   15MOL   C388 7976   4.129   0.952   1.028 -0.6973  0.4355 -0.0743
   15MOL   C389 7977   4.086   0.821   1.088 -0.7992  0.4559 -0.4787
   15MOL   C390 7978   4.238   0.929   0.915 -0.2378  0.2646 -0.2766
   15MOL   H391 7979   4.791   1.291   0.868 -0.1372  2.7564 -0.5339
   15MOL   H392 7980   4.657   1.180   0.816  0.1796  0.5956 -1.0487
   15MOL   H393 7981   4.675   1.332   0.745  0.6809 -1.4070 -0.1157
   15MOL   H394 7982   4.507   1.394   0.878 -0.7743 -1.0584 -0.1479
   15MOL   H395 7983   4.630   1.431   0.992 -2.9507  0.2673  0.8926
   15MOL   H396 7984   4.471   1.175   0.975 -1.7318  2.0714 -0.7011
   15MOL   H397 7985   4.593   1.210   1.098 -1.3023 -2.6001 -0.6333
   15MOL   H398 7986   4.432   1.411   1.181 -1.0700  0.5236 -0.3559
   15MOL   H399 7987   4.334   1.373   1.049  1.1174  1.8481 -0.5348
   15MOL   H400 7988   4.241   1.268   1.245  2.0926  2.0278  2.4697
   15MOL   H401 7989   4.390   1.165   1.269  0.0216 -0.3269 -1.1851
   15MOL   H402 7990   4.018   0.847   1.169  1.4843  0.0126  1.6419
   15MOL   H403 7991   4.167   0.759   1.125  1.0797  2.0077 -1.8544
   15MOL   H404 7992   4.034   0.750   1.024  0.6516 -0.8265 -0.2439
   15MOL   H405 7993   4.280   1.023   0.877  0.7007  1.0708  2.6192
   15MOL   H406 7994   4.191   0.889   0.825  0.4920 -0.2301 -0.4486
   15MOL   C407 7995   3.854   0.919   0.561  0.3371  0.4488 -0.0988
   15MOL   C408 7996   3.921   0.787   0.533 -0.3389  0.2663 -0.0323
   15MOL   C409 7997   4.032   0.766   0.634 -0.5928  0.6068 -0.7386
   15MOL   C410 7998   4.086   0.616   0.625 -0.2338 -0.2177  0.2510
   15MOL   C411 7999   4.175   0.567   0.734  1.0151 -0.1804 -0.4624
   15MOL   O412 8000   4.269   0.663   0.770 -0.0843 -0.1007 -0.0678
   15MOL   C413 8001   4.306   0.685   0.898 -0.9661  0.7878 -0.2577
   15MOL   O414 8002   4.305   0.596   0.988 -0.8754  0.2210  0.5537
   15MOL   C415 8003   4.365   0.830   0.929  0.1050 -0.0791  0.4388
   15MOL   C416 8004   4.457   0.863   0.808  0.2419 -0.2973  0.1995
   15MOL   C417 8005   4.434   0.844   1.071 -0.3607 -0.5041 -0.2985
   15MOL   H418 8006   3.787   0.947   0.480  1.4314 -1.8605 -1.8411
   15MOL   H419 8007   3.786   0.917   0.646  0.9251  3.2426  0.5084
   15MOL   H420 8008   3.930   0.996   0.575  0.4818  0.1914  0.5380
   15MOL   H421 8009   3.948   0.775   0.428 -0.9099  1.8308 -0.3610
   15MOL   H422 8010   3.853   0.702   0.549  1.4674 -1.0668  0.7380
   15MOL   H423 8011   4.114   0.834   0.613 -0.7496  1.5385  1.4699
   15MOL   H424 8012   4.004   0.779   0.739  0.7754 -0.0360 -0.2826
   15MOL   H425 8013   4.152   0.609   0.539 -0.5421 -2.1008  0.1601
   15MOL   H426 8014   4.004   0.546   0.618 -1.3184  0.9399  1.1242
   15MOL   H427 8015   4.110   0.546   0.819  0.4281  1.2426 -0.5393
   15MOL   H428 8016   4.224   0.472   0.714  2.3522  0.3419  0.2676
   15MOL   H429 8017   4.509   0.956   0.831 -0.5033 -0.1200  1.1952
   15MOL   H430 8018   4.410   0.878   0.710 -1.2590 -0.1014  0.9379
   15MOL   H431 8019   4.531   0.783   0.796  1.3119  1.2939 -5.2351
   15MOL   H432 8020   4.373   0.807   1.153 -1.0237  0.0475 -0.5322
   15MOL   H433 8021   4.443   0.948   1.103 -1.8099 -0.0102 -1.4394
   15MOL   C434 8022   5.071   0.527   0.732  0.6290 -0.0457  0.3984
   15MOL   C435 8023   5.116   0.624   0.839  0.3718  0.2969 -0.3622
   15MOL   C436 8024   5.007   0.726   0.887  0.0878  0.7911 -0.5934
   15MOL   C437 8025   4.918   0.798   0.786 -0.1867  0.0359  0.6139
   15MOL   C438 8026   4.820   0.897   0.851  0.1442  0.0584  0.0599
   15MOL   O439 8027   4.743   0.811   0.932 -0.4987  0.0278  0.3745
   15MOL   C440 8028   4.689   0.861   1.047 -0.3257  0.7241 -0.0785
   15MOL   O441 8029   4.712   0.971   1.089  0.1277 -0.7333 -0.0047
   15MOL   C442 8030   4.570   0.777   1.108 -0.6381 -0.2250  0.6223
   15MOL   C443 8031   4.587   0.627   1.063  0.1699 -0.2038 -0.5268
   15MOL   C444 8032   4.578   0.785   1.266 -1.2557 -0.4258 -0.7015
   15MOL   H445 8033   5.163   0.486   0.692 -0.6481  0.2117 -2.9855
   15MOL   H446 8034   5.009   0.447   0.773 -1.4835  0.8645 -0.9394
   15MOL   H447 8035   5.020   0.578   0.650 -0.3490  0.0292  1.0372
   15MOL   H448 8036   5.144   0.555   0.918  0.0038  0.8682  0.2717
   15MOL   H449 8037   5.202   0.680   0.803  1.5207 -0.4175  1.2292
   15MOL   H450 8038   4.941   0.667   0.951 -0.1154  2.2009  0.5247
   15MOL   H451 8039   5.050   0.785   0.968 -1.1424  0.0106  0.6481
   15MOL   H452 8040   4.857   0.729   0.728 -1.4658  2.3762 -0.9356
   15MOL   H453 8041   4.980   0.850   0.712 -0.1019  0.6944  1.1429
   15MOL   H454 8042   4.759   0.956   0.782  1.8702 -0.0248 -1.5716
   15MOL   H455 8043   4.873   0.973   0.909  0.5822  0.7080 -1.1828
   15MOL   H456 8044   4.690   0.593   1.070 -0.4495 -2.0418 -0.1057
   15MOL   H457 8045   4.504   0.575   1.110  1.3439 -1.5132  0.1208
   15MOL   H458 8046   4.570   0.617   0.956  0.1860 -0.8870 -0.4664
   15MOL   H459 8047   4.491   0.725   1.291  0.0034 -1.4404  1.3756
   15MOL   H460 8048   4.537   0.883   1.293  0.7591  0.3908 -0.5266
   15MOL   C461 8049   5.017   0.139   1.035 -0.2280 -1.1048  0.2338
   15MOL   C462 8050   5.033   0.295   1.044 -0.3284 -0.4922  0.5472
   15MOL   C463 8051   4.969   0.358   1.169  0.3352  0.4249  0.2229
   15MOL   C464 8052   4.833   0.302   1.219  0.3043  1.0726 -0.5796
   15MOL   C465 8053   4.781   0.375   1.342  0.1869 -0.1434 -0.2882
   15MOL   O466 8054   4.760   0.514   1.315 -0.4099 -0.3969 -0.1316
   15MOL   C467 8055   4.683   0.586   1.388  0.3775  0.1408 -0.2612
   15MOL   O468 8056   4.612   0.541   1.480 -0.5996 -0.0279 -0.2128
   15MOL   C469 8057   4.691   0.738   1.366  0.2594  0.1787  0.2208
   15MOL   C470 8058   4.658   0.821   1.492  0.4855 -0.4081  0.8635
   15MOL   C471 8059   4.838   0.778   1.322  0.0219 -0.3393  0.1552
   15MOL   H472 8060   5.041   0.090   0.940 -3.2204 -0.9958 -0.6150
   15MOL   H473 8061   4.913   0.109   1.049 -1.7910  2.3045 -3.1120
   15MOL   H474 8062   5.081   0.085   1.106  1.0805  0.1944  0.0663
   15MOL   H475 8063   4.979   0.331   0.956 -0.2023  3.2170  1.9042
   15MOL   H476 8064   5.136   0.326   1.029  0.3312 -1.7776  2.2770
   15MOL   H477 8065   4.950   0.461   1.138  0.0482 -0.1299 -1.5082
   15MOL   H478 8066   5.034   0.366   1.256  1.6803 -1.9688 -0.5304
   15MOL   H479 8067   4.843   0.195   1.238 -0.8444  0.9979 -0.3223
   15MOL   H480 8068   4.751   0.310   1.147 -1.2613 -0.9763  0.8688
   15MOL   H481 8069   4.684   0.336   1.372 -0.2157  0.9096 -0.2019
   15MOL   H482 8070   4.858   0.365   1.418 -0.2708  0.3314  0.2418
   15MOL   H483 8071   4.550   0.826   1.498  0.3977  0.5988 -1.3737
   15MOL   H484 8072   4.708   0.918   1.488  2.0599 -1.2487 -1.1607
   15MOL   H485 8073   4.698   0.765   1.577 -2.1852 -2.1163  1.0362
   15MOL   H486 8074   4.827   0.883   1.292  0.7060 -0.6968 -1.4025
   15MOL   H487 8075   4.856   0.733   1.224  0.9044 -0.7178  0.4883
   15MOL   C488 8076   4.757   0.353   1.919  0.3206 -0.6753  0.1416
   15MOL   C489 8077   4.753   0.478   2.007  0.0672 -0.4551 -0.5415
   15MOL   C490 8078   4.871   0.569   1.999 -0.6491  0.0846 -0.2166
   15MOL   C491 8079   4.881   0.673   1.881 -0.2781 -0.4522 -0.3186
   15MOL   C492 8080   4.905   0.596   1.749 -0.6222 -0.7853 -0.1149
   15MOL   O493 8081   4.953   0.698   1.649 -0.3497 -0.0186 -0.9005
   15MOL   C494 8082   4.966   0.653   1.525 -0.0292  0.7565 -0.1148
   15MOL   O495 8083   4.980   0.531   1.498 -0.5098  0.4464 -0.1279
   15MOL   C496 8084   4.968   0.754   1.411  0.0594 -0.0361 -0.2163
   15MOL   C497 8085   4.988   0.897   1.472  0.0078  1.4557  0.4450
   15MOL   C498 8086   5.085   0.728   1.301  0.0439  0.5283  0.0905
   15MOL   H499 8087   4.673   0.289   1.946 -2.2511  1.1785 -3.0095
   15MOL   H500 8088   4.733   0.365   1.813  0.0421 -1.0412  0.1591
   15MOL   H501 8089   4.852   0.305   1.943  0.6951  0.3740  0.7472
   15MOL   H502 8090   4.745   0.446   2.111 -0.3487  0.6396 -0.2361
   15MOL   H503 8091   4.660   0.531   1.986 -0.0406 -0.4311 -0.0035
   15MOL   H504 8092   4.882   0.627   2.090 -1.7608 -0.0490  0.0121
   15MOL   H505 8093   4.960   0.506   2.003  0.6545  1.7017 -2.6478
   15MOL   H506 8094   4.966   0.739   1.901  0.0596 -0.9881  0.0438
   15MOL   H507 8095   4.801   0.746   1.873 -0.4576 -0.6282 -0.1313
   15MOL   H508 8096   4.979   0.520   1.771 -0.7285 -0.9856 -0.4408
   15MOL   H509 8097   4.809   0.551   1.727 -1.8471  1.4751  0.4029
   15MOL   H510 8098   5.082   0.897   1.527  0.4693 -2.6650 -0.1874
   15MOL   H511 8099   4.914   0.930   1.544 -0.4774  1.5971 -0.1168
   15MOL   H512 8100   4.992   0.977   1.398  1.0969  2.1789  1.2556
   15MOL   H513 8101   5.068   0.792   1.214 -0.5994 -0.1356 -0.2776
   15MOL   H514 8102   5.069   0.625   1.267 -0.1078  0.2528  0.9857
   15MOL   C515 8103   4.888   1.226   1.238  0.4152  0.1492 -0.1489
   15MOL   C516 8104   5.042   1.236   1.212  1.0329 -0.0469 -0.4524
   15MOL   C517 8105   5.084   1.121   1.121  0.3142 -0.8137  0.7088
   15MOL   C518 8106   5.232   1.120   1.084 -1.1740  0.5227 -0.2684
   15MOL   C519 8107   5.326   1.057   1.185 -0.2856 -0.0543  0.3558
   15MOL   O520 8108   5.295   0.925   1.205  0.0004  0.0893  1.2102
   15MOL   C521 8109   5.290   0.878   1.328  0.4708 -0.3108 -0.6998
   15MOL   O522 8110   5.324   0.931   1.432 -0.4092 -0.3805 -0.2772
   15MOL   C523 8111   5.235   0.736   1.331 -1.2360 -0.0755 -0.1609
   15MOL   C524 8112   5.312   0.651   1.223  0.0595 -0.7044 -0.0895
   15MOL   C525 8113   5.268   0.673   1.467 -0.3243 -0.6858 -0.1680
   15MOL   H526 8114   4.821   1.230   1.152  1.7407  3.0105 -1.1191
   15MOL   H527 8115   4.869   1.134   1.293 -1.0449  0.7604  0.4260
   15MOL   H528 8116   4.854   1.304   1.306 -1.5927 -0.0193 -0.9208
   15MOL   H529 8117   5.061   1.330   1.159 -1.0713  0.6581 -0.0413
   15MOL   H530 8118   5.102   1.242   1.302  1.2940  1.1398 -0.6953
   15MOL   H531 8119   5.050   1.026   1.162 -1.2800 -0.4492  0.2548
   15MOL   H532 8120   5.029   1.132   1.028  0.7451  2.5192  0.8033
   15MOL   H533 8121   5.270   1.211   1.038 -2.1551  0.5550 -1.0453
   15MOL   H534 8122   5.229   1.048   1.002 -2.3166  0.7846 -0.4698
   15MOL   H535 8123   5.425   1.048   1.140 -1.1137 -1.6052 -1.2314
   15MOL   H536 8124   5.325   1.118   1.275 -0.0741 -1.2800  1.1911
   15MOL   H537 8125   5.279   0.686   1.125  2.5342  2.1495  0.0093
   15MOL   H538 8126   5.300   0.543   1.230 -0.6360 -0.5709  0.9618
   15MOL   H539 8127   5.420   0.663   1.228  0.0946 -1.0015 -0.1447
   15MOL   H540 8128   5.246   0.567   1.483 -1.5039 -0.0631  2.6449
   15MOL   H541 8129   5.231   0.736   1.548  0.5407 -0.1042 -0.2206
   15MOL   H542 8130   5.376   0.685   1.474 -0.5589  0.2413  2.1892
   16MOL     C1 8131   4.600   4.062   0.178  0.7914  0.4877  0.0499
   16MOL     C2 8132   4.463   4.130   0.134 -0.0671  0.3455  0.3608
   16MOL     C3 8133   4.433   4.119   7.802 -0.4596 -0.4651  0.4354
   16MOL     C4 8134   4.532   4.188   7.702  0.3277 -0.3379 -0.2793
   16MOL     C5 8135   4.462   4.197   7.565  0.2542 -0.1521 -0.1218
   16MOL     O6 8136   4.435   4.068   7.516  0.3673  0.3455  0.7532
   16MOL     C7 8137   4.443   4.043   7.379  0.6348 -0.2451  0.9705
   16MOL     O8 8138   4.481   4.129   7.295  0.3199  0.1181  0.3042
   16MOL     C9 8139   4.403   3.900   7.345 -0.1837 -0.1063 -0.1435
   16MOL    C10 8140   4.255   3.872   7.387  0.4000  0.3658 -1.0155
   16MOL    C11 8141   4.488   3.782   7.406 -0.5233 -0.4106  0.3653
   16MOL    H12 8142   4.584   3.956   0.159 -2.0110  0.2661  3.1718
   16MOL    H13 8143   4.606   4.075   0.286 -2.5233 -0.9649  0.4692
   16MOL    H14 8144   4.683   4.110   0.126  1.9560 -0.0308  1.4196
   16MOL    H15 8145   4.381   4.089   0.193  0.0943 -0.4090  0.0605
   16MOL    H16 8146   4.472   4.237   0.153 -0.9997  0.3579  0.7353
   16MOL    H17 8147   4.430   4.015   7.770 -1.1041 -0.4014  0.2829
   16MOL    H18 8148   4.330   4.153   7.792 -0.2022  0.3548  0.5566
   16MOL    H19 8149   4.627   4.136   7.694  0.5230  0.1443 -1.2402
   16MOL    H20 8150   4.548   4.293   7.728 -0.5758  0.0411 -1.1901
   16MOL    H21 8151   4.371   4.256   7.577  2.2060  3.3168 -1.3811
   16MOL    H22 8152   4.520   4.261   7.498 -1.4773  1.8284  0.1930
   16MOL    H23 8153   4.197   3.948   7.335 -2.4427 -0.7591  0.4202
   16MOL    H24 8154   4.234   3.893   7.492  0.3632 -1.0237 -0.7406
   16MOL    H25 8155   4.232   3.777   7.339  0.4621 -1.2576  2.0987
   16MOL    H26 8156   4.427   3.693   7.420  0.6790 -0.9305  2.4465
   16MOL    H27 8157   4.501   3.805   7.511  0.3253 -0.8477  0.3568
   16MOL    H28 8158   4.423   3.903   7.238 -2.0464  1.6926 -0.4646
   16MOL    C29 8159   5.270   3.758   7.692  0.3296 -0.1629 -0.3499
   16MOL    C30 8160   5.139   3.830   7.688  0.0556  0.4882 -0.1808
   16MOL    C31 8161   5.040   3.786   7.578 -0.4815 -0.2010  0.0471
   16MOL    C32 8162   4.992   3.640   7.606  0.7974  0.5386  0.0527
   16MOL    C33 8163   4.945   3.577   7.479 -0.7963 -0.4170 -0.1682
   16MOL    O34 8164   4.846   3.645   7.401 -0.0747  0.8798 -0.2346
   16MOL    C35 8165   4.716   3.655   7.435 -0.0909  0.5082  0.2672
   16MOL    O36 8166   4.659   3.601   7.525 -0.2659 -0.1385  0.2711
   16MOL    C37 8167   4.635   3.755   7.347  0.6039  0.7403  0.2182
   16MOL    C38 8168   4.720   3.885   7.347  0.4867 -0.1652  0.7772
   16MOL    C39 8169   4.631   3.703   7.200  0.0531  0.4760 -0.5006
   16MOL    H40 8170   5.262   3.651   7.709  1.0507 -0.1798 -0.1152
   16MOL    H41 8171   5.331   3.768   7.602 -1.8408  1.4552 -1.6975
   16MOL    H42 8172   5.324   3.796   7.778  3.7149 -2.0957 -1.5299
   16MOL    H43 8173   5.140   3.939   7.692 -0.2515  0.5304 -1.1194
   16MOL    H44 8174   5.098   3.798   7.784  1.4005  0.0705  0.2610
   16MOL    H45 8175   5.090   3.786   7.481 -0.9076 -0.2319 -0.1729
   16MOL    H46 8176   4.963   3.863   7.569  0.1638  0.4121 -0.2685
   16MOL    H47 8177   5.064   3.572   7.650  1.8418  2.3219  1.1670
   16MOL    H48 8178   4.905   3.644   7.672  0.0329  0.0149 -0.8998
   16MOL    H49 8179   4.905   3.480   7.508  0.8069 -0.9986  0.1807
   16MOL    H50 8180   5.031   3.549   7.418 -1.7780 -2.4652 -0.6707
   16MOL    H51 8181   4.729   3.941   7.440 -0.7315 -0.1921  0.9144
   16MOL    H52 8182   4.675   3.949   7.271 -1.9393 -1.9724  0.6581
   16MOL    H53 8183   4.824   3.873   7.315  0.7747 -1.1162  2.0386
   16MOL    H54 8184   4.737   3.693   7.179  0.4958 -0.2269  1.9048
   16MOL    H55 8185   4.608   3.788   7.135  0.4583  0.4697 -0.6537
   16MOL    C56 8186   4.193   4.230   7.075  0.5059 -0.5012  0.5277
   16MOL    C57 8187   4.162   4.142   6.947  0.0622  0.0502 -0.3771
   16MOL    C58 8188   4.159   3.996   6.974  0.6980  0.0694 -0.3524
   16MOL    C59 8189   4.293   3.932   6.985  0.7559 -0.1005  0.5241
   16MOL    C60 8190   4.269   3.782   7.014  0.5932  0.1705 -0.4065
   16MOL    O61 8191   4.395   3.721   7.037  0.1998  0.3865 -0.4593
   16MOL    C62 8192   4.405   3.616   7.126 -0.0632  0.8675  0.0294
   16MOL    O63 8193   4.316   3.562   7.188 -0.0202 -0.3763  0.3576
   16MOL    C64 8194   4.554   3.580   7.149  0.4090 -0.0608  0.4746
   16MOL    C65 8195   4.556   3.466   7.249 -0.1249  0.1221 -0.4002
   16MOL    C66 8196   4.613   3.545   7.009  0.4308  0.4273  0.0031
   16MOL    H67 8197   4.295   4.269   7.068  1.0665 -2.3784 -2.4405
   16MOL    H68 8198   4.187   4.174   7.169 -0.6826  0.4191  1.0212
   16MOL    H69 8199   4.118   4.307   7.089 -0.9524 -1.7366 -0.3513
   16MOL    H70 8200   4.059   4.157   6.914 -0.6019 -0.0387  1.5747
   16MOL    H71 8201   4.227   4.170   6.865  1.7562 -0.9156  0.6055
   16MOL    H72 8202   4.113   3.991   7.072  0.3412  0.5720 -0.4880
   16MOL    H73 8203   4.100   3.938   6.903  0.6473 -2.5070  1.7402
   16MOL    H74 8204   4.356   3.973   7.063 -1.6032  4.6846  0.1258
   16MOL    H75 8205   4.356   3.948   6.898  0.4169 -2.0630 -0.1182
   16MOL    H76 8206   4.207   3.770   7.103  2.1130  0.0927  0.6504
   16MOL    H77 8207   4.216   3.738   6.929  1.6851 -2.2825  0.1319
   16MOL    H78 8208   4.500   3.375   7.229 -2.1405  0.5574  2.9534
   16MOL    H79 8209   4.513   3.490   7.346 -0.8046 -1.6698 -0.2439
   16MOL    H80 8210   4.657   3.430   7.267 -0.5304 -1.2451 -0.8143
   16MOL    H81 8211   4.718   3.524   7.026  0.3118  0.3402  0.6071
   16MOL    H82 8212   4.621   3.637   6.950  1.1190 -0.2453 -0.9738
   16MOL    C83 8213   5.030   3.665   7.074  0.2033  0.5395 -0.2320
   16MOL    C84 8214   5.048   3.583   6.949  0.3569  0.1097 -0.4777
   16MOL    C85 8215   5.014   3.653   6.815  0.5397 -0.0226  0.6766
   16MOL    C86 8216   4.997   3.557   6.699  0.0273 -0.4729 -0.6533
   16MOL    C87 8217   4.892   3.451   6.711 -0.1364 -0.3950  0.1887
   16MOL    O88 8218   4.774   3.486   6.790  0.2509  0.3241  0.4376
   16MOL    C89 8219   4.693   3.379   6.839  0.5313  0.3939 -0.3706
   16MOL    O90 8220   4.722   3.264   6.835 -0.2942  0.4006 -0.9561
   16MOL    C91 8221   4.561   3.434   6.908  0.1239  0.5175  0.1275
   16MOL    C92 8222   4.480   3.323   6.978  0.0720  0.3139 -0.3590
   16MOL    C93 8223   4.473   3.503   6.790  0.0492  0.8931 -0.3197
   16MOL    H94 8224   5.069   3.617   7.163 -0.5994  1.1902  0.4669
   16MOL    H95 8225   5.079   3.763   7.070 -0.2274  0.8160  1.1178
   16MOL    H96 8226   4.922   3.674   7.084  0.0737 -1.4674  0.2771
   16MOL    H97 8227   4.994   3.490   6.962 -2.3967  1.6641 -0.2795
   16MOL    H98 8228   5.156   3.571   6.944  1.0026  4.2325  1.1656
   16MOL    H99 8229   5.100   3.715   6.789  0.5792  0.1573  1.2232
   16MOL   H100 8230   4.932   3.724   6.828  0.8435  0.5396 -0.4366
   16MOL   H101 8231   5.097   3.522   6.671  0.8525 -0.1945  1.8283
   16MOL   H102 8232   4.955   3.611   6.614  0.2029  0.8221  0.0569
   16MOL   H103 8233   4.942   3.363   6.751 -0.9434 -0.8404  0.2167
   16MOL   H104 8234   4.867   3.427   6.608  1.4011  1.1772 -0.5703
   16MOL   H105 8235   4.449   3.240   6.916 -0.6798  0.3790 -0.0746
   16MOL   H106 8236   4.394   3.365   7.030  0.8552  0.5677  0.7604
   16MOL   H107 8237   4.549   3.277   7.049 -0.4551 -0.6197 -0.4442
   16MOL   H108 8238   4.410   3.583   6.827  1.9037  2.0164  0.4785
   16MOL   H109 8239   4.539   3.574   6.740  1.5683 -0.1078  0.2269
   16MOL   C110 8240   4.206   3.031   6.363  0.3117  0.1361  0.5501
   16MOL   C111 8241   4.204   3.011   6.521 -0.2463 -0.0508  0.1609
   16MOL   C112 8242   4.070   3.012   6.584 -0.4302  0.3991 -0.5848
   16MOL   C113 8243   3.997   3.146   6.587 -0.6009 -0.3864 -0.5520
   16MOL   C114 8244   4.052   3.235   6.698  0.4877  0.0374 -0.4986
   16MOL   O115 8245   4.172   3.299   6.664  0.5296  0.6011  0.2960
   16MOL   C116 8246   4.245   3.372   6.746  0.2853  0.1659 -0.1336
   16MOL   O117 8247   4.206   3.406   6.854  0.0723  0.3105 -0.2877
   16MOL   C118 8248   4.384   3.418   6.689 -0.2924 -0.0100  0.1484
   16MOL   C119 8249   4.448   3.294   6.632  0.4190  0.7004 -0.0713
   16MOL   C120 8250   4.355   3.514   6.567  0.0269  0.6871  0.1093
   16MOL   H121 8251   4.135   2.963   6.316 -0.6555  0.2764  1.7776
   16MOL   H122 8252   4.174   3.132   6.339 -0.8136  0.2280  2.3241
   16MOL   H123 8253   4.311   3.015   6.339 -0.0045 -0.8117 -0.2146
   16MOL   H124 8254   4.235   2.912   6.554 -1.3466 -0.4269  0.0892
   16MOL   H125 8255   4.278   3.063   6.582  0.9642 -2.3806  0.7424
   16MOL   H126 8256   4.014   2.929   6.541  1.0921 -0.8319 -0.2453
   16MOL   H127 8257   4.076   2.985   6.689  2.5904 -1.5357 -1.1780
   16MOL   H128 8258   3.894   3.120   6.610 -0.8868  1.0233 -0.2144
   16MOL   H129 8259   3.993   3.197   6.490 -0.4059 -1.3926 -1.0948
   16MOL   H130 8260   3.975   3.307   6.725 -0.6311 -1.1211 -0.5711
   16MOL   H131 8261   4.069   3.172   6.786  0.0914 -0.4338 -0.7536
   16MOL   H132 8262   4.554   3.309   6.613  0.9862 -1.5463  1.2034
   16MOL   H133 8263   4.449   3.207   6.697  0.5438  1.4521  0.9433
   16MOL   H134 8264   4.403   3.270   6.535 -0.0540  0.5947  0.1775
   16MOL   H135 8265   4.457   3.538   6.539  0.8044 -1.3187  1.1795
   16MOL   H136 8266   4.326   3.449   6.485 -0.8972 -0.7306  1.5171
   16MOL   C137 8267   3.499   3.591   6.270 -0.4816  0.2716  0.7462
   16MOL   C138 8268   3.614   3.682   6.323  0.5530  0.4158 -0.3733
   16MOL   C139 8269   3.688   3.628   6.448  0.2581  0.2602  0.1550
   16MOL   C140 8270   3.835   3.622   6.435  1.1860 -0.3958  0.0323
   16MOL   C141 8271   3.921   3.532   6.531  0.3278  0.3559 -0.2409
   16MOL   O142 8272   4.067   3.543   6.506  0.3872 -0.3200  0.1235
   16MOL   C143 8273   4.135   3.631   6.582  0.1219 -0.1396  0.2004
   16MOL   O144 8274   4.088   3.696   6.678 -0.1257  0.0349 -0.1618
   16MOL   C145 8275   4.278   3.644   6.542 -0.6710 -0.0782  0.2020
   16MOL   C146 8276   4.342   3.766   6.628  0.4200  0.5967  0.0164
   16MOL   C147 8277   4.276   3.665   6.385 -0.2390  0.3249 -0.7922
   16MOL   H148 8278   3.409   3.601   6.330 -0.0697  0.8513  1.2668
   16MOL   H149 8279   3.537   3.488   6.271  1.3468  0.8776 -1.5361
   16MOL   H150 8280   3.462   3.612   6.170 -0.4047 -1.1585  0.3958
   16MOL   H151 8281   3.577   3.784   6.339  1.2971  0.2295  2.6586
   16MOL   H152 8282   3.680   3.673   6.237  0.3629 -1.6940 -0.3223
   16MOL   H153 8283   3.650   3.663   6.544  1.2628  0.1381  0.6066
   16MOL   H154 8284   3.668   3.521   6.445  2.6247 -0.2429  1.0620
   16MOL   H155 8285   3.866   3.588   6.337  1.1708 -0.9972  0.2337
   16MOL   H156 8286   3.868   3.725   6.428  0.7462 -0.0362  2.7344
   16MOL   H157 8287   3.883   3.430   6.525 -2.9687  1.6782 -3.3981
   16MOL   H158 8288   3.899   3.555   6.635 -1.2162 -1.1506 -0.2059
   16MOL   H159 8289   4.301   3.769   6.729  1.2626  2.1579  0.3271
   16MOL   H160 8290   4.330   3.861   6.576  2.0340 -0.2657 -1.9942
   16MOL   H161 8291   4.448   3.744   6.645  0.8127  2.1677 -0.3947
   16MOL   H162 8292   4.229   3.574   6.349 -0.3264 -0.2379  0.7458
   16MOL   H163 8293   4.196   3.738   6.368  0.2848  1.2935  0.8595
   16MOL   C164 8294   4.242   3.102   5.982  0.4549  0.6082 -0.5558
   16MOL   C165 8295   4.339   3.217   5.982 -0.2512 -0.5263  0.5104
   16MOL   C166 8296   4.470   3.180   6.059  0.1446  0.2771 -0.5652
   16MOL   C167 8297   4.559   3.294   6.111  0.5886 -0.0791  0.4170
   16MOL   C168 8298   4.531   3.368   6.249  0.5352  0.6494  0.3418
   16MOL   O169 8299   4.455   3.487   6.238  0.7826  0.0698 -0.1633
   16MOL   C170 8300   4.500   3.600   6.284 -0.0603  0.0140  0.1058
   16MOL   O171 8301   4.617   3.620   6.317 -0.2807 -0.1776 -0.2197
   16MOL   C172 8302   4.392   3.713   6.295  0.5710 -0.0835  0.5232
   16MOL   C173 8303   4.443   3.850   6.350  0.4253  0.1111  0.1516
   16MOL   C174 8304   4.323   3.734   6.157  0.0933  0.1111 -0.3537
   16MOL   H175 8305   4.279   3.011   5.935 -1.5658 -0.2935 -0.4590
   16MOL   H176 8306   4.147   3.139   5.941 -0.5209 -0.1571  0.9825
   16MOL   H177 8307   4.226   3.072   6.085 -0.2919  1.6169 -0.3610
   16MOL   H178 8308   4.298   3.304   6.033  1.7007 -0.5878  2.2400
   16MOL   H179 8309   4.351   3.242   5.877  1.5110 -3.5434 -0.0667
   16MOL   H180 8310   4.440   3.128   6.149 -0.0900  1.3242 -0.0244
   16MOL   H181 8311   4.529   3.110   5.999 -1.2767  0.3937 -2.1339
   16MOL   H182 8312   4.552   3.365   6.029 -1.6021 -0.4318  0.2826
   16MOL   H183 8313   4.663   3.262   6.114  0.6903  0.0661 -1.1910
   16MOL   H184 8314   4.615   3.386   6.316 -0.6071  1.3447  1.5959
   16MOL   H185 8315   4.459   3.293   6.281  2.4438 -1.8904 -1.0819
   16MOL   H186 8316   4.361   3.916   6.379  0.6697  0.2594  0.5052
   16MOL   H187 8317   4.503   3.908   6.281 -1.2591  1.2525 -0.3989
   16MOL   H188 8318   4.506   3.840   6.438  1.6441  0.7516 -0.6328
   16MOL   H189 8319   4.272   3.638   6.152 -2.0684  1.1894  0.5600
   16MOL   H190 8320   4.243   3.805   6.177 -0.0623  0.1179 -0.9666
   16MOL   C191 8321   4.475   4.624   6.070 -0.5122  0.7285  0.2329
   16MOL   C192 8322   4.478   4.476   6.113  0.1344 -0.1985 -0.6485
   16MOL   C193 8323   4.388   4.384   6.028  0.3071 -0.4685 -0.0553
   16MOL   C194 8324   4.420   4.241   6.064 -0.2014  0.1716 -0.3721
   16MOL   C195 8325   4.316   4.142   6.015  0.2889  0.7633 -0.3026
   16MOL   O196 8326   4.349   4.010   6.046 -0.5474  0.1243 -0.2219
   16MOL   C197 8327   4.315   3.909   5.973  0.1453 -0.0656 -0.1323
   16MOL   O198 8328   4.237   3.911   5.879 -0.7316 -0.1628  0.3161
   16MOL   C199 8329   4.381   3.776   6.011  0.1752  1.0257  0.0528
   16MOL   C200 8330   4.349   3.661   5.921  0.0950 -0.1525 -0.2607
   16MOL   C201 8331   4.540   3.797   6.016  0.8826  0.4036 -0.1265
   16MOL   H202 8332   4.526   4.645   5.975  0.0513  1.2025  0.6377
   16MOL   H203 8333   4.373   4.661   6.081 -1.1141 -1.4254  2.2321
   16MOL   H204 8334   4.520   4.681   6.151 -0.1367 -0.5248  0.9153
   16MOL   H205 8335   4.459   4.468   6.220  1.3477 -0.3027 -0.4316
   16MOL   H206 8336   4.579   4.438   6.100  0.3047  0.2631 -0.6722
   16MOL   H207 8337   4.407   4.397   5.922 -1.2684 -0.8548 -0.4005
   16MOL   H208 8338   4.283   4.402   6.051  0.4946  1.6303 -0.7034
   16MOL   H209 8339   4.516   4.222   6.016  1.7386  0.5225  3.2125
   16MOL   H210 8340   4.436   4.231   6.171 -0.3288  4.2065  0.1150
   16MOL   H211 8341   4.219   4.162   6.061  0.2314 -2.3612  1.0850
   16MOL   H212 8342   4.329   4.153   5.907 -0.3095 -0.6190 -0.5334
   16MOL   H213 8343   4.241   3.648   5.929 -0.0111  0.6587 -0.2532
   16MOL   H214 8344   4.402   3.574   5.957 -0.2853 -1.2628 -2.3418
   16MOL   H215 8345   4.370   3.662   5.814  4.8868 -1.5326  0.5422
   16MOL   H216 8346   4.581   3.720   6.081 -0.7426 -0.3768 -0.0056
   16MOL   H217 8347   4.556   3.884   6.079  0.4809  1.2774 -1.2012
   16MOL   C218 8348   4.547   4.530   5.712  0.1675 -0.1160 -0.6213
   16MOL   C219 8349   4.549   4.405   5.626 -0.1890 -0.1780 -0.5449
   16MOL   C220 8350   4.509   4.274   5.697  0.9170  0.4275  0.0721
   16MOL   C221 8351   4.514   4.147   5.613 -0.1879 -0.4360  0.0759
   16MOL   C222 8352   4.446   4.024   5.659 -0.1976  0.2408 -0.6662
   16MOL   O223 8353   4.526   3.967   5.767 -0.2497 -1.0352  0.0366
   16MOL   C224 8354   4.566   3.846   5.764 -0.0058 -0.4963  0.3356
   16MOL   O225 8355   4.557   3.778   5.661 -0.2810 -0.0518  0.3777
   16MOL   C226 8356   4.636   3.790   5.889 -0.4378 -0.3374 -0.3550
   16MOL   C227 8357   4.676   3.641   5.868 -0.1281 -0.6808 -0.2022
   16MOL   C228 8358   4.759   3.882   5.924  0.0750 -0.5232 -0.0799
   16MOL   H229 8359   4.574   4.621   5.658 -0.9021 -1.7284 -4.0224
   16MOL   H230 8360   4.441   4.550   5.728  0.1130 -1.0751  0.2335
   16MOL   H231 8361   4.617   4.527   5.796  1.0348 -2.3662 -1.3705
   16MOL   H232 8362   4.654   4.404   5.597  0.5187 -1.9752  1.8403
   16MOL   H233 8363   4.497   4.430   5.534 -1.5963 -0.9226  0.0279
   16MOL   H234 8364   4.404   4.278   5.726  0.3055 -0.7365 -1.8752
   16MOL   H235 8365   4.574   4.267   5.785  0.5257 -0.9420  0.2774
   16MOL   H236 8366   4.475   4.175   5.515 -0.9618  1.0474  0.7923
   16MOL   H237 8367   4.612   4.111   5.580 -0.9566 -0.2682 -2.5515
   16MOL   H238 8368   4.448   3.956   5.574 -0.1893 -0.5623 -0.0324
   16MOL   H239 8369   4.343   4.049   5.684 -0.3328 -1.5173  0.6223
   16MOL   H240 8370   4.745   3.625   5.786  1.4605 -0.8865  1.1569
   16MOL   H241 8371   4.591   3.578   5.841 -1.0110  1.3464 -2.4270
   16MOL   H242 8372   4.735   3.612   5.955  0.6266 -0.4879 -0.6451
   16MOL   H243 8373   4.780   3.863   6.029  1.7406 -0.5393 -0.4016
   16MOL   H244 8374   4.714   3.981   5.920  0.5888 -0.3104 -0.5459
   16MOL   C245 8375   4.896   3.316   6.326  0.0198  0.5122 -0.3443
   16MOL   C246 8376   5.041   3.374   6.311  0.0610  0.2429 -0.5110
   16MOL   C247 8377   5.075   3.416   6.166  0.4626  0.0812  0.1656
   16MOL   C248 8378   4.995   3.535   6.104  0.8785 -0.8232 -0.0835
   16MOL   C249 8379   5.039   3.559   5.955 -0.2710 -0.4731 -0.4580
   16MOL   O250 8380   4.961   3.659   5.890  0.3738  0.2669  0.7253
   16MOL   C251 8381   4.998   3.794   5.916  0.1550  0.7811 -0.6590
   16MOL   O252 8382   5.087   3.829   5.988 -0.4759 -0.2834 -0.0671
   16MOL   C253 8383   4.898   3.892   5.858 -0.4004  0.4398 -0.4322
   16MOL   C254 8384   4.952   4.039   5.891  0.2219  0.3700 -0.3022
   16MOL   C255 8385   4.892   3.881   5.699  0.1270  0.0113  1.2473
   16MOL   H256 8386   4.889   3.241   6.248 -0.9198  1.6617 -1.3907
   16MOL   H257 8387   4.868   3.275   6.423 -0.3643 -3.0733 -1.8772
   16MOL   H258 8388   4.819   3.390   6.302 -0.9839 -1.5010 -3.7751
   16MOL   H259 8389   5.045   3.463   6.374  0.5294  0.2782 -0.5894
   16MOL   H260 8390   5.112   3.296   6.337 -0.9329 -0.2534  0.7546
   16MOL   H261 8391   5.062   3.328   6.103  0.5140 -0.9221  1.5320
   16MOL   H262 8392   5.180   3.444   6.162  0.7439 -1.1367 -0.9188
   16MOL   H263 8393   4.893   3.496   6.109  0.3882  0.5242  0.6337
   16MOL   H264 8394   5.008   3.618   6.173 -0.1289 -0.9059  0.2135
   16MOL   H265 8395   5.145   3.582   5.949 -0.3774  0.2075  0.2160
   16MOL   H266 8396   5.012   3.472   5.896  0.6427 -0.0565 -1.5038
   16MOL   H267 8397   4.964   4.054   5.998  1.9210 -1.3594 -0.2348
   16MOL   H268 8398   5.051   4.063   5.853  1.6175 -1.9841  1.7327
   16MOL   H269 8399   4.885   4.121   5.863  0.5687  1.2545  1.4208
   16MOL   H270 8400   4.856   3.780   5.678 -1.1801  0.5591  0.7972
   16MOL   H271 8401   4.812   3.949   5.670  0.1263 -0.6829 -0.4577
   16MOL   C272 8402   4.795   3.979   4.973 -0.3349 -0.0960  0.2311
   16MOL   C273 8403   4.732   4.070   5.082  0.5437 -0.2263  0.9640
   16MOL   C274 8404   4.840   4.104   5.179 -0.0403  0.7557  0.1457
   16MOL   C275 8405   4.793   4.202   5.291 -0.4993 -0.7431 -0.2089
   16MOL   C276 8406   4.891   4.203   5.416 -0.0145  0.2993 -0.0872
   16MOL   O277 8407   4.906   4.077   5.477  0.6585  0.0887 -0.4869
   16MOL   C278 8408   5.019   4.053   5.550 -0.1160 -0.3773 -0.5198
   16MOL   O279 8409   5.112   4.130   5.578  0.3136  0.3715 -0.3776
   16MOL   C280 8410   5.014   3.901   5.601  1.0055 -0.0741 -0.0486
   16MOL   C281 8411   5.150   3.862   5.665 -0.7004 -0.0922  0.0431
   16MOL   C282 8412   4.987   3.823   5.461  0.3465 -0.6864  0.6958
   16MOL   H283 8413   4.725   3.970   4.889 -1.0292  2.7412  0.4433
   16MOL   H284 8414   4.888   4.020   4.933  0.1771  0.2565  1.7463
   16MOL   H285 8415   4.829   3.878   4.997 -1.1272 -0.1799  1.0256
   16MOL   H286 8416   4.667   4.150   5.049  0.4678 -0.7923 -0.2825
   16MOL   H287 8417   4.654   4.016   5.136 -1.3123  0.1875 -1.2534
   16MOL   H288 8418   4.883   4.020   5.233  1.0206  1.3883  0.3024
   16MOL   H289 8419   4.924   4.147   5.125  1.8755 -0.3008  2.2246
   16MOL   H290 8420   4.765   4.297   5.246  1.3089 -0.7780 -1.4541
   16MOL   H291 8421   4.699   4.165   5.333 -0.7367  0.7266  0.5743
   16MOL   H292 8422   4.877   4.286   5.485 -0.9228 -0.3837  0.5541
   16MOL   H293 8423   4.990   4.218   5.373 -0.6446  0.1865 -1.6106
   16MOL   H294 8424   5.231   3.879   5.593 -1.3617  0.5062 -0.5729
   16MOL   H295 8425   5.191   3.934   5.735  2.3866 -0.0153 -1.6967
   16MOL   H296 8426   5.153   3.763   5.711  1.0738 -0.1833 -0.2333
   16MOL   H297 8427   4.881   3.838   5.440  1.0276  1.1341 -1.7021
   16MOL   H298 8428   5.041   3.880   5.386 -0.2797 -0.5120  0.3742
   16MOL   C299 8429   5.628   3.350   5.294  0.0777 -0.8621 -0.3741
   16MOL   C300 8430   5.606   3.496   5.256  0.6879  0.0242  0.8962
   16MOL   C301 8431   5.501   3.565   5.345 -0.6433 -0.2619  0.2099
   16MOL   C302 8432   5.488   3.722   5.328 -0.2128  0.3257  0.7263
   16MOL   C303 8433   5.368   3.786   5.406 -0.2725  0.4117  0.1021
   16MOL   O304 8434   5.245   3.739   5.373  0.2268  0.1022 -0.1810
   16MOL   C305 8435   5.177   3.658   5.447  0.0634  1.0259  0.1600
   16MOL   O306 8436   5.219   3.580   5.528  0.4952 -0.3960  0.6530
   16MOL   C307 8437   5.024   3.675   5.432 -0.2440 -1.1547 -0.0792
   16MOL   C308 8438   4.957   3.585   5.538 -0.3324 -0.1023 -0.3151
   16MOL   C309 8439   4.972   3.657   5.281 -0.1695 -0.2511 -0.2929
   16MOL   H310 8440   5.644   3.332   5.400 -2.7168 -1.8959 -0.0748
   16MOL   H311 8441   5.710   3.304   5.238  0.8116  2.2486 -1.9328
   16MOL   H312 8442   5.537   3.300   5.259 -2.7463  1.7910  2.8837
   16MOL   H313 8443   5.578   3.508   5.152  1.0106  1.5401  0.9646
   16MOL   H314 8444   5.704   3.540   5.273  1.2206 -0.1683 -1.4760
   16MOL   H315 8445   5.531   3.549   5.449 -0.7326  2.2316  0.6542
   16MOL   H316 8446   5.402   3.520   5.342 -1.2745  0.8628  2.4284
   16MOL   H317 8447   5.485   3.751   5.223 -0.1048 -0.5199  0.4832
   16MOL   H318 8448   5.581   3.772   5.356  0.6417 -2.1013  2.3623
   16MOL   H319 8449   5.387   3.787   5.513  2.8647 -0.6296 -0.3763
   16MOL   H320 8450   5.370   3.893   5.385 -1.1330  0.2546 -0.8293
   16MOL   H321 8451   4.989   3.481   5.536 -0.1941 -0.1513  2.7001
   16MOL   H322 8452   4.989   3.620   5.636  1.9565 -1.8502 -0.3962
   16MOL   H323 8453   4.848   3.579   5.541 -0.2348 -1.5487  0.5492
   16MOL   H324 8454   5.019   3.732   5.218  3.6892 -1.4894  1.0212
   16MOL   H325 8455   4.865   3.679   5.286 -1.0572 -3.5209 -3.3113
   16MOL   C326 8456   5.162   3.831   4.622 -0.2789  0.5104 -1.0232
   16MOL   C327 8457   5.238   3.744   4.723  0.1909 -0.2075 -0.0701
   16MOL   C328 8458   5.246   3.815   4.862 -0.2852  0.0310  0.2192
   16MOL   C329 8459   5.330   3.746   4.979 -0.0377  0.3057 -0.1258
   16MOL   C330 8460   5.291   3.605   5.013 -0.5018 -0.2636  0.6752
   16MOL   O331 8461   5.165   3.604   5.067  0.5754  0.6438 -0.1418
   16MOL   C332 8462   5.131   3.512   5.160  0.0344 -0.3475 -0.3093
   16MOL   O333 8463   5.210   3.430   5.209 -0.0652  0.4242  0.2474
   16MOL   C334 8464   4.976   3.525   5.200 -0.5932 -0.5250 -0.0713
   16MOL   C335 8465   4.935   3.401   5.282 -0.2421  0.7532 -1.0278
   16MOL   C336 8466   4.890   3.539   5.064  0.0615  0.5660  0.6600
   16MOL   H337 8467   5.146   3.765   4.537  2.4845 -0.8217 -0.5507
   16MOL   H338 8468   5.229   3.914   4.599  2.3008 -1.2340 -0.0399
   16MOL   H339 8469   5.066   3.870   4.656 -0.1140 -0.3080  0.4504
   16MOL   H340 8470   5.337   3.711   4.691  0.7320  0.1967  1.1639
   16MOL   H341 8471   5.172   3.658   4.726 -0.7016  0.4416 -0.8456
   16MOL   H342 8472   5.146   3.835   4.900 -0.5879  1.9850 -1.5359
   16MOL   H343 8473   5.286   3.916   4.856  3.6420 -1.3936  0.8017
   16MOL   H344 8474   5.321   3.821   5.058 -1.7228 -1.1700  1.1254
   16MOL   H345 8475   5.433   3.750   4.944 -0.0640  0.6704 -0.1702
   16MOL   H346 8476   5.367   3.563   5.079 -0.6828 -1.0499  0.3914
   16MOL   H347 8477   5.282   3.540   4.926 -1.0860 -1.8174  1.8823
   16MOL   H348 8478   5.005   3.385   5.364  0.6607  2.0990 -1.5131
   16MOL   H349 8479   4.922   3.307   5.228  0.4143  0.1564 -0.1530
   16MOL   H350 8480   4.833   3.414   5.315  0.2381  0.4281  0.6035
   16MOL   H351 8481   4.945   3.605   4.996 -1.8742 -0.2310 -1.7483
   16MOL   H352 8482   4.807   3.606   5.087  1.3406  3.0461 -1.5876
   16MOL   C353 8483   4.497   2.613   5.078  0.2478  0.1522 -0.5212
   16MOL   C354 8484   4.553   2.728   4.996  0.1865 -0.2637 -0.3996
   16MOL   C355 8485   4.573   2.862   5.069 -0.8552  0.6553 -0.0785
   16MOL   C356 8486   4.640   2.975   4.980  0.7017 -0.1627  0.2156
   16MOL   C357 8487   4.644   3.104   5.061 -0.0206 -0.4703 -0.1595
   16MOL   O358 8488   4.734   3.201   4.999  0.3510  0.3002  0.2197
   16MOL   C359 8489   4.747   3.325   5.046  0.3576 -0.4275 -0.6872
   16MOL   O360 8490   4.680   3.362   5.143 -0.1829 -0.0181  0.7891
   16MOL   C361 8491   4.852   3.416   4.973  0.6266 -0.0375  0.0457
   16MOL   C362 8492   4.982   3.329   4.949 -0.3073  0.2482  0.0206
   16MOL   C363 8493   4.815   3.460   4.827  0.3049 -0.1142  0.1076
   16MOL   H364 8494   4.576   2.570   5.139  0.1208  1.2484  0.4168
   16MOL   H365 8495   4.453   2.536   5.014 -2.0421  1.8153 -1.0472
   16MOL   H366 8496   4.430   2.651   5.155  0.3265 -0.2036 -0.2757
   16MOL   H367 8497   4.651   2.705   4.955 -0.5582 -1.5564 -1.4789
   16MOL   H368 8498   4.490   2.758   4.912 -0.2483  1.1087  0.3920
   16MOL   H369 8499   4.646   2.850   5.149 -2.0752  0.8380  1.0903
   16MOL   H370 8500   4.489   2.897   5.129  1.4329  2.1756  2.3617
   16MOL   H371 8501   4.597   2.993   4.881  1.4723  1.8117  0.2090
   16MOL   H372 8502   4.742   2.941   4.960 -0.1542 -2.8939  0.2929
   16MOL   H373 8503   4.553   3.150   5.099  0.9381  0.0658  1.5479
   16MOL   H374 8504   4.685   3.075   5.157  0.1399  0.0293 -0.0763
   16MOL   H375 8505   5.023   3.275   5.034  0.0311 -1.6490 -1.3120
   16MOL   H376 8506   4.968   3.248   4.877  1.1642 -0.5870  0.6534
   16MOL   H377 8507   5.068   3.388   4.918  1.7824 -0.4568  4.1717
   16MOL   H378 8508   4.898   3.526   4.803 -0.7856  0.6000 -1.7930
   16MOL   H379 8509   4.835   3.372   4.765  1.4833  0.4868 -0.3772
   16MOL   C380 8510   4.141   3.806   4.600 -0.2577 -0.7158  0.7616
   16MOL   C381 8511   4.134   3.676   4.522  0.8464  0.3869 -0.2730
   16MOL   C382 8512   4.236   3.581   4.562 -0.8285  0.2015 -0.2702
   16MOL   C383 8513   4.223   3.518   4.704 -0.2315 -0.1717  0.2521
   16MOL   C384 8514   4.338   3.419   4.728  0.5266 -0.0747 -0.1765
   16MOL   O385 8515   4.451   3.497   4.746 -0.3235  0.0627 -0.1550
   16MOL   C386 8516   4.568   3.434   4.772 -0.0049 -0.6974  0.1597
   16MOL   O387 8517   4.580   3.315   4.792  0.1986  0.0537  0.0520
   16MOL   C388 8518   4.683   3.535   4.781  0.5450  0.3327 -0.6972
   16MOL   C389 8519   4.640   3.638   4.892 -0.0671  0.1968 -0.0873
   16MOL   C390 8520   4.704   3.610   4.647  0.2478 -0.0934  0.4671
   16MOL   H391 8521   4.236   3.859   4.587 -0.2515 -1.2446 -1.5191
   16MOL   H392 8522   4.065   3.873   4.559  0.3703  2.1141  3.9608
   16MOL   H393 8523   4.123   3.776   4.703  1.9620  0.7247  1.6218
   16MOL   H394 8524   4.141   3.704   4.417 -2.3523  1.8864 -0.1636
   16MOL   H395 8525   4.035   3.630   4.530  0.7180  0.6781 -0.2051
   16MOL   H396 8526   4.225   3.503   4.487  0.7309  0.3773 -0.7080
   16MOL   H397 8527   4.332   3.632   4.552  0.7042 -1.8721  2.8364
   16MOL   H398 8528   4.242   3.596   4.778  1.7622  0.1188 -0.5489
   16MOL   H399 8529   4.128   3.470   4.731  0.2228  0.2380  2.7299
   16MOL   H400 8530   4.336   3.343   4.650  1.1948  0.3750 -0.6343
   16MOL   H401 8531   4.324   3.357   4.817  2.9505  0.4428  0.5898
   16MOL   H402 8532   4.605   3.581   4.978  1.1762  0.7085  0.7757
   16MOL   H403 8533   4.550   3.692   4.863 -1.1070 -0.7691  1.2672
   16MOL   H404 8534   4.717   3.713   4.908 -1.4481  1.7921 -0.7823
   16MOL   H405 8535   4.786   3.678   4.671 -0.1685  0.8895 -0.8459
   16MOL   H406 8536   4.625   3.683   4.631  0.3962 -0.3898 -1.7607
   16MOL   C407 8537   5.062   3.252   4.053 -0.5384  0.1387  0.8581
   16MOL   C408 8538   5.071   3.243   4.203  0.3140  0.0953 -0.0610
   16MOL   C409 8539   4.946   3.174   4.254  0.2135  0.7523 -0.2631
   16MOL   C410 8540   4.962   3.142   4.403 -0.0385  1.0216 -0.1913
   16MOL   C411 8541   4.994   3.263   4.491 -0.4604  0.0741  0.3910
   16MOL   O412 8542   4.873   3.341   4.487 -0.1375  0.2203  0.4463
   16MOL   C413 8543   4.875   3.473   4.512  0.4570 -0.1667  0.7591
   16MOL   O414 8544   4.978   3.536   4.543  0.2355 -0.1732 -0.4767
   16MOL   C415 8545   4.736   3.549   4.501 -0.5672  0.1802 -0.7978
   16MOL   C416 8546   4.626   3.443   4.457 -0.3168 -0.4072  0.0501
   16MOL   C417 8547   4.737   3.679   4.405 -0.4071 -0.5605 -0.3866
   16MOL   H418 8548   4.990   3.331   4.033  0.9914  1.5867  0.9512
   16MOL   H419 8549   5.159   3.268   4.006  0.0756  0.2087  2.1331
   16MOL   H420 8550   5.029   3.163   4.000 -2.7451  2.4634 -1.8985
   16MOL   H421 8551   5.080   3.349   4.226  0.8362 -0.0051  0.2124
   16MOL   H422 8552   5.158   3.187   4.236  1.6524  1.5496 -1.0606
   16MOL   H423 8553   4.855   3.232   4.236 -1.2250 -1.6864 -1.0001
   16MOL   H424 8554   4.919   3.085   4.197  1.9891  0.4339 -0.6258
   16MOL   H425 8555   5.045   3.072   4.407  0.1550  1.2208 -0.6375
   16MOL   H426 8556   4.885   3.080   4.448  1.3353 -1.4750 -1.2105
   16MOL   H427 8557   5.011   3.241   4.597  0.5773  2.1896  0.7021
   16MOL   H428 8558   5.089   3.307   4.462  0.6531 -2.4112  0.1108
   16MOL   H429 8559   4.525   3.482   4.461 -0.0954  0.5135 -2.3780
   16MOL   H430 8560   4.636   3.360   4.527 -0.4361  0.1472  0.7275
   16MOL   H431 8561   4.651   3.400   4.361  0.7611  0.5898 -0.1340
   16MOL   H432 8562   4.826   3.731   4.440 -0.7052 -1.7872  2.3046
   16MOL   H433 8563   4.651   3.744   4.420 -0.7631 -1.4399  1.5584
   16MOL   C434 8564   4.199   3.194   4.169  0.1745 -0.0358  0.4415
   16MOL   C435 8565   4.242   3.317   4.237 -0.3897 -0.8886 -0.1402
   16MOL   C436 8566   4.293   3.421   4.132 -0.2396  0.0351 -0.3330
   16MOL   C437 8567   4.313   3.565   4.190 -0.3002  0.0569  1.1465
   16MOL   C438 8568   4.403   3.651   4.112  0.7880  0.1578 -0.4404
   16MOL   O439 8569   4.519   3.692   4.175  0.3781 -0.2114 -0.0662
   16MOL   C440 8570   4.633   3.613   4.181 -0.0393 -0.5360  0.1872
   16MOL   O441 8571   4.636   3.495   4.148  0.5716 -0.5485 -0.1631
   16MOL   C442 8572   4.755   3.682   4.248  0.1369  0.1962  0.5776
   16MOL   C443 8573   4.875   3.588   4.219 -0.3720 -0.5794  0.5510
   16MOL   C444 8574   4.766   3.828   4.199 -0.0699 -0.0252  0.5776
   16MOL   H445 8575   4.118   3.218   4.099 -0.6175 -0.3126  1.2523
   16MOL   H446 8576   4.277   3.149   4.107  0.5819  0.8519  0.3042
   16MOL   H447 8577   4.155   3.125   4.241 -1.6520 -1.1014 -1.6147
   16MOL   H448 8578   4.164   3.359   4.300  0.2834  1.5899 -0.9101
   16MOL   H449 8579   4.330   3.298   4.300  0.1534 -0.9012 -0.8999
   16MOL   H450 8580   4.382   3.386   4.079  1.4424  3.5415  0.0762
   16MOL   H451 8581   4.214   3.437   4.059 -1.3238  1.4740  1.1171
   16MOL   H452 8582   4.352   3.550   4.291  0.4678 -0.3085  0.8015
   16MOL   H453 8583   4.218   3.618   4.189  0.7328  1.9781 -2.1680
   16MOL   H454 8584   4.369   3.752   4.092 -1.4973 -0.1612  1.5469
   16MOL   H455 8585   4.432   3.596   4.022  1.0819  0.3336 -0.4537
   16MOL   H456 8586   4.972   3.615   4.261 -0.8216  1.5019  0.3227
   16MOL   H457 8587   4.859   3.482   4.238 -0.1754 -1.0453 -1.6792
   16MOL   H458 8588   4.896   3.584   4.112  0.0022  0.7648  0.5592
   16MOL   H459 8589   4.683   3.885   4.241  1.5360  1.9418  1.1953
   16MOL   H460 8590   4.741   3.821   4.094  0.4096  1.8325  0.3139
   16MOL   C461 8591   4.739   3.421   3.648 -0.3000  0.5250 -0.3067
   16MOL   C462 8592   4.845   3.538   3.654 -0.0109 -0.4623 -0.1135
   16MOL   C463 8593   4.886   3.581   3.797 -0.0106  0.1697  0.2407
   16MOL   C464 8594   4.955   3.719   3.785 -0.2457  0.0984 -0.3362
   16MOL   C465 8595   5.037   3.753   3.906  0.4026  0.4983  0.2680
   16MOL   O466 8596   4.956   3.794   4.011 -0.5085  0.0357 -0.0379
   16MOL   C467 8597   5.008   3.863   4.108  0.0827  0.0774 -0.4482
   16MOL   O468 8598   5.126   3.892   4.132 -0.2581 -0.6055 -0.1125
   16MOL   C469 8599   4.898   3.915   4.209 -0.5139 -0.7194  0.4914
   16MOL   C470 8600   4.978   3.910   4.345 -0.7403  0.2580 -0.4774
   16MOL   C471 8601   4.866   4.071   4.185  0.1613 -0.3649  0.1920
   16MOL   H472 8602   4.650   3.433   3.711 -0.5833 -2.6700 -0.0142
   16MOL   H473 8603   4.793   3.338   3.693 -0.3664  0.1626 -0.8905
   16MOL   H474 8604   4.702   3.395   3.549  0.6424 -0.4285 -0.4098
   16MOL   H475 8605   4.801   3.624   3.604 -0.6847 -0.6848  0.0927
   16MOL   H476 8606   4.938   3.511   3.604  0.6377 -0.1503  0.9097
   16MOL   H477 8607   4.967   3.522   3.840  0.9001  1.2803  0.0973
   16MOL   H478 8608   4.795   3.598   3.855 -0.9990  0.5488 -1.3867
   16MOL   H479 8609   4.881   3.800   3.787  1.5423  1.7591  1.9412
   16MOL   H480 8610   5.002   3.746   3.691  0.9598  2.4692  0.8814
   16MOL   H481 8611   5.087   3.664   3.944  1.5423  1.6053  1.4060
   16MOL   H482 8612   5.120   3.820   3.884  1.8873 -1.1860  0.6566
   16MOL   H483 8613   5.011   3.807   4.362  2.3292  1.3466  0.3891
   16MOL   H484 8614   4.924   3.931   4.437  2.0986  2.3927  0.7913
   16MOL   H485 8615   5.062   3.979   4.351 -0.3664  0.1856 -4.0423
   16MOL   H486 8616   4.960   4.125   4.171  0.2549 -0.2650  1.1726
   16MOL   H487 8617   4.838   4.115   4.281  3.7885  1.4190  0.5378
   16MOL   C488 8618   4.473   4.012   4.724  0.0942  0.6117  0.2102
   16MOL   C489 8619   4.425   4.107   4.614 -0.0721 -0.6501 -0.0848
   16MOL   C490 8620   4.457   4.055   4.475 -0.3202  0.3366  0.3264
   16MOL   C491 8621   4.406   4.151   4.367 -0.0966  0.4225  0.0600
   16MOL   C492 8622   4.441   4.096   4.224 -0.3006  0.4932 -0.1055
   16MOL   O493 8623   4.578   4.124   4.204  0.3591  1.1875 -0.3585
   16MOL   C494 8624   4.630   4.097   4.077  0.6760  0.3656  0.1918
   16MOL   O495 8625   4.566   4.056   3.980 -0.0316  0.1842  0.3901
   16MOL   C496 8626   4.779   4.131   4.064  0.0293 -0.1589  0.1342
   16MOL   C497 8627   4.837   4.070   3.931  0.0924  0.7514 -0.4235
   16MOL   C498 8628   4.802   4.287   4.053 -0.6287 -0.0601 -0.0182
   16MOL   H499 8629   4.399   3.932   4.733  0.8480 -0.4491 -2.7709
   16MOL   H500 8630   4.572   3.969   4.709 -0.0180 -0.4060  2.1618
   16MOL   H501 8631   4.478   4.068   4.818 -3.7278  2.1374 -0.3972
   16MOL   H502 8632   4.465   4.206   4.635 -3.4946  0.5622  1.0807
   16MOL   H503 8633   4.321   4.136   4.630 -0.5888 -3.2695  1.7483
   16MOL   H504 8634   4.566   4.063   4.477 -0.3583  0.7395  1.3901
   16MOL   H505 8635   4.429   3.951   4.461  0.8639 -0.2910  2.3832
   16MOL   H506 8636   4.430   4.256   4.383  3.5572 -0.4729  1.0195
   16MOL   H507 8637   4.298   4.152   4.383 -0.0694 -1.7301  0.5424
   16MOL   H508 8638   4.420   3.992   4.203  0.9151  0.5546 -1.6848
   16MOL   H509 8639   4.389   4.153   4.148 -0.4152  2.6430  1.5167
   16MOL   H510 8640   4.781   4.116   3.850  1.7829  1.0415 -1.4612
   16MOL   H511 8641   4.816   3.963   3.923  0.5152  0.5732  0.7332
   16MOL   H512 8642   4.944   4.091   3.919  0.2118  1.0121  1.0061
   16MOL   H513 8643   4.903   4.301   4.015 -1.8043 -1.5866 -3.9066
   16MOL   H514 8644   4.824   4.339   4.147 -1.6043  0.9379 -0.3276
   16MOL   C515 8645   4.909   5.051   4.520  0.4619  0.1172  0.4205
   16MOL   C516 8646   4.808   4.967   4.436  0.3250 -0.6212 -0.0742
   16MOL   C517 8647   4.880   4.881   4.320  0.4240 -0.0669 -0.3984
   16MOL   C518 8648   4.780   4.779   4.249  0.4599  0.4904 -0.1854
   16MOL   C519 8649   4.854   4.686   4.149  0.1274 -0.6150  0.2511
   16MOL   O520 8650   4.778   4.572   4.110  0.1924 -0.2092 -0.0207
   16MOL   C521 8651   4.772   4.533   3.980 -0.5341  0.4624 -0.3724
   16MOL   O522 8652   4.799   4.596   3.877 -0.1359 -0.1056 -0.0302
   16MOL   C523 8653   4.710   4.384   3.972 -0.2374 -0.1079 -0.8463
   16MOL   C524 8654   4.564   4.393   4.037 -0.0374 -0.4557 -0.1270
   16MOL   C525 8655   4.704   4.346   3.815  0.1747  0.5584  0.3889
   16MOL   H526 8656   4.858   5.140   4.559 -2.4902 -0.7518 -1.2926
   16MOL   H527 8657   4.942   4.998   4.610 -0.7581 -0.5687  0.4667
   16MOL   H528 8658   5.001   5.083   4.472  0.5101 -1.6075 -0.6860
   16MOL   H529 8659   4.735   4.911   4.494 -0.2507 -0.3214 -0.5028
   16MOL   H530 8660   4.734   5.037   4.397  0.4700  0.4357  1.5143
   16MOL   H531 8661   4.917   4.953   4.246  1.9511 -0.2264  0.1805
   16MOL   H532 8662   4.966   4.828   4.361 -0.2997 -0.3208  0.8125
   16MOL   H533 8663   4.709   4.833   4.188 -0.1604 -0.9677 -0.7643
   16MOL   H534 8664   4.742   4.727   4.338 -1.1597 -1.9635 -2.2467
   16MOL   H535 8665   4.896   4.723   4.055 -2.2157 -0.3975 -0.7333
   16MOL   H536 8666   4.941   4.636   4.192 -1.3332 -2.3011  1.3147
   16MOL   H537 8667   4.505   4.478   4.001  1.3027 -0.1473 -1.6861
   16MOL   H538 8668   4.566   4.404   4.145  0.9683  1.7681 -0.3343
   16MOL   H539 8669   4.490   4.319   4.008 -0.0893  0.0294 -1.2840
   16MOL   H540 8670   4.800   4.315   3.775 -1.6017 -1.9652 -2.1930
   16MOL   H541 8671   4.666   4.428   3.754 -2.0074 -0.3571  0.4700
   16MOL   H542 8672   4.641   4.258   3.806  0.4676  0.3544  0.3347
   17MOL     C1 8673   5.134   3.739   2.425 -0.5999 -0.1399  0.5948
   17MOL     C2 8674   5.213   3.608   2.388  0.0265  0.5226  0.4797
   17MOL     C3 8675   5.185   3.557   2.247  0.1759 -0.3830 -1.0866
   17MOL     C4 8676   5.233   3.418   2.220  0.3892 -0.4674 -0.2540
   17MOL     C5 8677   5.221   3.362   2.078 -0.6309  0.5080  0.6866
   17MOL     O6 8678   5.289   3.231   2.068  0.8816 -0.6603 -0.1917
   17MOL     C7 8679   5.214   3.116   2.094 -0.2964 -0.1644 -0.5275
   17MOL     O8 8680   5.094   3.111   2.109 -0.1349  0.4714 -0.3225
   17MOL     C9 8681   5.305   2.996   2.087  0.1002  0.2681  0.6728
   17MOL    C10 8682   5.408   2.993   2.206 -0.1994 -0.0078  0.0607
   17MOL    C11 8683   5.374   2.976   1.950 -0.8510 -0.5531 -0.4253
   17MOL    H12 8684   5.059   3.717   2.500 -1.9506  0.8652 -0.4278
   17MOL    H13 8685   5.088   3.793   2.341  1.1863  2.5607  1.2786
   17MOL    H14 8686   5.204   3.817   2.453 -1.4026  0.8623 -0.1184
   17MOL    H15 8687   5.319   3.632   2.395  0.3747 -0.4699 -1.0567
   17MOL    H16 8688   5.188   3.525   2.453  0.8916  0.1766  0.3719
   17MOL    H17 8689   5.077   3.565   2.234  0.0803  0.5236  0.1733
   17MOL    H18 8690   5.230   3.620   2.170 -0.1479 -0.5876 -1.4448
   17MOL    H19 8691   5.178   3.344   2.277  2.0912 -2.3142 -0.9285
   17MOL    H20 8692   5.338   3.414   2.252  0.2357  0.3471  0.3786
   17MOL    H21 8693   5.117   3.360   2.044 -0.1592 -0.0371 -0.7561
   17MOL    H22 8694   5.261   3.440   2.014  0.6958  0.0463  0.9303
   17MOL    H23 8695   5.450   2.895   2.226 -0.8765  0.0338  1.7961
   17MOL    H24 8696   5.348   3.005   2.297 -0.0515  0.1974  0.1341
   17MOL    H25 8697   5.487   3.068   2.197 -0.3193 -0.0120 -1.0767
   17MOL    H26 8698   5.474   2.953   1.986 -0.8807 -0.2276 -0.1332
   17MOL    H27 8699   5.393   3.074   1.906  2.6449  0.0933  2.3622
   17MOL    H28 8700   5.240   2.911   2.104  0.0478  0.2948  0.6092
   17MOL    C29 8701   5.609   2.275   2.356 -0.3612 -0.1740  0.0775
   17MOL    C30 8702   5.545   2.400   2.300 -0.4201 -0.4731 -0.1433
   17MOL    C31 8703   5.561   2.420   2.149 -0.2542  0.7361 -0.0334
   17MOL    C32 8704   5.501   2.549   2.102  1.0254  0.4877 -0.0163
   17MOL    C33 8705   5.456   2.536   1.953 -0.0447  1.7746  0.2291
   17MOL    O34 8706   5.444   2.663   1.894  0.7489  0.4228 -0.2662
   17MOL    C35 8707   5.324   2.730   1.908  0.2618 -0.1584 -0.5190
   17MOL    O36 8708   5.226   2.691   1.968 -0.0100  0.2276 -0.5722
   17MOL    C37 8709   5.332   2.875   1.841 -0.3691 -0.3218  0.3403
   17MOL    C38 8710   5.437   2.884   1.733  0.1179 -0.6959 -0.0891
   17MOL    C39 8711   5.192   2.924   1.776  0.2918 -0.3291 -0.0430
   17MOL    H40 8712   5.709   2.267   2.314 -0.1069  1.6846  0.2843
   17MOL    H41 8713   5.616   2.284   2.465 -0.2396  1.9911 -0.0869
   17MOL    H42 8714   5.540   2.192   2.340 -1.5603  0.6143  1.0698
   17MOL    H43 8715   5.596   2.484   2.347 -1.8110  0.0852  0.3657
   17MOL    H44 8716   5.439   2.399   2.321 -0.5843 -0.3569 -0.9441
   17MOL    H45 8717   5.500   2.341   2.105 -2.0244  1.3553  1.2524
   17MOL    H46 8718   5.663   2.406   2.113  0.3463 -1.1504  2.2609
   17MOL    H47 8719   5.421   2.583   2.168  0.4645 -0.3604 -0.2553
   17MOL    H48 8720   5.579   2.626   2.101  0.1604  1.3975  0.9212
   17MOL    H49 8721   5.367   2.473   1.944  0.2462  1.2547  0.9448
   17MOL    H50 8722   5.530   2.489   1.889 -0.4268 -2.1619  2.4982
   17MOL    H51 8723   5.538   2.881   1.773 -0.0062 -2.6520  0.0977
   17MOL    H52 8724   5.438   2.984   1.689 -0.2658 -0.5964  0.1224
   17MOL    H53 8725   5.435   2.805   1.658  0.5853  0.2159 -1.0756
   17MOL    H54 8726   5.200   3.028   1.747 -0.7248 -0.8151 -2.1928
   17MOL    H55 8727   5.127   2.925   1.863  0.6287 -1.2967  0.2265
   17MOL    C56 8728   5.643   3.188   1.616 -0.6620  0.7159  0.2350
   17MOL    C57 8729   5.528   3.282   1.572  0.3064  0.2277 -0.3240
   17MOL    C58 8730   5.400   3.216   1.529  0.1387 -0.2711  0.0139
   17MOL    C59 8731   5.419   3.100   1.429  0.2611  0.0763 -0.1391
   17MOL    C60 8732   5.285   3.051   1.368 -0.3706  0.0180 -0.2079
   17MOL    O61 8733   5.194   3.008   1.472 -0.2405 -0.2523 -0.2962
   17MOL    C62 8734   5.194   2.878   1.516  0.0725 -0.7188 -0.7207
   17MOL    O63 8735   5.263   2.784   1.467  0.0603  0.0675  0.1119
   17MOL    C64 8736   5.111   2.860   1.653  0.0283 -0.0552  0.8360
   17MOL    C65 8737   4.982   2.937   1.645 -0.2224  0.3282 -0.3143
   17MOL    C66 8738   5.083   2.704   1.683  0.5756 -0.2661 -0.5725
   17MOL    H67 8739   5.722   3.258   1.646  0.1273 -0.5054  1.0734
   17MOL    H68 8740   5.691   3.126   1.540  0.3789  0.4966  1.0555
   17MOL    H69 8741   5.612   3.125   1.700 -2.4321  1.0405 -0.1656
   17MOL    H70 8742   5.517   3.356   1.651  1.4286 -1.6489  1.6669
   17MOL    H71 8743   5.571   3.329   1.484  1.7707 -1.4983 -0.5805
   17MOL    H72 8744   5.331   3.192   1.610 -0.0810 -1.0264 -0.3837
   17MOL    H73 8745   5.349   3.295   1.474 -3.0023 -0.8626  1.9624
   17MOL    H74 8746   5.479   3.018   1.468  0.4915 -0.2844 -1.2251
   17MOL    H75 8747   5.475   3.122   1.338  0.9496 -1.3763 -0.0710
   17MOL    H76 8748   5.241   3.133   1.311 -0.9085 -0.4983 -0.5434
   17MOL    H77 8749   5.296   2.971   1.295  0.1435  0.7175 -0.9041
   17MOL    H78 8750   4.929   2.911   1.737  0.9159 -1.2933 -0.0967
   17MOL    H79 8751   4.906   2.922   1.568  1.3463  0.0403 -1.8382
   17MOL    H80 8752   4.984   3.045   1.659  0.5138  0.6527 -2.7428
   17MOL    H81 8753   5.059   2.691   1.788  1.9877  0.4955 -0.1407
   17MOL    H82 8754   5.182   2.658   1.681  1.4434  1.4404  0.9938
   17MOL    C83 8755   4.574   2.853   2.197  0.2472  0.0694  0.3589
   17MOL    C84 8756   4.714   2.814   2.165  0.3776 -0.2980 -0.1456
   17MOL    C85 8757   4.725   2.785   2.013  0.2936  0.5414 -1.3321
   17MOL    C86 8758   4.685   2.641   1.974  0.3688  0.3676 -0.0422
   17MOL    C87 8759   4.676   2.634   1.824  0.0172  0.3958 -0.1787
   17MOL    O88 8760   4.809   2.631   1.768  0.8630 -0.2816 -0.0594
   17MOL    C89 8761   4.837   2.632   1.635 -0.1212  0.1269 -0.1172
   17MOL    O90 8762   4.745   2.651   1.550 -0.2151 -0.5703  0.7418
   17MOL    C91 8763   4.990   2.608   1.598  0.5727  1.2169  1.0757
   17MOL    C92 8764   5.009   2.625   1.445  0.7718 -0.6627  0.1773
   17MOL    C93 8765   5.026   2.458   1.646 -0.6887 -0.7219 -0.0761
   17MOL    H94 8766   4.497   2.784   2.162 -0.7052  0.8471  0.8803
   17MOL    H95 8767   4.558   2.863   2.305 -3.9507  2.5517 -0.3830
   17MOL    H96 8768   4.549   2.948   2.151  2.9246  0.0189 -1.2752
   17MOL    H97 8769   4.750   2.722   2.211 -0.4910  0.2793  1.7541
   17MOL    H98 8770   4.783   2.895   2.187 -0.5934  0.4877  0.0615
   17MOL    H99 8771   4.829   2.802   1.987  0.3308 -0.5834 -1.9661
   17MOL   H100 8772   4.661   2.852   1.955  0.0377  0.1309 -1.5309
   17MOL   H101 8773   4.583   2.624   2.007 -0.1575  0.5975 -1.5141
   17MOL   H102 8774   4.736   2.553   2.015 -1.1688 -0.7750 -0.5258
   17MOL   H103 8775   4.622   2.724   1.795  0.5039  1.4937  2.1421
   17MOL   H104 8776   4.614   2.547   1.803  0.4926 -0.1661  0.7130
   17MOL   H105 8777   5.006   2.727   1.405 -0.7884 -0.3844  0.9618
   17MOL   H106 8778   4.928   2.573   1.392  0.1756 -0.5814  1.0007
   17MOL   H107 8779   5.106   2.594   1.408  0.4565 -0.1428 -1.1114
   17MOL   H108 8780   5.135   2.450   1.644 -0.8053 -2.2684 -1.4685
   17MOL   H109 8781   5.007   2.460   1.754 -1.4332  1.6910 -0.2372
   17MOL   C110 8782   5.459   2.378   0.875  0.0425 -0.9486  0.5205
   17MOL   C111 8783   5.366   2.445   0.976 -0.2276  0.1050 -0.2066
   17MOL   C112 8784   5.362   2.352   1.104 -0.5989 -0.1204 -0.1322
   17MOL   C113 8785   5.266   2.385   1.226 -0.2073 -0.6138 -0.4517
   17MOL   C114 8786   5.235   2.268   1.322  0.0511  0.3799 -0.2609
   17MOL   O115 8787   5.162   2.305   1.440 -0.5663 -0.0934  0.3068
   17MOL   C116 8788   5.028   2.298   1.439  0.8085 -0.6562 -0.6363
   17MOL   O117 8789   4.961   2.275   1.342 -0.1194 -0.2738  0.5322
   17MOL   C118 8790   4.972   2.323   1.587  0.0397  0.2823  0.0100
   17MOL   C119 8791   4.817   2.321   1.596  0.2273  0.2814 -0.1734
   17MOL   C120 8792   5.018   2.199   1.682  0.6337  0.4695 -0.4430
   17MOL   H121 8793   5.548   2.327   0.912  0.7869 -0.3142 -0.3818
   17MOL   H122 8794   5.407   2.293   0.834 -1.1824  0.4851 -0.9428
   17MOL   H123 8795   5.482   2.444   0.791 -0.7537  0.0644  1.0811
   17MOL   H124 8796   5.412   2.537   1.014  0.8239 -0.8990  1.0263
   17MOL   H125 8797   5.267   2.464   0.936 -0.1144  0.4260 -0.3359
   17MOL   H126 8798   5.341   2.252   1.066 -0.7090  0.3757 -1.4172
   17MOL   H127 8799   5.465   2.347   1.140  0.3843  2.3012 -2.4300
   17MOL   H128 8800   5.167   2.411   1.188  0.5910  1.3344 -1.2937
   17MOL   H129 8801   5.312   2.471   1.274 -3.7237  1.2092 -0.1705
   17MOL   H130 8802   5.178   2.192   1.269  0.3915  0.4850 -0.7830
   17MOL   H131 8803   5.329   2.227   1.358 -1.8866 -1.6408  2.7763
   17MOL   H132 8804   4.768   2.224   1.588 -2.2979  1.5091 -0.1686
   17MOL   H133 8805   4.790   2.356   1.696 -2.4754  0.1070 -0.7923
   17MOL   H134 8806   4.762   2.382   1.525  0.3839  0.7679  0.1229
   17MOL   H135 8807   4.976   2.229   1.778  2.7342  0.9483  0.3633
   17MOL   H136 8808   4.959   2.111   1.657  0.6639  0.1352  0.6344
   17MOL   C137 8809   4.716   2.002   1.259 -0.0172  0.2934  0.1928
   17MOL   C138 8810   4.836   1.903   1.230 -1.0283 -0.1888 -0.4217
   17MOL   C139 8811   4.964   1.954   1.306  0.6702 -0.0911 -0.3812
   17MOL   C140 8812   5.058   1.841   1.352 -0.5839  0.2401  0.3614
   17MOL   C141 8813   5.182   1.902   1.426 -0.0966 -0.0527 -0.4359
   17MOL   O142 8814   5.142   1.974   1.541  0.2997 -0.6729 -0.2604
   17MOL   C143 8815   5.226   2.063   1.594  0.0701  0.1875 -1.2769
   17MOL   O144 8816   5.342   2.085   1.556  0.1014  0.2636  0.0606
   17MOL   C145 8817   5.162   2.142   1.718 -0.0206 -0.0544 -0.2804
   17MOL   C146 8818   5.267   2.251   1.752  0.2457 -1.1724 -0.7121
   17MOL   C147 8819   5.166   2.036   1.833 -0.1581  0.4636  0.0318
   17MOL   H148 8820   4.692   2.015   1.365 -1.1410  0.0677 -0.0265
   17MOL   H149 8821   4.631   1.968   1.201  0.5868  0.2135 -0.6599
   17MOL   H150 8822   4.738   2.103   1.225 -0.1471  0.3425  0.2578
   17MOL   H151 8823   4.851   1.887   1.124  0.4690  0.7286 -0.3754
   17MOL   H152 8824   4.818   1.799   1.257 -0.7474  0.1436  1.0956
   17MOL   H153 8825   5.011   2.038   1.255 -2.8819  1.1434 -1.7701
   17MOL   H154 8826   4.923   2.004   1.393 -1.8520 -0.1747 -1.4935
   17MOL   H155 8827   5.003   1.786   1.428  0.2193  0.2302  0.9479
   17MOL   H156 8828   5.077   1.771   1.270 -2.6174  0.4220 -0.2981
   17MOL   H157 8829   5.231   1.954   1.343  1.1666  0.6247  0.7175
   17MOL   H158 8830   5.263   1.834   1.453  1.8112  2.9009  1.5656
   17MOL   H159 8831   5.353   2.211   1.805  1.1257  1.5774  0.0104
   17MOL   H160 8832   5.225   2.319   1.826  0.8655 -1.3442 -0.1956
   17MOL   H161 8833   5.311   2.295   1.663  0.1560 -1.9226 -1.1248
   17MOL   H162 8834   5.111   1.947   1.802  0.2315 -0.5432  2.1619
   17MOL   H163 8835   5.272   2.012   1.835 -0.5707 -2.1780 -4.0705
   17MOL   C164 8836   4.438   2.392   2.388  0.8039 -0.3061  0.3366
   17MOL   C165 8837   4.586   2.378   2.370  0.8053 -0.3920  0.3435
   17MOL   C166 8838   4.623   2.245   2.294 -0.0439  0.5610 -0.2780
   17MOL   C167 8839   4.768   2.240   2.237 -0.1334 -0.0145 -0.3457
   17MOL   C168 8840   4.796   2.111   2.158 -0.1485 -0.6392  0.2891
   17MOL   O169 8841   4.934   2.118   2.118 -0.4141 -0.4336 -0.0710
   17MOL   C170 8842   4.969   2.074   1.999  0.3898 -0.4384  0.0226
   17MOL   O171 8843   4.887   2.025   1.921 -0.4916  0.2430 -0.4851
   17MOL   C172 8844   5.123   2.075   1.978 -0.1333 -0.3226 -0.0004
   17MOL   C173 8845   5.187   2.202   2.038 -0.0966  0.0244  0.1192
   17MOL   C174 8846   5.183   1.961   2.075  0.4591  0.1660 -0.9371
   17MOL   H175 8847   4.382   2.407   2.296  1.0144  1.2104  0.4396
   17MOL   H176 8848   4.401   2.463   2.463  1.9124  0.1752  0.4437
   17MOL   H177 8849   4.394   2.300   2.425 -1.1678  0.6124  0.3115
   17MOL   H178 8850   4.643   2.377   2.463  2.9313 -1.9128 -0.9352
   17MOL   H179 8851   4.629   2.463   2.317 -0.6333 -0.4946 -1.0021
   17MOL   H180 8852   4.604   2.159   2.358  2.0391  0.0035 -0.3876
   17MOL   H181 8853   4.554   2.233   2.211 -0.9445  0.9067  0.4102
   17MOL   H182 8854   4.834   2.255   2.322 -0.0306  1.2801 -0.6479
   17MOL   H183 8855   4.787   2.323   2.170  1.2696  1.2443  1.5670
   17MOL   H184 8856   4.734   2.097   2.069  0.8670 -1.4518 -0.3055
   17MOL   H185 8857   4.792   2.019   2.216 -1.1008 -0.4790  0.4952
   17MOL   H186 8858   5.293   2.216   2.020 -0.2706  1.3126  0.0618
   17MOL   H187 8859   5.187   2.208   2.147 -0.1699 -1.2087  0.1974
   17MOL   H188 8860   5.131   2.289   2.005  0.4470  0.3352  0.0231
   17MOL   H189 8861   5.286   1.996   2.081  0.9004 -1.1200 -0.7845
   17MOL   H190 8862   5.164   1.992   2.177  2.1043  0.4804 -0.7074
   17MOL   C191 8863   5.806   1.835   1.477 -0.8158 -0.5081 -0.2405
   17MOL   C192 8864   5.717   1.886   1.588  0.0321  0.4483 -0.1088
   17MOL   C193 8865   5.628   1.770   1.644 -0.1669 -0.3796  0.0903
   17MOL   C194 8866   5.541   1.828   1.757 -0.3276  0.0928 -0.2311
   17MOL   C195 8867   5.423   1.736   1.793  0.4043  0.7367  0.3236
   17MOL   O196 8868   5.356   1.791   1.902  0.4959  0.4760  0.2300
   17MOL   C197 8869   5.235   1.737   1.937  0.2042 -0.0289  0.0012
   17MOL   O198 8870   5.184   1.637   1.889  0.2687  0.0206  0.0839
   17MOL   C199 8871   5.163   1.800   2.061  0.0178  0.2102  0.1151
   17MOL   C200 8872   5.008   1.764   2.049  0.1231  0.1775 -0.9075
   17MOL   C201 8873   5.211   1.719   2.189 -0.5611 -0.5244 -0.4592
   17MOL   H202 8874   5.892   1.776   1.508 -0.3266 -0.5422 -1.6154
   17MOL   H203 8875   5.748   1.772   1.409  1.2024  1.5037 -4.0154
   17MOL   H204 8876   5.845   1.922   1.425 -3.1051  1.3332  1.0359
   17MOL   H205 8877   5.647   1.955   1.541 -0.8962 -0.7214 -0.4911
   17MOL   H206 8878   5.770   1.949   1.660  0.4339 -1.7556  1.5777
   17MOL   H207 8879   5.683   1.688   1.692 -0.2616  0.3590  1.4697
   17MOL   H208 8880   5.565   1.722   1.570  0.6129 -2.0609  0.4799
   17MOL   H209 8881   5.609   1.841   1.840 -1.3906 -0.7680  0.7896
   17MOL   H210 8882   5.505   1.928   1.734 -0.5493 -0.1253 -0.8664
   17MOL   H211 8883   5.351   1.723   1.712 -1.4042  0.0700  2.0073
   17MOL   H212 8884   5.467   1.644   1.832  0.4261  0.3127 -0.6761
   17MOL   H213 8885   4.977   1.659   2.047 -0.8589  0.4621 -0.8187
   17MOL   H214 8886   4.964   1.804   1.958 -2.1456 -1.9446 -0.8158
   17MOL   H215 8887   4.949   1.801   2.133 -0.5406 -1.4425 -0.6314
   17MOL   H216 8888   5.221   1.616   2.154  3.4914 -0.3929  0.0134
   17MOL   H217 8889   5.122   1.731   2.251  1.0412  0.6097  1.6995
   17MOL   C218 8890   4.807   2.236   2.677 -0.2948  0.2077 -0.0251
   17MOL   C219 8891   4.858   2.115   2.607  0.5120  0.0664 -0.1767
   17MOL   C220 8892   5.003   2.113   2.590 -0.0839 -0.7187 -0.3115
   17MOL   C221 8893   5.036   1.988   2.517  0.6147 -0.4931 -0.0693
   17MOL   C222 8894   5.187   2.008   2.483  0.0932 -0.0128  0.0796
   17MOL   O223 8895   5.212   1.892   2.403 -0.8120 -0.7001 -1.0968
   17MOL   C224 8896   5.333   1.878   2.353 -0.1923 -0.0825 -0.3770
   17MOL   O225 8897   5.436   1.939   2.391  0.3105 -0.4000 -0.2370
   17MOL   C226 8898   5.342   1.750   2.269  0.1186 -0.5950 -0.7554
   17MOL   C227 8899   5.457   1.766   2.169  0.0717  0.6957 -0.1644
   17MOL   C228 8900   5.375   1.629   2.361  0.4384 -0.2361  0.8366
   17MOL   H229 8901   4.797   2.328   2.618 -1.4121 -0.3535 -0.7257
   17MOL   H230 8902   4.706   2.224   2.714  0.2581  0.2289  1.5134
   17MOL   H231 8903   4.871   2.258   2.762 -1.5072 -1.9106  1.4739
   17MOL   H232 8904   4.803   2.083   2.519  1.2781 -0.7443 -0.3742
   17MOL   H233 8905   4.835   2.036   2.678 -0.1326 -1.2421 -1.8282
   17MOL   H234 8906   5.044   2.116   2.691  1.2478  3.6367 -0.8699
   17MOL   H235 8907   5.046   2.202   2.543  1.1804 -1.5592 -0.7530
   17MOL   H236 8908   5.018   1.905   2.585  1.3517 -0.6788 -0.0939
   17MOL   H237 8909   4.974   1.967   2.430 -0.0912 -1.3724  0.6407
   17MOL   H238 8910   5.245   2.005   2.575 -1.5554 -2.1921  1.1021
   17MOL   H239 8911   5.214   2.096   2.426  0.5346  0.3696  0.8724
   17MOL   H240 8912   5.440   1.854   2.108  0.5479  0.3612 -0.7863
   17MOL   H241 8913   5.452   1.684   2.097  1.7606 -1.2104  1.8272
   17MOL   H242 8914   5.558   1.767   2.209  0.2468 -0.2257 -0.5564
   17MOL   H243 8915   5.465   1.654   2.417  1.6878  1.7197 -1.9545
   17MOL   H244 8916   5.409   1.554   2.291 -1.7313 -0.3346 -0.1605
   17MOL   C245 8917   5.520   0.959   2.304  0.5072  0.8457  0.1619
   17MOL   C246 8918   5.644   1.006   2.374 -0.9370 -0.4295 -0.9336
   17MOL   C247 8919   5.699   1.143   2.335 -0.3889 -0.1431  0.5568
   17MOL   C248 8920   5.596   1.259   2.339  0.5771 -0.3002  0.2511
   17MOL   C249 8921   5.514   1.268   2.468  0.0235  0.0734  0.1129
   17MOL   O250 8922   5.453   1.392   2.480  0.9068 -0.1693  0.2111
   17MOL   C251 8923   5.323   1.407   2.456 -0.5532  1.0039 -0.3966
   17MOL   O252 8924   5.245   1.315   2.435 -0.0313  0.8160 -0.3574
   17MOL   C253 8925   5.279   1.556   2.465  0.4478  0.0797 -0.6139
   17MOL   C254 8926   5.122   1.560   2.436  0.5278  0.5390  0.0066
   17MOL   C255 8927   5.320   1.626   2.601  1.1350 -0.1017  0.7142
   17MOL   H256 8928   5.473   0.866   2.336 -1.3642  2.2839  1.7249
   17MOL   H257 8929   5.445   1.035   2.328  0.8324  0.7761  1.4194
   17MOL   H258 8930   5.548   0.951   2.199 -0.8411  0.4225 -0.1796
   17MOL   H259 8931   5.620   1.008   2.481  0.4552 -2.8949 -0.5240
   17MOL   H260 8932   5.729   0.937   2.373 -0.3771  0.2782 -1.9887
   17MOL   H261 8933   5.748   1.145   2.237 -2.7645 -0.0306 -0.6733
   17MOL   H262 8934   5.775   1.163   2.410  0.4428 -1.4040  0.0698
   17MOL   H263 8935   5.636   1.357   2.311 -3.4755  0.7372 -2.3452
   17MOL   H264 8936   5.518   1.245   2.264  0.0873 -0.6458  0.8149
   17MOL   H265 8937   5.438   1.191   2.480 -1.4874  1.4575 -0.5220
   17MOL   H266 8938   5.568   1.263   2.563 -1.1590 -0.7025  0.7640
   17MOL   H267 8939   5.069   1.495   2.505  0.1112 -0.1418 -0.9460
   17MOL   H268 8940   5.074   1.658   2.436 -0.9029 -0.1188 -1.4927
   17MOL   H269 8941   5.114   1.520   2.335  0.8807  0.0049  0.1900
   17MOL   H270 8942   5.426   1.602   2.612  0.9004 -1.8877 -0.8097
   17MOL   H271 8943   5.316   1.734   2.586  0.2759 -0.2751 -0.3990
   17MOL   C272 8944   5.825   2.069   2.660  0.5713  0.0696 -0.0736
   17MOL   C273 8945   5.714   1.988   2.596 -0.7418 -0.3757 -0.0757
   17MOL   C274 8946   5.648   1.875   2.678  0.3005 -0.8903  0.2084
   17MOL   C275 8947   5.565   1.912   2.801  0.6105 -0.1758  0.4634
   17MOL   C276 8948   5.543   1.792   2.897 -0.1150  0.0020 -0.1213
   17MOL   O277 8949   5.472   1.694   2.835 -0.3423  0.3522 -0.4511
   17MOL   C278 8950   5.334   1.691   2.841  0.1253 -0.4137 -0.3690
   17MOL   O279 8951   5.269   1.771   2.910 -0.9031  0.4920 -0.1652
   17MOL   C280 8952   5.268   1.586   2.745  0.9841 -1.0555  0.1990
   17MOL   C281 8953   5.117   1.617   2.749 -0.0481  0.1336  0.2892
   17MOL   C282 8954   5.305   1.438   2.777  0.0268  0.1532 -0.5075
   17MOL   H283 8955   5.781   2.128   2.740  1.7274 -0.1317  0.7117
   17MOL   H284 8956   5.905   2.003   2.694 -0.2927  0.0946  2.1087
   17MOL   H285 8957   5.869   2.133   2.583  0.6162  0.1938  0.0555
   17MOL   H286 8958   5.637   2.051   2.551  0.9613  1.9874  0.2385
   17MOL   H287 8959   5.762   1.937   2.512  0.3301 -1.0064  0.9119
   17MOL   H288 8960   5.580   1.821   2.613  1.3655 -0.8942 -0.9265
   17MOL   H289 8961   5.723   1.799   2.697  0.5676 -0.6259  0.2187
   17MOL   H290 8962   5.608   1.996   2.855 -0.3756  1.2249 -0.8758
   17MOL   H291 8963   5.475   1.964   2.768  0.1173 -1.8133 -0.8586
   17MOL   H292 8964   5.509   1.808   3.000  1.7341 -0.9294  0.6640
   17MOL   H293 8965   5.643   1.758   2.926  1.2597  3.4392 -0.5744
   17MOL   H294 8966   5.092   1.699   2.682 -0.2292 -0.5011 -0.4185
   17MOL   H295 8967   5.054   1.535   2.715  1.0757 -0.5766 -0.0837
   17MOL   H296 8968   5.076   1.640   2.848 -1.2145 -3.2827  0.6714
   17MOL   H297 8969   5.243   1.383   2.707  0.7295 -1.3123 -0.0083
   17MOL   H298 8970   5.403   1.414   2.734  0.1078 -3.4970  1.5437
   17MOL   C299 8971   5.831   1.576   2.491  0.0586 -0.2052  0.0437
   17MOL   C300 8972   5.824   1.470   2.609 -0.5545  0.7966 -0.1052
   17MOL   C301 8973   5.752   1.507   2.738 -0.1872 -0.7665 -0.4712
   17MOL   C302 8974   5.764   1.386   2.837 -0.4937 -0.1738  0.7284
   17MOL   C303 8975   5.678   1.414   2.964  0.6779  0.3347  1.0156
   17MOL   O304 8976   5.543   1.385   2.918 -0.2807  0.2551  1.0361
   17MOL   C305 8977   5.435   1.406   2.992 -0.1069  0.8805 -0.3936
   17MOL   O306 8978   5.435   1.445   3.111 -0.3696  0.0555 -0.0421
   17MOL   C307 8979   5.305   1.378   2.922  0.5406  0.0447  0.2068
   17MOL   C308 8980   5.182   1.444   3.000  0.3228 -0.0060 -0.4497
   17MOL   C309 8981   5.291   1.226   2.902 -0.0090  0.4461  0.1671
   17MOL   H310 8982   5.877   1.668   2.525 -0.4686  0.5070 -1.1485
   17MOL   H311 8983   5.732   1.604   2.457  0.5421  0.8226 -0.5464
   17MOL   H312 8984   5.885   1.537   2.404 -0.5103 -1.3140  0.1773
   17MOL   H313 8985   5.924   1.430   2.627 -0.4301  1.5989  1.0318
   17MOL   H314 8986   5.768   1.388   2.566  1.0046 -0.4305  0.1526
   17MOL   H315 8987   5.648   1.529   2.712 -0.3439 -0.2936  0.5205
   17MOL   H316 8988   5.795   1.592   2.790 -1.9887 -0.6543  0.8795
   17MOL   H317 8989   5.871   1.373   2.856  0.2753 -0.4131 -3.2988
   17MOL   H318 8990   5.741   1.283   2.808  0.1413 -0.1028 -0.0595
   17MOL   H319 8991   5.697   1.343   3.044 -2.2912  0.5056  1.9266
   17MOL   H320 8992   5.690   1.516   3.002  1.9422 -0.1720  2.0333
   17MOL   H321 8993   5.201   1.549   3.024  1.9480 -0.0643 -1.3599
   17MOL   H322 8994   5.089   1.441   2.944 -0.7925  3.0583  1.1040
   17MOL   H323 8995   5.157   1.403   3.098  1.7559  0.7872  0.2708
   17MOL   H324 8996   5.341   1.182   2.989  2.4056  1.0901 -0.8535
   17MOL   H325 8997   5.359   1.201   2.821 -1.5642 -1.1818 -0.6469
   17MOL   C326 8998   5.049   0.803   3.677 -0.3832  0.2208  0.7012
   17MOL   C327 8999   5.080   0.812   3.525 -0.2748  0.9716 -0.2216
   17MOL   C328 9000   5.056   0.964   3.469 -0.0275  0.1194  0.1361
   17MOL   C329 9001   5.128   0.991   3.333 -0.7055 -0.1925  0.4682
   17MOL   C330 9002   5.105   1.126   3.270 -0.4640  0.1457  0.7702
   17MOL   O331 9003   5.159   1.124   3.130 -0.1777 -0.3336  0.0191
   17MOL   C332 9004   5.077   1.165   3.029  0.5431 -0.3032  0.2743
   17MOL   O333 9005   4.958   1.200   3.039  0.3531 -0.0789  0.4615
   17MOL   C334 9006   5.151   1.150   2.893 -0.8150  0.4006 -1.0573
   17MOL   C335 9007   5.060   1.205   2.779  0.0370  0.5142 -0.5050
   17MOL   C336 9008   5.189   0.997   2.864  0.2429  0.5567  0.3719
   17MOL   H337 9009   5.134   0.837   3.737  0.2966  0.9271 -0.6473
   17MOL   H338 9010   5.046   0.697   3.705  0.8014 -0.4817 -1.7146
   17MOL   H339 9011   4.959   0.848   3.720  0.6438  2.1896  0.8293
   17MOL   H340 9012   5.013   0.746   3.472 -1.2655 -1.2493  3.5755
   17MOL   H341 9013   5.182   0.778   3.508 -0.4003  1.7540 -2.6348
   17MOL   H342 9014   5.093   1.031   3.546 -0.8496  0.2844  0.3918
   17MOL   H343 9015   4.948   0.977   3.470 -0.1463 -0.8350  0.9972
   17MOL   H344 9016   5.106   0.917   3.256 -1.1135 -1.0211  1.3610
   17MOL   H345 9017   5.232   0.961   3.342 -0.7675 -0.4731  0.2511
   17MOL   H346 9018   5.168   1.197   3.323  1.0115 -1.4285  1.1673
   17MOL   H347 9019   5.001   1.160   3.276  0.1033  1.6487  2.5340
   17MOL   H348 9020   5.106   1.176   2.684 -1.1013  0.3656 -1.0198
   17MOL   H349 9021   5.057   1.314   2.783  2.5461  0.6585 -1.1340
   17MOL   H350 9022   4.958   1.169   2.781  1.2202 -3.1717 -1.9435
   17MOL   H351 9023   5.239   0.955   2.952 -2.2796 -0.7115  1.2340
   17MOL   H352 9024   5.267   1.000   2.787  0.6563 -2.1303  0.6355
   17MOL   C353 9025   5.315   0.673   2.017 -0.8492  0.0789  0.7986
   17MOL   C354 9026   5.285   0.650   2.165 -0.8157 -0.3264  0.3170
   17MOL   C355 9027   5.208   0.758   2.234 -0.0599 -0.5358 -0.5636
   17MOL   C356 9028   5.202   0.751   2.383 -0.3918  0.0503  0.1273
   17MOL   C357 9029   5.158   0.883   2.451  0.1864  0.7427 -0.0208
   17MOL   O358 9030   5.169   0.883   2.594 -0.6165 -0.4216  0.0106
   17MOL   C359 9031   5.057   0.898   2.679 -0.1824  0.7691  0.0577
   17MOL   O360 9032   4.939   0.920   2.633  0.6491  0.4028 -0.4630
   17MOL   C361 9033   5.084   0.881   2.829 -0.0536  0.3159  0.2692
   17MOL   C362 9034   4.946   0.895   2.910 -0.4182  0.6807 -0.6745
   17MOL   C363 9035   5.148   0.737   2.866 -0.1612  0.0854 -0.6843
   17MOL   H364 9036   5.398   0.743   2.009  0.2561 -1.2973 -0.1582
   17MOL   H365 9037   5.232   0.723   1.968 -0.2742 -1.3882 -1.7794
   17MOL   H366 9038   5.347   0.585   1.960  0.8772  0.9284  0.4112
   17MOL   H367 9039   5.227   0.559   2.171 -2.0298  0.4887  1.0981
   17MOL   H368 9040   5.365   0.625   2.234 -1.4532 -0.2115  1.1001
   17MOL   H369 9041   5.106   0.773   2.198 -0.9515  0.7819  2.3129
   17MOL   H370 9042   5.263   0.848   2.204 -1.3378 -0.4333 -2.7162
   17MOL   H371 9043   5.300   0.736   2.428  0.2395  1.0686 -0.8746
   17MOL   H372 9044   5.135   0.673   2.420 -1.4285  0.8816  0.0265
   17MOL   H373 9045   5.216   0.973   2.428  0.0182  1.1699  1.1750
   17MOL   H374 9046   5.056   0.913   2.427  0.4570  0.0883 -2.0909
   17MOL   H375 9047   4.913   0.998   2.898 -0.0536  0.8525 -0.2169
   17MOL   H376 9048   4.883   0.819   2.864  1.2616  0.5447 -2.8649
   17MOL   H377 9049   4.954   0.880   3.017  1.0982  0.1575 -0.8445
   17MOL   H378 9050   5.234   0.716   2.802 -0.6064 -0.3703 -1.1339
   17MOL   H379 9051   5.191   0.752   2.965  0.1658  0.8570 -0.9315
   17MOL   C380 9052   5.274   0.278   3.354  0.3049  0.1986  0.2012
   17MOL   C381 9053   5.240   0.411   3.427 -0.7687 -0.0917 -0.3042
   17MOL   C382 9054   5.178   0.506   3.326  0.2889 -0.1374 -0.3184
   17MOL   C383 9055   5.027   0.476   3.293  0.4034  0.0759 -0.4260
   17MOL   C384 9056   4.955   0.595   3.213 -0.0061  0.3377  0.3459
   17MOL   O385 9057   5.023   0.613   3.092 -0.0623 -0.2720  0.4162
   17MOL   C386 9058   4.975   0.575   2.971 -0.9876  0.3289 -0.4197
   17MOL   O387 9059   4.864   0.520   2.960  0.3972  0.3330  0.3863
   17MOL   C388 9060   5.072   0.597   2.856 -0.0989 -0.4029 -0.6710
   17MOL   C389 9061   4.992   0.581   2.723  0.3625  0.5012  0.0247
   17MOL   C390 9062   5.189   0.487   2.870 -0.0504 -1.0117 -0.6496
   17MOL   H391 9063   5.175   0.245   3.322  0.0224  1.2737 -0.0736
   17MOL   H392 9064   5.322   0.287   3.257 -2.3434  2.9666 -0.9273
   17MOL   H393 9065   5.327   0.211   3.421 -1.6044  1.0585  2.6804
   17MOL   H394 9066   5.332   0.458   3.462  0.0774 -1.1791 -1.0098
   17MOL   H395 9067   5.184   0.385   3.516  2.2979 -1.1979  1.3773
   17MOL   H396 9068   5.187   0.614   3.343 -0.9102 -0.3405  1.8057
   17MOL   H397 9069   5.231   0.501   3.232  1.1316  0.3181  0.1277
   17MOL   H398 9070   5.026   0.385   3.233  0.2557 -0.0952 -0.1609
   17MOL   H399 9071   4.972   0.458   3.385  0.7690 -0.2355 -0.2690
   17MOL   H400 9072   4.957   0.693   3.260 -1.4667  0.5430  0.0258
   17MOL   H401 9073   4.848   0.576   3.204  0.4237 -0.8415 -3.3051
   17MOL   H402 9074   4.917   0.659   2.717  0.8748  0.9599 -0.4749
   17MOL   H403 9075   4.946   0.484   2.702  0.4014  0.6700 -0.8273
   17MOL   H404 9076   5.061   0.606   2.643 -1.3890  0.5358 -1.4920
   17MOL   H405 9077   5.232   0.502   2.969  0.0442  1.3572 -1.0316
   17MOL   H406 9078   5.280   0.516   2.818 -1.9797  2.6013 -2.1412
   17MOL   C407 9079   5.679   0.242   2.284 -0.8312 -0.5655  0.2256
   17MOL   C408 9080   5.546   0.201   2.219 -0.0781  0.0717  0.6029
   17MOL   C409 9081   5.415   0.255   2.275  0.0947  0.7091 -0.0210
   17MOL   C410 9082   5.411   0.254   2.436  0.3263 -0.0325  0.0589
   17MOL   C411 9083   5.301   0.357   2.476  0.4847 -0.1808  0.9437
   17MOL   O412 9084   5.289   0.356   2.615 -0.4471  0.3102 -0.7337
   17MOL   C413 9085   5.173   0.312   2.676  0.7049  0.6073 -0.0662
   17MOL   O414 9086   5.069   0.277   2.613  0.8485 -0.5497 -0.3602
   17MOL   C415 9087   5.171   0.334   2.829  0.0851 -0.6160  0.3020
   17MOL   C416 9088   5.293   0.263   2.877 -0.4368 -0.7473 -0.1081
   17MOL   C417 9089   5.049   0.268   2.899 -0.0674  0.4087  0.1835
   17MOL   H418 9090   5.686   0.186   2.378 -0.2254 -2.1657 -0.7479
   17MOL   H419 9091   5.767   0.209   2.228 -1.1551  0.3729 -0.8551
   17MOL   H420 9092   5.693   0.348   2.301  0.7341 -0.9551  1.5043
   17MOL   H421 9093   5.541   0.093   2.203  0.1150 -0.0398  1.2840
   17MOL   H422 9094   5.547   0.241   2.118 -0.2139  0.2128  0.6566
   17MOL   H423 9095   5.389   0.358   2.249 -1.4626  0.6850  1.3499
   17MOL   H424 9096   5.335   0.194   2.233 -0.2674  2.1415 -1.4588
   17MOL   H425 9097   5.502   0.299   2.476 -0.9601 -0.5804  3.8316
   17MOL   H426 9098   5.399   0.157   2.484 -0.4662 -0.0594 -0.1833
   17MOL   H427 9099   5.335   0.458   2.454 -1.1237  0.6848  2.3069
   17MOL   H428 9100   5.211   0.336   2.419  0.9659  2.8242 -0.9737
   17MOL   H429 9101   5.388   0.305   2.843 -0.4626 -1.9792 -1.7327
   17MOL   H430 9102   5.298   0.155   2.864  0.3496 -0.8428  0.9362
   17MOL   H431 9103   5.309   0.285   2.982 -0.8430 -2.6869  0.3819
   17MOL   H432 9104   4.964   0.310   2.844  0.2532  0.1865 -0.4911
   17MOL   H433 9105   5.024   0.309   2.996  0.5953 -1.4209  1.1557
   17MOL   C434 9106   5.725   7.555   3.245 -0.0409  0.6388  0.2858
   17MOL   C435 9107   5.616   7.586   3.144  0.0191 -0.5964  0.3683
   17MOL   C436 9108   5.505   7.664   3.198  0.6512 -0.2640 -0.1927
   17MOL   C437 9109   5.409   7.692   3.082 -0.4252 -0.1405 -0.6724
   17MOL   C438 9110   5.282   7.769   3.131  0.5456  0.1252  0.3826
   17MOL   O439 9111   5.197   7.801   3.019 -0.0437 -0.0865  0.4934
   17MOL   C440 9112   5.095   0.073   3.041  0.3916  0.1760 -0.1817
   17MOL   O441 9113   5.063   0.108   3.155  0.0185  0.0524 -0.6446
   17MOL   C442 9114   5.016   0.118   2.921 -0.0300 -0.0158  0.3683
   17MOL   C443 9115   5.041   0.038   2.786  0.1183  0.9321 -0.3386
   17MOL   C444 9116   4.864   0.104   2.956  0.2088 -0.5289  0.5155
   17MOL   H445 9117   5.799   7.484   3.209  0.6831  0.7237  1.5770
   17MOL   H446 9118   5.778   7.642   3.284  0.4633  0.2544  0.4566
   17MOL   H447 9119   5.676   7.500   3.324 -2.5437 -0.7054 -2.1164
   17MOL   H448 9120   5.666   7.633   3.059 -0.8642 -2.9193 -1.5101
   17MOL   H449 9121   5.591   7.485   3.111  3.7596 -0.5795 -2.9587
   17MOL   H450 9122   5.445   7.613   3.274 -0.3337  1.9891  0.5663
   17MOL   H451 9123   5.540   7.754   3.247 -1.5686 -0.1039  1.1973
   17MOL   H452 9124   5.370   7.599   3.043 -1.7135  0.1450 -0.0798
   17MOL   H453 9125   5.456   7.739   2.995 -0.0918  0.2966 -0.2618
   17MOL   H454 9126   5.311   0.043   3.189 -0.3441  2.1642 -2.1445
   17MOL   H455 9127   5.235   7.695   3.197 -1.3167 -0.1310 -1.1734
   17MOL   H456 9128   4.964   0.058   2.711  0.5910 -0.0952 -1.1237
   17MOL   H457 9129   5.139   0.043   2.739  0.6299 -1.6375  0.3589
   17MOL   H458 9130   5.022   7.745   2.801  0.4449  0.8986 -0.1734
   17MOL   H459 9131   4.813   0.158   2.876  2.2737 -1.0743 -1.2281
   17MOL   H460 9132   4.849   0.169   3.043 -1.5874  1.8915 -1.5229
   17MOL   C461 9133   4.548   0.652   2.870  0.1407  0.6550 -0.2257
   17MOL   C462 9134   4.463   0.534   2.823  0.4176  0.6450 -0.5035
   17MOL   C463 9135   4.519   0.404   2.888 -0.6112  0.5796  0.2908
   17MOL   C464 9136   4.438   0.279   2.867 -0.1624 -0.9052 -0.2598
   17MOL   C465 9137   4.464   0.176   2.983  0.4755  0.4280 -0.4909
   17MOL   O466 9138   4.592   0.117   2.953  0.0725  0.2570  0.1285
   17MOL   C467 9139   4.644   0.018   3.030  0.2431 -0.0427 -0.6461
   17MOL   O468 9140   4.597   7.779   3.133  0.0497 -0.0434 -0.2047
   17MOL   C469 9141   4.780   7.788   2.966  0.7494  0.5608 -1.2254
   17MOL   C470 9142   4.856   7.684   3.051 -0.5513  0.4367 -0.6979
   17MOL   C471 9143   4.737   7.729   2.825  0.5172 -0.0291 -0.1464
   17MOL   H472 9144   4.504   0.750   2.855 -0.9275  0.0481 -1.1282
   17MOL   H473 9145   4.643   0.652   2.816  1.5876  3.6829  2.1427
   17MOL   H474 9146   4.572   0.654   2.977 -1.0138  0.1521  0.0557
   17MOL   H475 9147   4.467   0.520   2.715  2.2888 -0.3616 -0.3352
   17MOL   H476 9148   4.360   0.554   2.852  0.6297 -1.1663  1.6879
   17MOL   H477 9149   4.526   0.422   2.996  1.8196  0.3951  0.1995
   17MOL   H478 9150   4.623   0.384   2.861 -0.5654 -1.3703  1.8046
   17MOL   H479 9151   4.451   0.254   2.762 -3.0476 -1.2045 -0.5952
   17MOL   H480 9152   4.337   0.321   2.869  1.3679  3.0295 -0.2529
   17MOL   H481 9153   4.461   0.229   3.078 -0.0590  0.3525 -0.4643
   17MOL   H482 9154   4.381   0.106   2.986 -0.8731  2.0534  2.9082
   17MOL   H483 9155   4.803   7.606   3.106 -0.5497  1.2143  0.4090
   17MOL   H484 9156   4.911   7.734   3.130 -1.4439  0.1076  0.1403
   17MOL   H485 9157   4.924   7.633   2.981 -1.6288 -0.9244 -0.7849
   17MOL   H486 9158   4.819   7.675   2.778 -2.0920 -4.0960 -0.2925
   17MOL   H487 9159   4.710   7.813   2.761  0.2517 -0.9570 -1.2715
   17MOL   C488 9160   3.826   7.681   3.119 -0.4620 -1.0207 -0.9110
   17MOL   C489 9161   3.981   7.659   3.134  0.1669 -0.2130  0.5937
   17MOL   C490 9162   4.059   7.729   3.025 -0.2849  0.7775  0.4804
   17MOL   C491 9163   4.202   7.675   3.012 -0.0481 -0.4857  0.2411
   17MOL   C492 9164   4.262   7.689   2.869 -0.2744  0.3266 -0.6877
   17MOL   O493 9165   4.397   7.638   2.874 -0.1417  0.5918  0.4328
   17MOL   C494 9166   4.484   7.682   2.787 -0.5531  0.0371  0.1634
   17MOL   O495 9167   4.474   7.773   2.707 -0.3658  0.0230  0.6132
   17MOL   C496 9168   4.628   7.610   2.801  0.0490  0.3476  0.0621
   17MOL   C497 9169   4.628   7.505   2.921 -0.6575  0.1133  1.3525
   17MOL   C498 9170   4.663   7.544   2.664 -0.4360  0.7588  0.1442
   17MOL   H499 9171   3.790   7.659   3.019  0.1488  0.7798 -1.5553
   17MOL   H500 9172   3.766   7.624   3.190 -2.3689  1.3284 -0.5492
   17MOL   H501 9173   3.809   7.788   3.136  2.1805 -0.3879 -2.0928
   17MOL   H502 9174   4.001   7.552   3.137 -0.6553 -0.4811 -2.2058
   17MOL   H503 9175   4.006   7.701   3.232 -1.1238 -1.7404  1.6092
   17MOL   H504 9176   4.001   7.716   2.934  0.2508 -0.4069  0.3043
   17MOL   H505 9177   4.064   0.024   3.037  1.0675  0.6823  0.8212
   17MOL   H506 9178   4.209   7.568   3.033  2.7650 -0.2655  0.6724
   17MOL   H507 9179   4.262   7.727   3.087 -0.1403 -0.4633  0.2987
   17MOL   H508 9180   4.203   7.631   2.799  0.0085  0.9730 -1.4634
   17MOL   H509 9181   4.255   7.795   2.845 -1.4766 -0.1174 -2.3542
   17MOL   H510 9182   4.598   7.550   3.016 -0.3066 -0.5154  1.7699
   17MOL   H511 9183   4.726   7.458   2.931 -1.7355 -2.1872  1.4233
   17MOL   H512 9184   4.564   7.418   2.902 -0.0671  0.4182 -2.3899
   17MOL   H513 9185   4.753   7.489   2.691 -0.5047  0.4714 -0.2052
   17MOL   H514 9186   4.694   7.628   2.601 -0.8990 -0.5356 -1.8719
   17MOL   C515 9187   4.339   7.535   1.889  0.3002  0.2142  0.1857
   17MOL   C516 9188   4.275   7.578   2.019  0.7286  0.2345  0.5176
   17MOL   C517 9189   4.376   7.622   2.128  0.8810  0.0107  0.1354
   17MOL   C518 9190   4.304   7.655   2.263 -0.2111 -0.6733  0.4200
   17MOL   C519 9191   4.404   7.718   2.370 -0.0541  0.3198  0.3906
   17MOL   O520 9192   4.497   7.619   2.421 -0.0884 -0.1376  0.0340
   17MOL   C521 9193   4.455   7.537   2.511 -0.3415 -0.0186  0.0404
   17MOL   O522 9194   4.338   7.525   2.546 -0.7143 -0.0373 -0.6518
   17MOL   C523 9195   4.563   7.451   2.577  0.4728  0.4502 -0.3118
   17MOL   C524 9196   4.501   7.335   2.657 -0.4773  0.3520 -0.4137
   17MOL   C525 9197   4.657   7.374   2.472  0.6670 -0.5528 -0.3835
   17MOL   H526 9198   4.411   7.455   1.909 -0.6446 -0.4932  0.7907
   17MOL   H527 9199   4.266   7.488   1.824 -0.7698 -0.9346  2.1667
   17MOL   H528 9200   4.390   7.614   1.834  1.5259 -2.2047 -2.2826
   17MOL   H529 9201   4.200   7.655   2.006  0.1678  0.0331  2.4786
   17MOL   H530 9202   4.226   7.493   2.067  0.1513 -0.4278 -1.2104
   17MOL   H531 9203   4.457   7.551   2.143 -0.1785 -0.9739  1.3487
   17MOL   H532 9204   4.415   7.720   2.101  1.3721 -0.2133  0.0307
   17MOL   H533 9205   4.254   7.568   2.305 -0.8819  1.3241  4.0320
   17MOL   H534 9206   4.224   7.729   2.254 -0.9944 -1.8251 -2.5375
   17MOL   H535 9207   4.469   7.785   2.313 -0.1081  0.1730  0.1545
   17MOL   H536 9208   4.354   7.770   2.451 -0.3068  1.2519 -0.3637
   17MOL   H537 9209   4.583   7.288   2.710  1.2820  2.6656 -1.0143
   17MOL   H538 9210   4.445   7.264   2.595 -1.1493 -0.5085  1.1368
   17MOL   H539 9211   4.430   7.365   2.734  0.5120 -1.6478  1.3214
   17MOL   H540 9212   4.586   7.334   2.400  0.6395  0.3241 -0.8547
   17MOL   H541 9213   4.725   7.300   2.513  0.6697 -0.4766 -0.2462
   17MOL   H542 9214   4.721   7.439   2.412  0.6341 -0.5672 -0.4351
   18MOL     C1 9215   2.853   4.172   4.473 -1.6454 -0.0461 -0.0057
   18MOL     C2 9216   2.977   4.243   4.409 -0.1783 -0.0045 -0.4581
   18MOL     C3 9217   3.086   4.152   4.349  0.1092 -0.1624  0.5282
   18MOL     C4 9218   3.191   4.232   4.265 -0.7987 -0.4896  0.0845
   18MOL     C5 9219   3.314   4.284   4.349  0.6222  0.2564 -0.2826
   18MOL     O6 9220   3.401   4.367   4.275 -0.9741  0.2827 -0.3703
   18MOL     C7 9221   3.480   4.300   4.190 -0.0729  0.5396 -0.3283
   18MOL     O8 9222   3.497   4.178   4.198  0.3663 -0.1518  0.0705
   18MOL     C9 9223   3.542   4.387   4.083 -0.0779  0.2011  0.3854
   18MOL    C10 9224   3.436   4.432   3.975  0.3940  0.0372  0.1290
   18MOL    C11 9225   3.679   4.322   4.022  0.0753  0.0038  0.2480
   18MOL    H12 9226   2.772   4.241   4.496 -1.8045  0.2470 -1.4034
   18MOL    H13 9227   2.875   4.127   4.570 -0.0142 -0.6435 -0.6281
   18MOL    H14 9228   2.828   4.091   4.405 -1.1435 -0.6085  0.4759
   18MOL    H15 9229   2.937   4.307   4.331 -2.2133 -0.5343  0.1247
   18MOL    H16 9230   3.029   4.304   4.483 -0.5301  1.5600 -1.4761
   18MOL    H17 9231   3.125   4.088   4.427 -2.1898  2.5930  4.0849
   18MOL    H18 9232   3.042   4.090   4.270  0.2534  1.6410 -1.0204
   18MOL    H19 9233   3.151   4.326   4.230  1.0312  0.2152 -0.1828
   18MOL    H20 9234   3.222   4.168   4.182  1.5398  0.9545 -0.2065
   18MOL    H21 9235   3.269   4.344   4.429  1.7683  1.1028 -0.2432
   18MOL    H22 9236   3.366   4.199   4.395 -1.0515  0.2867  1.7493
   18MOL    H23 9237   3.358   4.494   4.019 -0.5562 -1.4926  0.6387
   18MOL    H24 9238   3.372   4.350   3.944  1.2320  0.0186 -1.5671
   18MOL    H25 9239   3.471   4.486   3.887  1.1452  0.6991  0.8247
   18MOL    H26 9240   3.651   4.261   3.937  1.5932 -0.2237 -0.1072
   18MOL    H27 9241   3.717   4.258   4.102  2.4301  0.1283 -0.7408
   18MOL    H28 9242   3.567   4.477   4.139 -0.7646 -0.5282  1.8871
   18MOL    C29 9243   3.618   4.234   4.612  0.6233 -0.3415  0.6984
   18MOL    C30 9244   3.671   4.373   4.561 -0.1538 -0.2507  0.2675
   18MOL    C31 9245   3.810   4.347   4.495 -0.8739 -0.5341  0.2149
   18MOL    C32 9246   3.880   4.468   4.437  0.1463  0.2677 -0.2026
   18MOL    C33 9247   3.805   4.558   4.339 -0.5662 -0.0102 -0.0125
   18MOL    O34 9248   3.784   4.478   4.222 -0.2680 -0.1539 -0.5637
   18MOL    C35 9249   3.837   4.504   4.110  0.4043  0.3642  0.1374
   18MOL    O36 9250   3.902   4.607   4.092 -0.2697  0.6366  0.4252
   18MOL    C37 9251   3.792   4.420   3.982 -0.6293 -0.0084 -0.2471
   18MOL    C38 9252   3.737   4.523   3.880  0.5349 -1.0308 -0.0786
   18MOL    C39 9253   3.914   4.351   3.909 -0.2492 -0.8109 -0.0920
   18MOL    H40 9254   3.689   4.199   4.687 -0.2517 -0.3967  1.5054
   18MOL    H41 9255   3.511   4.233   4.634  0.6470  1.7150  1.0136
   18MOL    H42 9256   3.624   4.165   4.528  0.4906 -1.0750  1.2897
   18MOL    H43 9257   3.668   4.454   4.635 -1.1909  1.2747 -1.4091
   18MOL    H44 9258   3.592   4.392   4.488 -0.3395 -0.6325  0.3695
   18MOL    H45 9259   3.780   4.279   4.415 -1.6838  0.0859 -0.0143
   18MOL    H46 9260   3.879   4.280   4.546  1.1281  0.0567 -1.6127
   18MOL    H47 9261   3.904   4.530   4.523  0.4412  0.1296 -0.1843
   18MOL    H48 9262   3.978   4.435   4.404 -1.5021 -3.9997 -1.1622
   18MOL    H49 9263   3.858   4.650   4.318  1.8241 -0.9327  1.7338
   18MOL    H50 9264   3.706   4.592   4.372 -1.0761 -1.1859 -0.2937
   18MOL    H51 9265   3.660   4.586   3.926  0.2537  0.0831 -2.0169
   18MOL    H52 9266   3.684   4.473   3.799 -0.5843 -0.2999  0.1908
   18MOL    H53 9267   3.820   4.576   3.835  0.6604  0.4376  1.8015
   18MOL    H54 9268   3.992   4.427   3.906  0.2806 -1.3943 -1.5358
   18MOL    H55 9269   3.885   4.335   3.805 -0.5383 -1.3264  0.0672
   18MOL    C56 9270   4.451   4.849   4.393 -0.1020 -0.5171 -0.2693
   18MOL    C57 9271   4.393   4.775   4.269 -0.3180  0.0896 -0.2554
   18MOL    C58 9272   4.377   4.628   4.282  0.1977  0.7397 -0.7005
   18MOL    C59 9273   4.270   4.564   4.178 -0.0489 -0.3486 -0.3588
   18MOL    C60 9274   4.237   4.420   4.198 -0.1095 -0.4348  0.2775
   18MOL    O61 9275   4.163   4.373   4.088 -0.0610 -0.2685 -0.1755
   18MOL    C62 9276   4.065   4.277   4.100  0.5777  0.3150 -0.4686
   18MOL    O63 9277   4.037   4.225   4.206 -0.2994  0.1659 -0.7641
   18MOL    C64 9278   3.999   4.236   3.967 -0.2675 -0.2479  0.0263
   18MOL    C65 9279   4.112   4.216   3.862  0.1210 -0.1476  0.0665
   18MOL    C66 9280   3.907   4.106   3.967  1.2427 -0.2971 -0.4935
   18MOL    H67 9281   4.544   4.801   4.422  0.0628  0.1318  0.2968
   18MOL    H68 9282   4.384   4.843   4.479  2.5986  1.1197  2.0454
   18MOL    H69 9283   4.464   4.957   4.382 -0.6917 -0.3378  0.6993
   18MOL    H70 9284   4.293   4.812   4.247 -0.1875  0.1078 -0.8403
   18MOL    H71 9285   4.452   4.808   4.183  0.3955  2.5537  1.1217
   18MOL    H72 9286   4.476   4.583   4.285  0.0858  0.3808 -1.9547
   18MOL    H73 9287   4.340   4.612   4.383  1.5724  1.5252 -0.0468
   18MOL    H74 9288   4.298   4.591   4.077  0.7123  1.9817  0.4354
   18MOL    H75 9289   4.174   4.608   4.203 -0.1234 -0.5430 -0.2962
   18MOL    H76 9290   4.322   4.354   4.210  1.1055  0.8711 -1.0381
   18MOL    H77 9291   4.183   4.418   4.293 -3.2053 -1.2344 -1.4034
   18MOL    H78 9292   4.075   4.200   3.761 -0.3587 -4.2559  0.8282
   18MOL    H79 9293   4.169   4.128   3.888  0.4258 -0.6032 -2.0647
   18MOL    H80 9294   4.192   4.290   3.866  0.2816 -0.2806 -0.6535
   18MOL    H81 9295   3.843   4.112   3.880  0.5377  2.4415  0.1527
   18MOL    H82 9296   3.846   4.119   4.057  1.9703 -0.4991  0.0291
   18MOL    C83 9297   4.100   3.529   3.256  0.0436 -0.0380  0.3918
   18MOL    C84 9298   4.023   3.570   3.388  0.4023 -0.0567 -0.6702
   18MOL    C85 9299   4.064   3.704   3.434  0.0552  0.5369 -0.8217
   18MOL    C86 9300   4.004   3.759   3.564 -0.3159  0.4799 -0.4585
   18MOL    C87 9301   4.052   3.897   3.608  0.0052 -0.0162 -0.4767
   18MOL    O88 9302   3.985   3.932   3.729 -0.0040 -0.2106  0.3308
   18MOL    C89 9303   4.046   3.909   3.853  0.3456  0.1963  0.8397
   18MOL    O90 9304   4.153   3.852   3.871 -0.0471  0.0455  0.0883
   18MOL    C91 9305   3.963   3.958   3.966  0.7712 -0.5607  0.4224
   18MOL    C92 9306   4.036   3.939   4.103  0.1946  0.1755  0.2450
   18MOL    C93 9307   3.827   3.880   3.956  0.2328  0.3785  0.0079
   18MOL    H94 9308   4.087   3.423   3.234 -0.3145 -0.2590  1.6279
   18MOL    H95 9309   4.056   3.584   3.174  0.0483 -1.5132 -0.6267
   18MOL    H96 9310   4.206   3.551   3.269 -0.0865  0.0557  1.3190
   18MOL    H97 9311   4.049   3.503   3.470  1.1897  0.4565 -0.4903
   18MOL    H98 9312   3.915   3.568   3.384  0.4470 -1.6446 -1.0830
   18MOL    H99 9313   4.036   3.773   3.354  0.5231  0.5553 -0.9732
   18MOL   H100 9314   4.173   3.707   3.432  0.1326 -1.5506 -3.9931
   18MOL   H101 9315   4.024   3.682   3.639 -1.8201  0.5352  0.0158
   18MOL   H102 9316   3.898   3.758   3.539  0.1551  0.1887 -2.5390
   18MOL   H103 9317   4.025   3.973   3.534  2.9901  1.5426 -0.0553
   18MOL   H104 9318   4.160   3.911   3.615 -0.4469  3.2717  0.4935
   18MOL   H105 9319   4.123   4.005   4.105  3.3193 -3.5937 -2.7884
   18MOL   H106 9320   4.075   3.838   4.105  0.6164  0.3586  1.4831
   18MOL   H107 9321   3.967   3.950   4.187 -0.6811 -1.5281 -0.2370
   18MOL   H108 9322   3.751   3.937   4.010 -0.7902 -0.2903 -0.7023
   18MOL   H109 9323   3.792   3.890   3.853  1.9222  0.2137 -0.5852
   18MOL   C110 9324   3.336   3.888   4.391 -0.0586 -0.5311  0.6340
   18MOL   C111 9325   3.488   3.883   4.372  0.2673  0.7646 -0.0883
   18MOL   C112 9326   3.573   3.882   4.498 -0.4492 -1.0268 -0.3014
   18MOL   C113 9327   3.727   3.899   4.466 -0.3282 -0.7432  0.6742
   18MOL   C114 9328   3.795   3.789   4.386 -0.1976  1.0088 -0.1989
   18MOL   O115 9329   3.756   3.790   4.250 -0.5842  0.2776  0.3977
   18MOL   C116 9330   3.836   3.720   4.167  0.6235 -0.4852 -0.8577
   18MOL   O117 9331   3.928   3.641   4.205  0.1437 -0.1992  0.1217
   18MOL   C118 9332   3.798   3.740   4.015  0.4712  0.2007 -0.2362
   18MOL   C119 9333   3.882   3.647   3.930  0.2965  0.0611  0.3634
   18MOL   C120 9334   3.642   3.714   3.976 -0.7801 -0.0013 -0.5101
   18MOL   H121 9335   3.296   3.790   4.416  1.1928 -1.4435 -0.8317
   18MOL   H122 9336   3.297   3.971   4.450  0.4892 -0.7995  1.3783
   18MOL   H123 9337   3.304   3.911   4.289  0.8597 -0.3472  0.3768
   18MOL   H124 9338   3.511   3.791   4.319 -1.6094  1.1307 -1.6156
   18MOL   H125 9339   3.533   3.962   4.312 -1.3525  0.3492 -1.8901
   18MOL   H126 9340   3.537   3.955   4.571 -0.3205 -0.9699 -0.2940
   18MOL   H127 9341   3.569   3.787   4.550  0.2732 -1.0351 -0.2480
   18MOL   H128 9342   3.774   3.907   4.564  0.0110 -0.6280  0.5020
   18MOL   H129 9343   3.744   3.995   4.417 -0.4907 -0.9464  0.2181
   18MOL   H130 9344   3.903   3.794   4.399  0.1037  1.0019 -2.4568
   18MOL   H131 9345   3.765   3.698   4.438  2.0581 -0.4685 -1.4052
   18MOL   H132 9346   3.863   3.654   3.823 -2.7359 -0.5433  0.7927
   18MOL   H133 9347   3.989   3.663   3.939  0.1616  0.7926  0.6887
   18MOL   H134 9348   3.854   3.545   3.956  0.3799 -0.2146 -0.6342
   18MOL   H135 9349   3.582   3.788   4.029  0.8889  0.3965  0.8608
   18MOL   H136 9350   3.621   3.747   3.874  2.2280 -0.3454 -1.2822
   18MOL   C137 9351   3.480   3.822   3.347  0.5241 -0.3950 -0.5609
   18MOL   C138 9352   3.600   3.740   3.406  0.3233 -0.0342  0.1220
   18MOL   C139 9353   3.558   3.610   3.485  0.0514 -0.2749 -0.4741
   18MOL   C140 9354   3.672   3.518   3.532  0.2390 -0.2433 -0.1409
   18MOL   C141 9355   3.643   3.422   3.651  0.0325  0.3618  0.1929
   18MOL   O142 9356   3.615   3.515   3.757 -0.2460 -0.0651 -0.7658
   18MOL   C143 9357   3.617   3.472   3.885  0.1931  1.0709 -0.2396
   18MOL   O144 9358   3.675   3.368   3.921 -0.1965 -0.5994  0.1367
   18MOL   C145 9359   3.566   3.572   3.991 -0.2623 -0.0189  0.4178
   18MOL   C146 9360   3.580   3.516   4.136 -0.6046  0.3701 -1.0875
   18MOL   C147 9361   3.420   3.616   3.950  0.0655 -0.1728 -0.6022
   18MOL   H148 9362   3.506   3.900   3.276 -1.3539  1.2638  0.5340
   18MOL   H149 9363   3.419   3.873   3.422 -1.0696 -1.8641 -0.8300
   18MOL   H150 9364   3.407   3.755   3.301  0.9092 -2.7221  2.0682
   18MOL   H151 9365   3.651   3.807   3.475  0.8743 -0.9790  0.6447
   18MOL   H152 9366   3.661   3.709   3.321 -1.5224  1.6299 -1.8886
   18MOL   H153 9367   3.498   3.639   3.571  3.8763  1.1384  1.8627
   18MOL   H154 9368   3.499   3.547   3.419 -2.1926  1.5981 -0.3262
   18MOL   H155 9369   3.707   3.468   3.442 -1.0798  1.8134 -1.8491
   18MOL   H156 9370   3.757   3.577   3.565 -0.3686  0.2663  0.5355
   18MOL   H157 9371   3.726   3.358   3.682 -0.2265 -0.7856 -1.3805
   18MOL   H158 9372   3.554   3.360   3.638 -1.8422  2.7363  1.4656
   18MOL   H159 9373   3.553   3.410   4.137  1.1911 -0.1148  0.6719
   18MOL   H160 9374   3.514   3.569   4.204  0.2889 -1.6521  1.4550
   18MOL   H161 9375   3.678   3.521   4.183 -1.5260  0.3134  0.9059
   18MOL   H162 9376   3.394   3.704   4.009  1.2069 -1.3141  1.6931
   18MOL   H163 9377   3.427   3.649   3.847  0.0759 -1.4800 -1.0314
   18MOL   C164 9378   3.113   2.866   4.258  0.4169 -0.3722 -0.7488
   18MOL   C165 9379   3.044   2.998   4.273  0.7428  0.0163  0.5216
   18MOL   C166 9380   3.128   3.131   4.254  0.5082  0.6940 -0.0566
   18MOL   C167 9381   3.040   3.256   4.287 -1.2339  0.1663  0.2156
   18MOL   C168 9382   3.110   3.390   4.264  0.3554 -0.4264  0.2547
   18MOL   O169 9383   3.171   3.403   4.135 -0.4651  0.2347  0.2374
   18MOL   C170 9384   3.248   3.507   4.110 -0.4459 -0.0989 -0.5050
   18MOL   O171 9385   3.276   3.589   4.195 -0.3210  0.5525  0.3442
   18MOL   C172 9386   3.299   3.519   3.963  0.8558 -0.6574  0.4505
   18MOL   C173 9387   3.339   3.374   3.909 -0.7034  0.5069 -0.2779
   18MOL   C174 9388   3.183   3.576   3.869  0.0723  0.1654 -0.2242
   18MOL   H175 9389   3.212   2.876   4.303  0.2032 -1.5059 -0.0089
   18MOL   H176 9390   3.120   2.838   4.152  2.4470  0.9323 -0.9976
   18MOL   H177 9391   3.063   2.784   4.309 -0.1324 -0.2498 -1.0834
   18MOL   H178 9392   2.991   3.010   4.368 -1.7788 -0.2936 -0.8030
   18MOL   H179 9393   2.960   3.005   4.204  0.2075  2.3223  1.3430
   18MOL   H180 9394   3.216   3.130   4.318  1.2666  1.0304 -1.0726
   18MOL   H181 9395   3.156   3.138   4.149  0.2412  0.7279 -0.1243
   18MOL   H182 9396   3.003   3.250   4.389 -0.3301 -1.7861  0.4584
   18MOL   H183 9397   2.948   3.254   4.228 -1.2082  0.7659  0.1562
   18MOL   H184 9398   3.194   3.387   4.334  1.2924  0.2784 -0.8059
   18MOL   H185 9399   3.044   3.475   4.284 -0.2823 -1.3559  2.1968
   18MOL   H186 9400   3.403   3.327   3.984  3.0085  2.8357 -1.8514
   18MOL   H187 9401   3.389   3.373   3.812 -2.5580  3.0852 -1.3106
   18MOL   H188 9402   3.253   3.307   3.915 -0.4007  0.1676  0.3120
   18MOL   H189 9403   3.233   3.564   3.773  1.6670  1.0219  0.4855
   18MOL   H190 9404   3.107   3.499   3.874 -1.5930  1.8332  0.7383
   18MOL   C191 9405   3.761   4.175   3.556 -0.4239  0.0369  0.7832
   18MOL   C192 9406   3.672   4.060   3.600  0.0950  0.9660  0.0653
   18MOL   C193 9407   3.566   4.092   3.710 -0.2307 -0.3133  0.4393
   18MOL   C194 9408   3.445   3.997   3.708 -0.2984  0.1475  0.3200
   18MOL   C195 9409   3.358   3.991   3.839  0.9125  0.3700  1.1220
   18MOL   O196 9410   3.281   3.876   3.832  1.1832  0.1826  0.3871
   18MOL   C197 9411   3.198   3.841   3.930  0.1597  0.2653 -0.0891
   18MOL   O198 9412   3.182   3.896   4.036 -0.1433 -0.2289 -0.2426
   18MOL   C199 9413   3.108   3.716   3.888  0.3256 -0.1628  0.2855
   18MOL   C200 9414   2.999   3.703   3.992  1.5074  0.5013  0.2691
   18MOL   C201 9415   3.025   3.755   3.761  0.7801  0.7818  0.1271
   18MOL   H202 9416   3.699   4.258   3.522 -0.8520 -0.8994 -0.7916
   18MOL   H203 9417   3.825   4.201   3.640 -0.9275  0.2463  1.1035
   18MOL   H204 9418   3.827   4.157   3.471  0.1615 -0.4439  1.3390
   18MOL   H205 9419   3.736   3.981   3.638 -1.0979 -0.6952 -1.3260
   18MOL   H206 9420   3.630   4.024   3.507 -2.2880 -0.6934  1.7281
   18MOL   H207 9421   3.538   4.196   3.696  2.3971  0.4449  0.6342
   18MOL   H208 9422   3.607   4.082   3.810 -0.6556 -0.4101  0.6054
   18MOL   H209 9423   3.378   4.015   3.624 -0.6799 -0.8433  0.4099
   18MOL   H210 9424   3.485   3.897   3.692 -1.9269 -0.3638 -0.5929
   18MOL   H211 9425   3.420   3.985   3.928  0.0404 -3.9577  1.5627
   18MOL   H212 9426   3.295   4.080   3.840 -0.4739 -0.4779 -2.7815
   18MOL   H213 9427   3.031   3.685   4.094 -3.7391  1.0832  2.1931
   18MOL   H214 9428   2.930   3.619   3.982  0.1134  1.3622  2.3624
   18MOL   H215 9429   2.940   3.795   3.993  0.7768  0.0893 -1.6046
   18MOL   H216 9430   2.996   3.860   3.762  2.5133  1.3136 -1.5725
   18MOL   H217 9431   2.922   3.723   3.773  0.8606  0.0027 -1.1768
   18MOL   C218 9432   3.259   2.913   3.341  0.0183 -0.1204 -0.0238
   18MOL   C219 9433   3.285   3.065   3.330  0.6441 -0.1615 -0.3805
   18MOL   C220 9434   3.230   3.128   3.459 -0.3661  0.1952  0.1391
   18MOL   C221 9435   3.253   3.275   3.466  0.1943 -0.0043 -0.0511
   18MOL   C222 9436   3.140   3.347   3.551  0.3133 -0.5946  0.3259
   18MOL   O223 9437   3.135   3.490   3.534 -0.1269  0.7885 -0.0340
   18MOL   C224 9438   3.029   3.561   3.589  0.0658  0.2860 -0.0203
   18MOL   O225 9439   2.923   3.509   3.623  0.6610  0.4706 -0.1004
   18MOL   C226 9440   3.051   3.714   3.610 -0.7398  0.3419 -1.1189
   18MOL   C227 9441   3.191   3.747   3.558  0.3771  0.4912 -0.6045
   18MOL   C228 9442   2.943   3.792   3.518 -0.0463  0.8255  0.4277
   18MOL   H229 9443   3.343   2.864   3.391 -0.0527  0.1171  0.3271
   18MOL   H230 9444   3.172   2.888   3.402  1.3339 -1.4897  1.3401
   18MOL   H231 9445   3.236   2.871   3.243  0.2884 -0.8078  0.2056
   18MOL   H232 9446   3.225   3.109   3.251  0.2184 -0.0547  0.0048
   18MOL   H233 9447   3.393   3.079   3.319  0.9844 -2.7538 -0.6404
   18MOL   H234 9448   3.266   3.075   3.547  0.4266  0.8845  0.2383
   18MOL   H235 9449   3.121   3.123   3.465 -0.3394  0.1768  0.6096
   18MOL   H236 9450   3.350   3.309   3.503 -0.7350  3.0380 -0.3177
   18MOL   H237 9451   3.248   3.316   3.366 -1.1658 -0.7933 -0.3145
   18MOL   H238 9452   3.162   3.321   3.655 -1.1296  0.4749  0.9050
   18MOL   H239 9453   3.045   3.305   3.517  0.6105 -0.0546 -1.2085
   18MOL   H240 9454   3.230   3.846   3.580  0.9258 -0.1595  1.4932
   18MOL   H241 9455   3.197   3.736   3.450  0.4010  0.3009 -0.5852
   18MOL   H242 9456   3.275   3.689   3.599 -0.0550 -0.6709 -1.3374
   18MOL   H243 9457   2.848   3.783   3.571  0.5181  0.3142  1.3662
   18MOL   H244 9458   2.932   3.725   3.433  0.9179  2.1260 -0.7317
   18MOL   C245 9459   3.050   3.314   3.015  0.4620 -1.0584  0.1880
   18MOL   C246 9460   3.003   3.466   3.018 -0.0290 -0.2588  0.3726
   18MOL   C247 9461   3.088   3.563   3.104  0.6455 -0.5949 -0.5240
   18MOL   C248 9462   3.076   3.718   3.056  0.4495  0.2783 -0.7247
   18MOL   C249 9463   3.139   3.824   3.153  0.1614 -0.2542  0.2098
   18MOL   O250 9464   3.058   3.828   3.270 -0.0045  0.0012  0.3696
   18MOL   C251 9465   3.067   3.937   3.348  0.8484 -0.6960 -0.4557
   18MOL   O252 9466   3.141   4.031   3.329 -0.0578 -0.5317 -0.3662
   18MOL   C253 9467   2.960   3.935   3.459  0.3311 -0.0514 -0.1586
   18MOL   C254 9468   2.987   4.035   3.578  0.6453  0.1273  0.6465
   18MOL   C255 9469   2.819   3.959   3.386  0.0030  0.0911 -0.8488
   18MOL   H256 9470   3.137   3.305   2.952 -0.3207 -0.5354 -0.9898
   18MOL   H257 9471   3.093   3.284   3.110 -2.3575 -0.5127  1.7133
   18MOL   H258 9472   2.972   3.250   2.975  0.3741  0.3990 -2.0765
   18MOL   H259 9473   3.001   3.511   2.919  0.4697  1.6955  1.2391
   18MOL   H260 9474   2.902   3.472   3.059  0.7035 -0.8119  2.3072
   18MOL   H261 9475   3.190   3.529   3.124  0.5363  0.1828  1.5117
   18MOL   H262 9476   3.054   3.554   3.207  0.1790 -3.6069 -0.8835
   18MOL   H263 9477   3.112   3.737   2.954  1.5939  0.5588 -0.2802
   18MOL   H264 9478   2.970   3.742   3.051 -0.1946 -2.5644 -1.0465
   18MOL   H265 9479   3.244   3.801   3.175  0.4147  1.6828  1.1438
   18MOL   H266 9480   3.128   3.924   3.110 -0.7736 -0.5961 -0.3609
   18MOL   H267 9481   3.084   4.013   3.621  1.6615  1.4835 -0.8871
   18MOL   H268 9482   2.978   4.138   3.542  1.1285 -0.1112 -0.1679
   18MOL   H269 9483   2.907   4.038   3.652 -0.8178  1.5250 -0.9388
   18MOL   H270 9484   2.835   3.913   3.289  1.4708 -0.2810 -0.4400
   18MOL   H271 9485   2.740   3.913   3.446 -0.2240  1.3524 -0.1565
   18MOL   C272 9486   2.580   4.143   4.192  0.1351 -0.1380 -0.9286
   18MOL   C273 9487   2.651   4.094   4.066 -0.2860 -0.2396  0.0478
   18MOL   C274 9488   2.605   4.168   3.939  0.0727  0.4069 -0.1753
   18MOL   C275 9489   2.650   4.110   3.802 -0.7284  0.0538 -0.1245
   18MOL   C276 9490   2.594   4.179   3.679 -0.5213 -0.0818  0.3235
   18MOL   O277 9491   2.659   4.119   3.565  0.5677 -0.0224  0.0971
   18MOL   C278 9492   2.716   4.189   3.470  0.3622  0.7799 -0.1715
   18MOL   O279 9493   2.733   4.314   3.474  0.2625  0.4659 -0.1469
   18MOL   C280 9494   2.764   4.102   3.345  0.2683 -0.2786 -0.3190
   18MOL   C281 9495   2.878   4.187   3.279 -0.2990  0.1653  0.1038
   18MOL   C282 9496   2.656   4.099   3.240  0.2049 -0.9299  0.4512
   18MOL   H283 9497   2.547   4.246   4.180 -2.0894 -0.7243 -0.1520
   18MOL   H284 9498   2.495   4.079   4.216  1.6114 -0.6736  3.4217
   18MOL   H285 9499   2.645   4.138   4.279 -0.2118 -2.0336 -0.7650
   18MOL   H286 9500   2.759   4.105   4.073 -0.3610  0.8233 -0.2909
   18MOL   H287 9501   2.633   3.987   4.060  1.7804 -0.7977  2.9865
   18MOL   H288 9502   2.497   4.156   3.945  0.2862 -1.5017  0.2790
   18MOL   H289 9503   2.627   4.274   3.947  1.1618  0.1950 -0.2451
   18MOL   H290 9504   2.759   4.115   3.804 -0.7510  0.3832  1.3215
   18MOL   H291 9505   2.612   4.008   3.794  0.1229 -0.1804 -1.2032
   18MOL   H292 9506   2.609   4.287   3.674  0.9204 -0.2487  0.7631
   18MOL   H293 9507   2.488   4.161   3.661 -0.4393  1.0705 -1.5567
   18MOL   H294 9508   2.960   4.201   3.350  0.8086  1.7624 -1.4373
   18MOL   H295 9509   2.918   4.141   3.188 -1.5031 -1.6099  0.4347
   18MOL   H296 9510   2.852   4.287   3.246  3.2421  0.5296 -1.9043
   18MOL   H297 9511   2.618   4.199   3.220 -3.5283 -1.2300  5.1707
   18MOL   H298 9512   2.711   4.079   3.148 -0.3715  2.1273 -0.6071
   18MOL   C299 9513   2.013   3.736   2.848  0.0173 -0.1607  0.2017
   18MOL   C300 9514   2.079   3.666   2.966 -0.0948 -0.1147 -0.6729
   18MOL   C301 9515   2.224   3.697   2.994 -0.1478 -0.6453  0.2649
   18MOL   C302 9516   2.276   3.633   3.126 -0.9280  0.4231  0.5398
   18MOL   C303 9517   2.409   3.671   3.174  0.2735 -0.9272 -0.5518
   18MOL   O304 9518   2.416   3.806   3.197 -0.4908  0.3328 -0.0250
   18MOL   C305 9519   2.537   3.866   3.191  0.2196 -0.1475  0.6351
   18MOL   O306 9520   2.651   3.818   3.166  0.6453 -0.4891 -0.4442
   18MOL   C307 9521   2.525   4.017   3.228 -0.1317  0.2197 -0.7840
   18MOL   C308 9522   2.451   4.031   3.365 -0.2711  0.1497 -0.1484
   18MOL   C309 9523   2.418   4.087   3.127  0.2131 -0.1560  0.6747
   18MOL   H310 9524   1.905   3.732   2.863 -0.0243 -0.4137 -0.1589
   18MOL   H311 9525   2.045   3.690   2.755  0.9936 -0.9993  0.9393
   18MOL   H312 9526   2.023   3.845   2.850 -2.3097  0.0684  1.3682
   18MOL   H313 9527   2.060   3.559   2.958  0.5783 -0.2749 -0.2348
   18MOL   H314 9528   2.028   3.693   3.059 -1.6395 -0.2739 -1.4688
   18MOL   H315 9529   2.222   3.806   2.991  1.9604 -0.5454  1.8775
   18MOL   H316 9530   2.283   3.673   2.905 -3.1880 -2.1623 -1.4196
   18MOL   H317 9531   2.265   3.525   3.135 -0.6189  0.4103  0.7743
   18MOL   H318 9532   2.210   3.664   3.207 -1.8698 -1.3146  0.4520
   18MOL   H319 9533   2.433   3.617   3.266  0.0106  1.8568  1.1891
   18MOL   H320 9534   2.491   3.649   3.104  2.0570 -3.1329  2.1369
   18MOL   H321 9535   2.453   4.132   3.407 -0.8273  0.1222 -0.0551
   18MOL   H322 9536   2.345   4.003   3.363 -0.0606 -0.5931 -0.9653
   18MOL   H323 9537   2.487   3.956   3.434  1.4972  1.6376  0.5715
   18MOL   H324 9538   2.393   4.186   3.165  0.7548  0.6810 -1.1207
   18MOL   H325 9539   2.331   4.022   3.134  0.1456 -0.4522 -2.3368
   18MOL   C326 9540   3.006   4.163   2.817  0.3888 -0.2167  0.2912
   18MOL   C327 9541   3.025   4.024   2.752 -0.8331 -0.4331 -0.7321
   18MOL   C328 9542   2.895   3.942   2.732 -0.3904 -0.0550 -0.5595
   18MOL   C329 9543   2.839   3.878   2.855  0.1058 -0.0810 -0.0191
   18MOL   C330 9544   2.695   3.865   2.848  0.2698 -0.6474 -0.9512
   18MOL   O331 9545   2.629   3.981   2.891 -0.8363 -0.6004  0.0233
   18MOL   C332 9546   2.498   3.985   2.903  0.0143 -0.2720  0.5701
   18MOL   O333 9547   2.428   3.890   2.874  0.4004 -0.5718 -0.1445
   18MOL   C334 9548   2.434   4.111   2.970  0.1577  0.7442 -0.6987
   18MOL   C335 9549   2.283   4.131   2.927 -0.2963  1.5733  0.0555
   18MOL   C336 9550   2.525   4.235   2.947  0.0274 -0.1169 -1.0337
   18MOL   H337 9551   2.952   4.235   2.755 -2.9193 -1.1139  2.0570
   18MOL   H338 9552   3.109   4.194   2.838 -0.2538  2.3789 -0.2332
   18MOL   H339 9553   2.952   4.161   2.911  1.7537 -1.9916  1.0809
   18MOL   H340 9554   3.090   3.976   2.826  0.0952  0.6038 -0.8568
   18MOL   H341 9555   3.066   4.033   2.652 -1.6862 -0.9366 -1.1293
   18MOL   H342 9556   2.925   3.865   2.661  0.3621  2.0871 -2.6740
   18MOL   H343 9557   2.818   3.996   2.676 -1.5272 -1.5492 -0.4673
   18MOL   H344 9558   2.849   3.932   2.950  0.2031 -0.4923  0.2036
   18MOL   H345 9559   2.877   3.777   2.866  0.3182 -0.0288 -0.2836
   18MOL   H346 9560   2.661   3.781   2.909  0.3005 -0.9555 -1.3590
   18MOL   H347 9561   2.660   3.840   2.748 -3.8070 -0.6759  0.3927
   18MOL   H348 9562   2.274   4.140   2.819 -4.8740  0.6862  0.2943
   18MOL   H349 9563   2.234   4.211   2.982  1.5481  1.1349  2.4164
   18MOL   H350 9564   2.225   4.042   2.949 -0.6841  1.2923 -1.9495
   18MOL   H351 9565   2.628   4.215   2.977  1.2579  4.9389 -1.5469
   18MOL   H352 9566   2.498   4.305   3.026  2.5137 -0.1605 -0.1051
   18MOL   C353 9567   1.933   4.256   2.532 -0.5827  0.3098  0.2182
   18MOL   C354 9568   2.051   4.340   2.481 -0.0903  0.2550 -0.5524
   18MOL   C355 9569   2.161   4.371   2.584 -0.4204  0.1103  0.8022
   18MOL   C356 9570   2.237   4.494   2.533 -0.0484  0.2659  0.2074
   18MOL   C357 9571   2.305   4.571   2.649  0.3452 -0.1601 -0.5849
   18MOL   O358 9572   2.411   4.482   2.689 -0.5074 -0.2841  0.7827
   18MOL   C359 9573   2.417   4.426   2.804 -0.8339  0.4512  0.2785
   18MOL   O360 9574   2.338   4.439   2.893  0.6371  0.8358 -0.2882
   18MOL   C361 9575   2.539   4.321   2.811  0.1428 -0.0825 -0.2587
   18MOL   C362 9576   2.536   4.223   2.685 -0.0956 -0.1686  0.6329
   18MOL   C363 9577   2.671   4.410   2.804 -0.0242 -0.2251 -0.0598
   18MOL   H364 9578   1.944   4.152   2.499  1.7457  0.7670 -0.5759
   18MOL   H365 9579   1.837   4.290   2.494 -1.1631 -1.9093 -0.3902
   18MOL   H366 9580   1.921   4.264   2.640 -0.7911  0.6470  0.1711
   18MOL   H367 9581   2.090   4.276   2.403  1.2274 -0.9700  1.0670
   18MOL   H368 9582   2.015   4.434   2.439  0.3104  0.5509 -0.2463
   18MOL   H369 9583   2.221   4.286   2.615  0.7993  0.8539  0.5195
   18MOL   H370 9584   2.108   4.403   2.674 -2.0038  2.6325 -0.9780
   18MOL   H371 9585   2.172   4.565   2.481  1.9096 -0.3510 -3.2119
   18MOL   H372 9586   2.301   4.456   2.454 -0.6393 -0.4236  0.0589
   18MOL   H373 9587   2.357   4.662   2.622  1.2697 -0.3838  0.4449
   18MOL   H374 9588   2.230   4.588   2.726 -0.0193  1.5420 -1.2935
   18MOL   H375 9589   2.443   4.170   2.662 -0.3696  0.6470 -0.1961
   18MOL   H376 9590   2.543   4.268   2.586 -2.2141 -1.3522 -0.1048
   18MOL   H377 9591   2.614   4.146   2.688 -1.7255 -1.9754 -1.4046
   18MOL   H378 9592   2.755   4.341   2.804  0.4228  0.3102  0.6016
   18MOL   H379 9593   2.678   4.473   2.715 -0.2466  0.1408  0.1784
   18MOL   C380 9594   2.491   5.122   3.034 -0.3366  0.0189  0.4807
   18MOL   C381 9595   2.407   5.098   2.915  0.5616 -0.0332 -0.2957
   18MOL   C382 9596   2.483   5.049   2.790  0.4987 -0.5543  0.1004
   18MOL   C383 9597   2.575   4.927   2.814 -0.1224  0.0992  0.1137
   18MOL   C384 9598   2.493   4.803   2.848 -0.1234  0.0468 -0.0321
   18MOL   O385 9599   2.581   4.691   2.840  0.6964 -0.4021  0.6473
   18MOL   C386 9600   2.631   4.631   2.949 -0.0356  0.2310  0.5244
   18MOL   O387 9601   2.621   4.672   3.062  0.8120  0.2672  0.0510
   18MOL   C388 9602   2.731   4.512   2.917  0.0682 -0.3101  0.2719
   18MOL   C389 9603   2.775   4.439   3.047 -0.1226  0.3586  0.2051
   18MOL   C390 9604   2.861   4.570   2.851  0.7757 -0.0145  0.1399
   18MOL   H391 9605   2.419   5.156   3.109 -0.6873  0.1899  0.0676
   18MOL   H392 9606   2.531   5.025   3.064 -1.9856 -0.9868 -0.4708
   18MOL   H393 9607   2.574   5.191   3.024  0.0882 -0.5165  0.2655
   18MOL   H394 9608   2.358   5.193   2.894 -1.1044 -0.4240  1.6142
   18MOL   H395 9609   2.319   5.037   2.936 -0.0943 -0.0407 -2.9396
   18MOL   H396 9610   2.416   5.019   2.708 -1.6016  1.4518  1.0330
   18MOL   H397 9611   2.553   5.124   2.755  0.2508 -0.1378  0.4955
   18MOL   H398 9612   2.631   4.908   2.722 -0.7499  0.0577 -0.2613
   18MOL   H399 9613   2.655   4.938   2.888  0.0002 -0.1328  0.0165
   18MOL   H400 9614   2.410   4.783   2.781  0.0976  0.0596 -0.3074
   18MOL   H401 9615   2.439   4.818   2.942  0.2097 -1.5168  0.4295
   18MOL   H402 9616   2.860   4.372   3.038 -0.5756 -0.2648  0.5133
   18MOL   H403 9617   2.698   4.378   3.093  0.4969  0.4003  1.3001
   18MOL   H404 9618   2.804   4.514   3.120  2.0268 -1.2849  1.0795
   18MOL   H405 9619   2.835   4.617   2.756  1.8565  1.0017  0.3424
   18MOL   H406 9620   2.907   4.481   2.808  2.6796  1.0730 -0.1505
   18MOL   C407 9621   3.288   4.337   3.653 -0.5503  0.7047 -0.2901
   18MOL   C408 9622   3.225   4.433   3.547 -0.5436  0.4595 -0.2185
   18MOL   C409 9623   3.245   4.392   3.400 -0.0439  0.0798 -0.2109
   18MOL   C410 9624   3.138   4.464   3.307  0.4051 -0.1963  0.2994
   18MOL   C411 9625   3.165   4.454   3.156 -0.3328 -0.1384 -0.0727
   18MOL   O412 9626   3.063   4.527   3.095  0.3613  0.1060  0.0090
   18MOL   C413 9627   3.088   4.591   2.981 -0.3196 -0.2024  0.7220
   18MOL   O414 9628   3.202   4.584   2.929 -0.6627  0.0867  0.2310
   18MOL   C415 9629   2.971   4.673   2.919  0.6464 -0.1814 -0.6764
   18MOL   C416 9630   3.033   4.750   2.795 -0.1041  0.3089  0.1756
   18MOL   C417 9631   2.907   4.782   3.020 -0.4110  0.4095  0.1285
   18MOL   H418 9632   3.254   4.353   3.756 -0.0701 -0.0628 -0.0046
   18MOL   H419 9633   3.256   4.233   3.650  1.1056  0.2200 -1.7374
   18MOL   H420 9634   3.397   4.337   3.650 -0.4495 -1.7220  1.8981
   18MOL   H421 9635   3.276   4.530   3.556 -0.3495  0.2472  1.2177
   18MOL   H422 9636   3.119   4.432   3.570 -1.2811 -2.3400 -3.5263
   18MOL   H423 9637   3.346   4.421   3.372  0.1445  0.0333  0.4266
   18MOL   H424 9638   3.255   4.286   3.378  2.6676 -0.0775  1.5423
   18MOL   H425 9639   3.139   4.570   3.331  2.7630 -0.2480  0.5672
   18MOL   H426 9640   3.044   4.421   3.341 -0.4950  0.1182 -1.7325
   18MOL   H427 9641   3.267   4.486   3.134  0.2389 -1.1581  1.0301
   18MOL   H428 9642   3.160   4.350   3.124  4.2524 -0.4306 -0.2466
   18MOL   H429 9643   3.123   4.800   2.831 -0.3938  0.6445  0.4269
   18MOL   H430 9644   2.964   4.832   2.778  1.6144  1.7402 -0.1337
   18MOL   H431 9645   3.051   4.679   2.714  1.3799 -1.7528  2.2370
   18MOL   H432 9646   2.869   4.719   3.100 -0.6045  0.4460  0.0655
   18MOL   H433 9647   2.821   4.818   2.964  0.2341  0.5265 -0.8139
   18MOL   C434 9648   2.860   5.639   2.667 -0.2534  0.0775  0.2298
   18MOL   C435 9649   2.895   5.556   2.789 -0.1870  0.6568 -0.6470
   18MOL   C436 9650   2.864   5.403   2.760  0.4614  0.2073  0.0146
   18MOL   C437 9651   2.856   5.312   2.877  0.2567 -0.6461 -0.1746
   18MOL   C438 9652   2.845   5.164   2.831 -0.7326 -0.1619  0.0863
   18MOL   O439 9653   2.856   5.064   2.931  0.0928  0.4018 -0.3910
   18MOL   C440 9654   2.981   5.023   2.975 -0.7217  1.0169 -0.1391
   18MOL   O441 9655   3.091   5.070   2.939 -0.4022 -0.1846  0.4916
   18MOL   C442 9656   2.984   4.906   3.078 -0.4275  0.3627  0.1633
   18MOL   C443 9657   3.135   4.875   3.116 -0.1333 -0.5563  0.0869
   18MOL   C444 9658   2.902   4.960   3.206  0.3861 -0.7696 -0.5096
   18MOL   H445 9659   2.892   5.741   2.691  3.4092 -0.0034 -3.8613
   18MOL   H446 9660   2.914   5.606   2.579  1.5472 -1.1121  1.7646
   18MOL   H447 9661   2.753   5.643   2.645  0.0643 -0.9179 -1.5902
   18MOL   H448 9662   3.000   5.566   2.818 -0.6883 -0.9250  1.9309
   18MOL   H449 9663   2.833   5.585   2.874 -0.5901 -2.3784  0.1431
   18MOL   H450 9664   2.767   5.398   2.710 -0.5322 -0.8274  2.0035
   18MOL   H451 9665   2.934   5.373   2.681 -0.3672  0.8415 -0.9821
   18MOL   H452 9666   2.771   5.342   2.939  0.5930  2.0462 -0.9566
   18MOL   H453 9667   2.938   5.328   2.947  0.3537  2.2774 -0.8937
   18MOL   H454 9668   2.930   5.143   2.766 -1.2945  1.4188 -1.1827
   18MOL   H455 9669   2.760   5.142   2.767  0.1522 -1.4207 -0.6703
   18MOL   H456 9670   3.195   4.871   3.025 -1.1408  4.0091 -0.9293
   18MOL   H457 9671   3.177   4.959   3.171 -0.2381  0.2592 -1.0451
   18MOL   H458 9672   3.149   4.785   3.175 -2.2385 -0.2095  1.1630
   18MOL   H459 9673   2.800   4.955   3.169 -0.0742 -1.2473  0.7752
   18MOL   H460 9674   2.926   5.066   3.214 -1.2034 -0.5403  2.0901
   18MOL   C461 9675   3.502   5.251   3.437  0.0806 -0.4271 -0.5123
   18MOL   C462 9676   3.463   5.218   3.584 -0.0551 -0.6803  0.2994
   18MOL   C463 9677   3.326   5.264   3.614  0.5013 -1.0144  0.2320
   18MOL   C464 9678   3.216   5.225   3.506  0.3651 -0.1636 -0.6145
   18MOL   C465 9679   3.202   5.075   3.498 -0.0970 -0.0889 -0.3184
   18MOL   O466 9680   3.081   5.042   3.430  0.4604 -0.8800  0.1816
   18MOL   C467 9681   3.050   4.914   3.417 -0.6568 -0.6574 -0.2934
   18MOL   O468 9682   3.131   4.826   3.444  0.6355 -0.4176 -0.0397
   18MOL   C469 9683   2.911   4.892   3.352  0.6958  0.0276  0.0675
   18MOL   C470 9684   2.884   4.747   3.352  0.9259  0.5821  0.5606
   18MOL   C471 9685   2.812   4.968   3.457  0.5141  0.6056 -0.2948
   18MOL   H472 9686   3.503   5.359   3.425 -1.1804 -0.2333  0.9644
   18MOL   H473 9687   3.444   5.209   3.355 -0.1790 -0.9204 -0.0846
   18MOL   H474 9688   3.606   5.218   3.432  0.2200  0.1522 -1.3859
   18MOL   H475 9689   3.524   5.266   3.660  1.6682 -1.6750 -0.4145
   18MOL   H476 9690   3.475   5.110   3.587 -0.2147 -0.7235 -0.3812
   18MOL   H477 9691   3.329   5.372   3.630 -0.5243 -1.0738  0.8271
   18MOL   H478 9692   3.298   5.222   3.710  1.1046 -0.6341  0.5780
   18MOL   H479 9693   3.230   5.266   3.406 -0.6543  0.7270 -0.4027
   18MOL   H480 9694   3.115   5.255   3.534 -0.2081  0.2230 -3.0035
   18MOL   H481 9695   3.295   5.034   3.458 -0.0704 -2.0330  1.6805
   18MOL   H482 9696   3.192   5.038   3.600  2.3068 -1.0137 -0.3797
   18MOL   H483 9697   2.887   4.692   3.446 -0.6151 -0.3754  0.0619
   18MOL   H484 9698   2.954   4.698   3.285  0.4784 -0.1402  0.6177
   18MOL   H485 9699   2.785   4.715   3.318  0.3805  2.6702  0.1013
   18MOL   H486 9700   2.831   5.071   3.428 -0.2982  0.8320 -0.0351
   18MOL   H487 9701   2.848   4.947   3.557 -0.1303  1.0590  0.0337
   18MOL   C488 9702   2.966   4.437   3.962  0.2102  0.1760 -0.4099
   18MOL   C489 9703   3.009   4.560   3.870  0.2805 -0.5124  0.1371
   18MOL   C490 9704   2.885   4.625   3.814 -0.0941 -0.5585  0.4293
   18MOL   C491 9705   2.812   4.542   3.705 -0.4710  0.0145  0.0068
   18MOL   C492 9706   2.682   4.611   3.662  0.5013  0.1705  0.2170
   18MOL   O493 9707   2.713   4.737   3.598 -0.4705 -0.1677  0.5039
   18MOL   C494 9708   2.613   4.804   3.533  0.6245  0.4583  0.0815
   18MOL   O495 9709   2.498   4.760   3.519 -0.1368  0.8812 -0.3041
   18MOL   C496 9710   2.656   4.941   3.471  0.2823 -0.0233 -0.7309
   18MOL   C497 9711   2.585   4.955   3.330 -0.3504  0.0501  0.0013
   18MOL   C498 9712   2.593   5.040   3.573  0.3520  0.1755  0.0948
   18MOL   H499 9713   2.918   4.358   3.905  0.1078  1.1787 -1.7334
   18MOL   H500 9714   3.047   4.401   4.025  1.2331 -1.7527 -2.7523
   18MOL   H501 9715   2.892   4.471   4.033 -0.2438 -1.5904 -0.0160
   18MOL   H502 9716   3.084   4.528   3.797  1.7888  2.4593  0.3079
   18MOL   H503 9717   3.058   4.628   3.939  1.3095 -1.4140  0.3153
   18MOL   H504 9718   2.820   4.659   3.894  1.9149  1.1242  1.4097
   18MOL   H505 9719   2.931   4.712   3.767 -1.2253  0.5805  1.4188
   18MOL   H506 9720   2.778   4.442   3.732 -0.5072 -0.7081 -2.5673
   18MOL   H507 9721   2.870   4.524   3.614 -1.3893  1.1241 -0.8189
   18MOL   H508 9722   2.619   4.552   3.596 -1.0179  0.6506  1.2157
   18MOL   H509 9723   2.616   4.624   3.748 -0.4107  0.5394 -0.5326
   18MOL   H510 9724   2.627   5.032   3.266 -1.2565  0.6356  0.1035
   18MOL   H511 9725   2.478   4.967   3.342 -0.8477 -2.0419 -2.0181
   18MOL   H512 9726   2.592   4.869   3.264  0.5286  0.9267 -1.0600
   18MOL   H513 9727   2.618   5.004   3.673 -0.8305  1.0105  0.7085
   18MOL   H514 9728   2.485   5.030   3.577 -0.1897  3.9561 -2.2993
   18MOL   C515 9729   3.004   4.878   4.056 -0.2822  0.1164 -0.7735
   18MOL   C516 9730   2.911   4.988   4.127 -0.2757 -0.3637 -0.4287
   18MOL   C517 9731   2.850   5.098   4.041  0.1726  0.3871  0.1666
   18MOL   C518 9732   2.942   5.181   3.953  0.5869  0.8766 -0.2006
   18MOL   C519 9733   2.937   5.130   3.808 -0.1321 -0.3136  0.3594
   18MOL   O520 9734   2.804   5.131   3.750 -0.2591  0.0594  0.6394
   18MOL   C521 9735   2.778   5.212   3.637 -0.8077 -0.1733  0.2184
   18MOL   O522 9736   2.853   5.303   3.590 -0.1612 -0.4911 -0.3209
   18MOL   C523 9737   2.635   5.194   3.576  0.3155  0.5339 -0.5975
   18MOL   C524 9738   2.546   5.258   3.683  0.1146 -0.0620 -0.0260
   18MOL   C525 9739   2.615   5.270   3.442  0.4619 -0.2941 -0.1550
   18MOL   H526 9740   3.100   4.928   4.040  0.0951 -0.3673 -0.0328
   18MOL   H527 9741   3.027   4.796   4.123  0.3457  0.1695 -0.9196
   18MOL   H528 9742   2.968   4.850   3.957 -1.8040 -0.6693 -0.0167
   18MOL   H529 9743   2.829   4.940   4.180  0.8011 -0.6658  1.0193
   18MOL   H530 9744   2.961   5.029   4.215 -2.1765 -0.3439  0.6593
   18MOL   H531 9745   2.771   5.060   3.975  0.6426  0.4482 -0.4371
   18MOL   H532 9746   2.804   5.166   4.113  1.6040  1.6922 -0.1323
   18MOL   H533 9747   3.040   5.188   4.001  0.1319  1.0838  0.7175
   18MOL   H534 9748   2.904   5.283   3.949  1.3521  1.1480 -0.6627
   18MOL   H535 9749   3.004   5.183   3.740  1.4716 -0.0065  2.1166
   18MOL   H536 9750   2.970   5.026   3.801 -1.6849 -0.8068  0.2350
   18MOL   H537 9751   2.560   5.366   3.684 -0.4293  0.0070  0.4407
   18MOL   H538 9752   2.565   5.234   3.788 -0.7695  1.9065  0.6025
   18MOL   H539 9753   2.439   5.242   3.673 -0.6596  1.3767  4.7921
   18MOL   H540 9754   2.518   5.253   3.396  0.1720  0.5867  0.1165
   18MOL   H541 9755   2.685   5.228   3.369 -1.3314 -1.7443 -1.0716
   18MOL   H542 9756   2.636   5.377   3.443 -2.2071  0.2810 -1.4197
   19MOL     C1 9757   5.330   7.063   6.239  0.1634  1.2113 -0.3787
   19MOL     C2 9758   5.253   7.015   6.116  0.0103 -0.0413 -0.5844
   19MOL     C3 9759   5.103   6.974   6.156 -0.4073  1.2149  0.2799
   19MOL     C4 9760   5.002   6.953   6.040  0.2621  0.5952  0.2349
   19MOL     C5 9761   4.860   6.905   6.084 -0.1713  0.3112 -0.3738
   19MOL     O6 9762   4.865   6.774   6.149 -0.1017  0.2929 -0.2301
   19MOL     C7 9763   4.831   6.665   6.078  0.1747  0.0907 -0.0173
   19MOL     O8 9764   4.771   6.666   5.972 -0.6895 -0.4207 -0.4732
   19MOL     C9 9765   4.861   6.533   6.149  0.6881 -0.1713  0.2125
   19MOL    C10 9766   4.780   6.548   6.281  0.0604  0.5105  0.3494
   19MOL    C11 9767   5.017   6.503   6.168 -0.1238 -0.8631  0.3656
   19MOL    H12 9768   5.291   7.148   6.295  0.0495 -1.1916  3.3621
   19MOL    H13 9769   5.429   7.098   6.212  1.4413 -0.6230  1.7269
   19MOL    H14 9770   5.345   6.980   6.309 -0.8842  0.8202 -0.5960
   19MOL    H15 9771   5.252   7.102   6.050  3.0799  2.1642  2.1362
   19MOL    H16 9772   5.306   6.935   6.064  1.2379 -0.2548  0.9640
   19MOL    H17 9773   5.116   6.884   6.215  1.5234  1.3911  0.1712
   19MOL    H18 9774   5.054   7.034   6.233 -3.9334 -1.1032 -0.0884
   19MOL    H19 9775   5.050   6.902   5.956 -0.1328 -0.8155  0.8465
   19MOL    H20 9776   5.003   7.046   5.984 -0.2977  0.7225  0.4414
   19MOL    H21 9777   4.828   6.977   6.159  0.0758  0.0294  0.0054
   19MOL    H22 9778   4.787   6.904   6.003  0.3185 -0.5070 -0.8177
   19MOL    H23 9779   4.704   6.624   6.299 -1.3828 -1.3188  2.3386
   19MOL    H24 9780   4.852   6.560   6.362  0.6731  1.3781 -0.3164
   19MOL    H25 9781   4.726   6.453   6.292 -1.2247  1.1001 -0.6758
   19MOL    H26 9782   5.018   6.440   6.257  0.8702  0.7035  1.5005
   19MOL    H27 9783   5.066   6.598   6.191  2.1668 -0.9397 -3.6728
   19MOL    H28 9784   4.815   6.453   6.093  0.2077  0.3179 -0.0941
   19MOL    C29 9785   5.775   6.779   6.418  0.0257 -0.4126 -0.4308
   19MOL    C30 9786   5.642   6.811   6.348 -0.3624 -0.5341 -0.2191
   19MOL    C31 9787   5.598   6.700   6.250 -0.7791 -0.0689  0.4130
   19MOL    C32 9788   5.445   6.687   6.232  0.0102  0.0058  1.0287
   19MOL    C33 9789   5.416   6.555   6.166  0.4111  0.5309  0.0769
   19MOL    O34 9790   5.284   6.542   6.127 -0.6021 -0.6815  0.6785
   19MOL    C35 9791   5.240   6.429   6.081 -0.8701  0.5566  0.7573
   19MOL    O36 9792   5.309   6.330   6.055 -0.4353  0.4021 -0.3063
   19MOL    C37 9793   5.086   6.426   6.052 -0.7791  0.0918 -0.1768
   19MOL    C38 9794   5.075   6.504   5.920  0.3125 -0.4819 -0.6951
   19MOL    C39 9795   5.033   6.288   6.018  0.6624 -0.3374 -0.3089
   19MOL    H40 9796   5.785   6.853   6.498  1.4216 -2.7115  1.5767
   19MOL    H41 9797   5.770   6.684   6.470  0.1809  0.6393  1.5796
   19MOL    H42 9798   5.856   6.789   6.346  0.1457 -0.6756 -0.3301
   19MOL    H43 9799   5.623   6.906   6.297 -1.2666 -0.9194 -0.6088
   19MOL    H44 9800   5.565   6.812   6.425 -0.1321 -1.4118  0.0207
   19MOL    H45 9801   5.642   6.607   6.288 -0.3418 -1.1278 -2.5697
   19MOL    H46 9802   5.648   6.719   6.155 -1.5150  1.2070  0.2738
   19MOL    H47 9803   5.393   6.694   6.328  0.5293  0.8431  1.2439
   19MOL    H48 9804   5.402   6.768   6.173 -0.1082 -0.4013  0.5503
   19MOL    H49 9805   5.433   6.481   6.244 -1.6090  0.0924  0.1211
   19MOL    H50 9806   5.480   6.525   6.083 -0.1240 -1.2956  0.3077
   19MOL    H51 9807   4.971   6.506   5.888  0.0071 -0.0435  0.3083
   19MOL    H52 9808   5.137   6.458   5.843 -0.5330 -3.0793  0.1348
   19MOL    H53 9809   5.110   6.607   5.928 -1.9905  0.2264  0.5059
   19MOL    H54 9810   5.108   6.254   5.946 -0.0926 -3.2669  0.2254
   19MOL    H55 9811   4.943   6.297   5.957 -0.6951 -1.7632  1.4558
   19MOL    C56 9812   5.463   5.593   5.784  0.5806 -0.2195 -0.0656
   19MOL    C57 9813   5.456   5.748   5.803 -0.1799 -0.2489 -0.1247
   19MOL    C58 9814   5.309   5.804   5.818 -0.5720  0.5375 -0.3645
   19MOL    C59 9815   5.240   5.783   5.951 -0.2100 -0.3092  0.0023
   19MOL    C60 9816   5.106   5.852   5.935 -0.2281 -0.0929  0.4366
   19MOL    O61 9817   5.109   5.979   6.003 -0.3560  0.0215  0.1881
   19MOL    C62 9818   4.989   6.049   6.031 -0.2792 -0.7988 -0.0589
   19MOL    O63 9819   4.879   6.019   5.988  0.1839  0.2726 -0.2371
   19MOL    C64 9820   5.014   6.170   6.123 -0.0891 -0.2204 -0.3108
   19MOL    C65 9821   4.881   6.189   6.197  0.7431  0.8246  0.0125
   19MOL    C66 9822   5.140   6.151   6.221  0.2760  0.2045 -0.3485
   19MOL    H67 9823   5.548   5.564   5.723  0.1084  0.6057 -1.1386
   19MOL    H68 9824   5.382   5.560   5.718 -1.5104  1.7503  1.4458
   19MOL    H69 9825   5.441   5.531   5.871 -1.0030  0.6615  0.1827
   19MOL    H70 9826   5.519   5.785   5.884  0.8713  1.6846 -1.8103
   19MOL    H71 9827   5.500   5.796   5.716  1.2687 -1.1315  0.1036
   19MOL    H72 9828   5.324   5.911   5.805  1.9705  0.3693  0.8488
   19MOL    H73 9829   5.244   5.775   5.735 -1.5884 -0.0071  0.6148
   19MOL    H74 9830   5.302   5.827   6.029  1.5585 -2.8199  0.1014
   19MOL    H75 9831   5.231   5.676   5.970  1.1074 -0.5640 -0.7355
   19MOL    H76 9832   5.079   5.876   5.833  0.9421  0.3833  0.2340
   19MOL    H77 9833   5.029   5.788   5.980  3.3388 -4.2858  0.9574
   19MOL    H78 9834   4.845   6.099   6.247  0.6104  0.6585 -0.3775
   19MOL    H79 9835   4.804   6.232   6.133  0.4510 -0.1353 -0.2830
   19MOL    H80 9836   4.889   6.257   6.282 -1.2833 -2.4062  2.9450
   19MOL    H81 9837   5.162   6.249   6.263 -2.2727 -0.4961  2.7393
   19MOL    H82 9838   5.220   6.120   6.153  0.6717  0.6541 -0.0929
   19MOL    C83 9839   5.391   6.574   6.722 -0.2266  0.6110  0.2766
   19MOL    C84 9840   5.287   6.633   6.627  0.4434 -0.0647  0.4587
   19MOL    C85 9841   5.203   6.515   6.568 -0.6422 -0.3367  0.2241
   19MOL    C86 9842   5.151   6.410   6.664  0.4181 -0.8408 -0.3061
   19MOL    C87 9843   5.050   6.311   6.596  0.6212 -0.1672 -0.2774
   19MOL    O88 9844   5.105   6.238   6.486  0.4459 -0.0183 -0.3304
   19MOL    C89 9845   5.056   6.110   6.453 -0.7988  0.3935  0.2254
   19MOL    O90 9846   4.970   6.051   6.511 -0.6622  0.5194 -0.3199
   19MOL    C91 9847   5.133   6.045   6.336 -0.4092 -0.1040 -0.4017
   19MOL    C92 9848   5.070   5.907   6.305 -0.0294 -0.0057  0.5115
   19MOL    C93 9849   5.281   6.020   6.383 -0.6269  0.1565 -0.5687
   19MOL    H94 9850   5.427   6.479   6.684 -0.4812 -0.0672  1.7109
   19MOL    H95 9851   5.483   6.631   6.736 -0.4694  0.9395  0.5510
   19MOL    H96 9852   5.363   6.554   6.826 -2.6865  1.8658 -0.0969
   19MOL    H97 9853   5.338   6.685   6.546  0.3403 -1.8520 -0.7940
   19MOL    H98 9854   5.221   6.698   6.684  1.1218 -1.7228  3.2281
   19MOL    H99 9855   5.275   6.460   6.507 -2.2594 -1.3449 -0.7988
   19MOL   H100 9856   5.130   6.562   6.502 -0.8784 -2.4592 -1.0736
   19MOL   H101 9857   5.114   6.450   6.759  0.6050 -0.3084 -0.4520
   19MOL   H102 9858   5.240   6.355   6.695  1.0454  0.3242 -0.0048
   19MOL   H103 9859   4.959   6.358   6.558  0.4846 -1.1609 -1.1860
   19MOL   H104 9860   5.011   6.254   6.681 -0.0210 -0.1550 -0.5575
   19MOL   H105 9861   5.129   5.851   6.233  0.8574 -0.4750  1.5913
   19MOL   H106 9862   4.970   5.906   6.262 -0.8026 -1.3085  2.2891
   19MOL   H107 9863   5.048   5.851   6.396  0.0115  1.8449  1.6798
   19MOL   H108 9864   5.330   5.997   6.289 -2.7376  0.9071 -1.9010
   19MOL   H109 9865   5.316   6.119   6.412  0.9790 -0.0952 -1.6135
   19MOL   C110 9866   5.860   5.741   6.184  0.2236  0.4626 -0.6147
   19MOL   C111 9867   5.744   5.655   6.147  1.0721  0.1673  1.0669
   19MOL   C112 9868   5.626   5.652   6.248  0.4801 -0.2914 -0.0899
   19MOL   C113 9869   5.490   5.617   6.184 -0.8313  1.0046  0.9301
   19MOL   C114 9870   5.373   5.624   6.279 -0.0267 -0.1902 -0.1554
   19MOL   O115 9871   5.349   5.757   6.322 -0.1594  0.7154  0.3708
   19MOL   C116 9872   5.295   5.781   6.439 -0.7904 -0.2429 -0.5658
   19MOL   O117 9873   5.233   5.698   6.504  0.8263 -0.1844 -0.1802
   19MOL   C118 9874   5.328   5.918   6.497  0.4657 -0.0090  1.3511
   19MOL   C119 9875   5.248   5.931   6.633  0.3153  0.4661 -0.1918
   19MOL   C120 9876   5.483   5.925   6.512  0.0606 -0.2261 -0.0907
   19MOL   H121 9877   5.821   5.843   6.195  1.0990  0.7842 -0.4284
   19MOL   H122 9878   5.904   5.708   6.277 -0.5049  2.2041  0.3827
   19MOL   H123 9879   5.925   5.750   6.097  1.6084 -2.2340  0.1033
   19MOL   H124 9880   5.706   5.702   6.056  0.1177  2.5900  2.6584
   19MOL   H125 9881   5.767   5.553   6.117 -2.0194 -0.0277 -0.7970
   19MOL   H126 9882   5.639   5.590   6.337  1.5859 -0.3670 -0.3012
   19MOL   H127 9883   5.612   5.754   6.285 -1.9979 -0.3896 -0.6496
   19MOL   H128 9884   5.493   5.515   6.147 -0.5988  0.8361  1.4118
   19MOL   H129 9885   5.473   5.687   6.102 -1.0098  0.5115  0.5420
   19MOL   H130 9886   5.285   5.595   6.222 -0.7823  1.1629  0.3079
   19MOL   H131 9887   5.390   5.555   6.362  1.1678  0.0739 -0.1713
   19MOL   H132 9888   5.143   5.903   6.628  0.2333  0.7374  0.0236
   19MOL   H133 9889   5.298   5.879   6.715  3.0276  1.1683 -1.3277
   19MOL   H134 9890   5.252   6.037   6.659 -1.5168  0.6210 -0.4987
   19MOL   H135 9891   5.504   5.840   6.577 -2.8218 -1.9298 -1.3176
   19MOL   H136 9892   5.519   5.905   6.411  1.3716 -1.3563  0.5731
   19MOL   C137 9893   5.807   6.027   5.825  0.5499 -0.5752  0.0542
   19MOL   C138 9894   5.689   6.091   5.898  0.0686 -0.1406  0.0294
   19MOL   C139 9895   5.710   6.098   6.044  0.1763  0.1851 -0.5968
   19MOL   C140 9896   5.617   6.197   6.117  0.5422 -0.1846  0.6005
   19MOL   C141 9897   5.661   6.231   6.256 -0.1095  0.1850  0.3733
   19MOL   O142 9898   5.625   6.130   6.343 -0.5180  0.1161 -0.6234
   19MOL   C143 9899   5.571   6.156   6.458  0.0477  1.0615  0.6537
   19MOL   O144 9900   5.517   6.266   6.487  0.4345  0.2638 -0.2694
   19MOL   C145 9901   5.576   6.043   6.556  0.1067 -0.0488  0.1142
   19MOL   C146 9902   5.529   6.095   6.694  0.7989 -0.5369 -0.2424
   19MOL   C147 9903   5.723   5.979   6.553  0.1459 -0.3072  0.1906
   19MOL   H148 9904   5.906   6.068   5.849  0.5965 -1.0608  0.7111
   19MOL   H149 9905   5.794   6.026   5.717  0.3788 -1.0673  0.0816
   19MOL   H150 9906   5.807   5.921   5.850 -2.0343  0.1537  3.5533
   19MOL   H151 9907   5.594   6.043   5.873  0.7168 -1.0161 -0.8142
   19MOL   H152 9908   5.656   6.189   5.865  1.1130  0.3919  0.5602
   19MOL   H153 9909   5.691   5.999   6.084 -2.9702  0.2172 -1.9428
   19MOL   H154 9910   5.814   6.130   6.057 -0.1270  0.2149  2.2112
   19MOL   H155 9911   5.610   6.300   6.081  0.0433 -0.1819  0.6976
   19MOL   H156 9912   5.510   6.177   6.118  0.2956  0.9519 -0.8112
   19MOL   H157 9913   5.642   6.335   6.284 -0.6437  0.3356 -0.5076
   19MOL   H158 9914   5.770   6.228   6.248 -0.1999  0.6008 -1.2084
   19MOL   H159 9915   5.541   6.023   6.775  3.0016 -0.8017 -0.7812
   19MOL   H160 9916   5.425   6.127   6.703 -0.0914 -3.1325 -0.8340
   19MOL   H161 9917   5.581   6.186   6.726 -0.4342  0.6074 -1.4436
   19MOL   H162 9918   5.717   5.881   6.600 -1.8094 -1.0589 -1.5749
   19MOL   H163 9919   5.742   5.951   6.450 -2.9432  0.5894 -0.6844
   19MOL   C164 9920   5.830   5.582   7.359  0.5663  1.0372 -0.8927
   19MOL   C165 9921   5.885   5.638   7.227 -0.5920  0.2062 -0.3112
   19MOL   C166 9922   5.795   5.745   7.165 -0.3825 -0.6412 -0.1794
   19MOL   C167 9923   5.849   5.806   7.042  0.8020 -0.4601  0.0603
   19MOL   C168 9924   5.776   5.927   6.984  0.2543 -0.3007  0.6861
   19MOL   O169 9925   5.802   5.933   6.844  0.6750 -0.5963 -0.0698
   19MOL   C170 9926   5.838   6.041   6.779  0.2679 -0.5538  0.5502
   19MOL   O171 9927   5.846   6.152   6.832 -0.0996  0.1995 -0.4251
   19MOL   C172 9928   5.857   6.035   6.621 -0.0027  0.1093 -0.8535
   19MOL   C173 9929   5.889   6.176   6.574  0.0414  0.0213  0.6828
   19MOL   C174 9930   5.971   5.921   6.584  0.2977 -0.1208  0.9193
   19MOL   H175 9931   5.836   5.653   7.442  0.4707  0.7543 -0.6415
   19MOL   H176 9932   5.900   5.504   7.389  0.6368  1.4918  0.1433
   19MOL   H177 9933   5.727   5.545   7.365  0.3838  1.7756  0.6486
   19MOL   H178 9934   5.904   5.565   7.148 -0.3317  1.0471 -1.0369
   19MOL   H179 9935   5.980   5.675   7.265 -0.2926 -0.8673  0.0015
   19MOL   H180 9936   5.696   5.707   7.141 -0.3720 -1.2444  0.7157
   19MOL   H181 9937   5.782   5.825   7.238  0.4755  0.8524 -1.6285
   19MOL   H182 9938   5.833   5.730   6.966  0.4830  0.0212 -0.3595
   19MOL   H183 9939   5.957   5.821   7.048  0.9581 -0.9998 -1.1861
   19MOL   H184 9940   5.800   6.022   7.032  0.3531 -0.2311  0.4995
   19MOL   H185 9941   5.670   5.904   6.988  0.4327 -1.2215  0.3190
   19MOL   H186 9942   5.899   6.177   6.466 -2.6758  1.1366  0.4192
   19MOL   H187 9943   5.979   6.219   6.619 -1.3144  1.2748  2.2552
   19MOL   H188 9944   5.802   6.234   6.603 -0.1254  0.1346 -0.0413
   19MOL   H189 9945   5.997   5.879   6.681 -2.3266  0.3100  1.8579
   19MOL   H190 9946   5.920   5.836   6.539  0.4586  0.5047 -0.4836
   19MOL   C191 9947   6.421   5.885   7.062  0.2621 -0.1361  0.1280
   19MOL   C192 9948   6.407   6.024   6.990 -0.4308 -0.0306 -0.1685
   19MOL   C193 9949   6.258   6.047   6.992 -0.1928 -0.3734 -0.1573
   19MOL   C194 9950   6.208   6.173   6.926  0.1522 -0.0272 -0.5617
   19MOL   C195 9951   6.240   6.178   6.767 -0.3268 -0.2538 -0.3263
   19MOL   O196 9952   6.169   6.079   6.696  0.1643  0.6493  0.5132
   19MOL   C197 9953   6.194   6.054   6.564 -0.2169 -0.4411  0.1373
   19MOL   O198 9954   6.278   6.116   6.498 -0.5558  0.2725 -0.2565
   19MOL   C199 9955   6.101   5.952   6.496 -0.7034  0.3141 -0.1314
   19MOL   C200 9956   6.064   5.994   6.349  0.2388  0.7242  0.1336
   19MOL   C201 9957   6.185   5.823   6.483  0.4945 -0.4533  0.9463
   19MOL   H202 9958   6.355   5.807   7.025  1.1463 -1.1904  0.7558
   19MOL   H203 9959   6.522   5.844   7.060  0.0612 -0.5893 -2.7339
   19MOL   H204 9960   6.377   5.871   7.161 -0.1133 -1.7030 -0.2601
   19MOL   H205 9961   6.442   6.033   6.887  0.7988 -1.0358  0.1576
   19MOL   H206 9962   6.450   6.103   7.052 -0.5691  0.2536 -0.4293
   19MOL   H207 9963   6.227   6.063   7.095  0.5409  0.0191  0.0074
   19MOL   H208 9964   6.203   5.956   6.968  0.0312 -1.0161  1.7188
   19MOL   H209 9965   6.105   6.203   6.946 -0.0377 -2.0063  1.6857
   19MOL   H210 9966   6.261   6.258   6.967 -2.3812  0.7774  1.1281
   19MOL   H211 9967   6.214   6.278   6.733  0.5104  0.2319  0.4458
   19MOL   H212 9968   6.345   6.157   6.750 -0.7065 -3.2297  0.6562
   19MOL   H213 9969   5.974   5.940   6.318  1.6205 -0.7526 -1.3979
   19MOL   H214 9970   6.136   5.963   6.273  0.1838  0.8233  0.0398
   19MOL   H215 9971   6.054   6.102   6.333 -0.7120  0.5770 -0.2646
   19MOL   H216 9972   6.280   5.854   6.439 -0.2060  2.7669  1.5868
   19MOL   H217 9973   6.142   5.760   6.405  2.8033 -0.3413 -0.4877
   19MOL   C218 9974   5.951   5.151   7.218 -0.2015 -0.1927  0.1153
   19MOL   C219 9975   6.047   5.204   7.112  0.4033  0.1015  0.0929
   19MOL   C220 9976   5.990   5.310   7.017  0.0573  0.1399  0.1031
   19MOL   C221 9977   6.096   5.391   6.938 -0.1653  0.0934  0.3425
   19MOL   C222 9978   6.036   5.483   6.835  0.3242  0.2933 -0.0785
   19MOL   O223 9979   6.127   5.568   6.770  0.0649 -0.1638  0.1248
   19MOL   C224 9980   6.105   5.623   6.650  0.5611 -0.5032 -0.1827
   19MOL   O225 9981   6.000   5.612   6.592 -0.0971 -0.1019 -0.2444
   19MOL   C226 9982   6.225   5.718   6.602  0.1330  0.5025 -0.0059
   19MOL   C227 9983   6.268   5.792   6.731  0.2644 -0.0748  0.6921
   19MOL   C228 9984   6.353   5.626   6.558  0.2535 -0.7277  0.1327
   19MOL   H229 9985   5.867   5.122   7.155  1.5446 -2.1736 -1.3554
   19MOL   H230 9986   5.992   5.068   7.274 -1.0491 -2.3555 -2.3654
   19MOL   H231 9987   5.924   5.227   7.291 -0.6873  1.4578 -1.7330
   19MOL   H232 9988   6.075   5.111   7.062 -2.7140 -0.7007 -0.3069
   19MOL   H233 9989   6.138   5.242   7.157 -0.0311 -0.1540  1.1927
   19MOL   H234 9990   5.920   5.380   7.062  1.2779 -0.6743  3.4074
   19MOL   H235 9991   5.926   5.268   6.940 -0.6353 -1.1402  1.3517
   19MOL   H236 9992   6.160   5.444   7.008 -0.0092 -1.4379  1.3849
   19MOL   H237 9993   6.160   5.321   6.884 -1.1454 -2.1776  2.0122
   19MOL   H238 9994   5.962   5.543   6.888 -0.7877  1.2624 -2.6664
   19MOL   H239 9995   5.994   5.422   6.755  0.1332  0.0238  0.2264
   19MOL   H240 9996   6.333   5.735   6.798  0.9537 -0.6490 -0.4572
   19MOL   H241 9997   6.186   5.840   6.784  0.8360  2.4269 -0.6166
   19MOL   H242 9998   6.330   5.876   6.700  1.6001 -0.8965  1.0863
   19MOL   H243 9999   6.389   5.603   6.658  1.6582  2.8786  0.5253
   19MOL   H24410000   6.422   5.700   6.518  1.9466 -2.0836  0.4891
   19MOL   C24510001   6.490   5.467   7.037  0.1482  0.5062  0.1739
   19MOL   C24610002   6.480   5.402   6.899  0.3553  0.6436  0.1931
   19MOL   C24710003   6.485   5.251   6.901 -0.2192  0.1660 -0.3383
   19MOL   C24810004   6.523   5.182   6.767 -0.2942  0.1195 -0.5371
   19MOL   C24910005   6.420   5.197   6.653 -0.4246  0.0270  0.4303
   19MOL   O25010006   6.413   5.327   6.604 -0.3415  0.4107  0.7457
   19MOL   C25110007   6.311   5.376   6.531 -0.1275 -0.3312  0.5388
   19MOL   O25210008   6.194   5.327   6.526 -0.0380  0.0093  0.5364
   19MOL   C25310009   6.344   5.508   6.454 -0.3846 -0.1831  0.4982
   19MOL   C25410010   6.489   5.495   6.395  0.2833  0.5035  0.1975
   19MOL   C25510011   6.245   5.544   6.335 -0.1672  0.2273 -0.0816
   19MOL   H25610012   6.395   5.458   7.089 -0.3378 -1.2393 -0.9535
   19MOL   H25710013   6.571   5.422   7.095  0.7844  0.1733 -0.9396
   19MOL   H25810014   6.521   5.572   7.037 -0.6706  0.7583 -1.3240
   19MOL   H25910015   6.394   5.433   6.841  1.0932  0.2568 -1.1238
   19MOL   H26010016   6.562   5.436   6.835  0.5263 -0.9959 -0.4630
   19MOL   H26110017   6.395   5.204   6.942  0.5188 -2.3702 -1.5363
   19MOL   H26210018   6.568   5.216   6.963 -0.0029  0.0851 -0.6720
   19MOL   H26310019   6.620   5.222   6.739  0.6831 -2.6464 -1.3514
   19MOL   H26410020   6.551   5.078   6.787  1.0066  0.7711  1.1299
   19MOL   H26510021   6.463   5.137   6.574  1.3828 -0.2839  1.6262
   19MOL   H26610022   6.322   5.156   6.679 -0.2409  0.1707  1.3840
   19MOL   H26710023   6.510   5.576   6.325  2.5253  2.3304  2.8663
   19MOL   H26810024   6.565   5.518   6.470 -0.5182 -4.1035  2.5807
   19MOL   H26910025   6.503   5.400   6.344  1.1269  0.3573  0.7055
   19MOL   H27010026   6.143   5.550   6.373 -1.2957  0.7710 -3.0621
   19MOL   H27110027   6.275   5.642   6.298  1.6036 -0.9062 -1.7537
   19MOL   C27210028   5.631   4.839   6.245  0.0618 -1.1236 -0.3540
   19MOL   C27310029   5.715   4.958   6.198 -0.2522 -0.5534  0.0422
   19MOL   C27410030   5.850   4.975   6.277  0.2782 -0.1941  0.3549
   19MOL   C27510031   5.918   5.111   6.239 -0.8113  0.6680 -1.0117
   19MOL   C27610032   6.061   5.128   6.291  0.1214  0.1530 -0.0088
   19MOL   O27710033   6.090   5.266   6.257  0.1554 -0.3713 -0.6746
   19MOL   C27810034   6.213   5.304   6.226  0.2002  1.2048 -0.2765
   19MOL   O27910035   6.298   5.221   6.200 -0.1079 -0.4400 -0.1760
   19MOL   C28010036   6.230   5.455   6.201 -0.8619 -0.3052  0.0656
   19MOL   C28110037   6.095   5.499   6.136  0.2373  0.1968 -0.0221
   19MOL   C28210038   6.345   5.486   6.093 -0.6173 -0.0577 -0.7963
   19MOL   H28310039   5.674   4.741   6.224 -0.4102 -1.5236  0.5160
   19MOL   H28410040   5.637   4.845   6.354  3.8226 -1.9820 -0.4154
   19MOL   H28510041   5.525   4.844   6.222  0.5625  1.2492 -2.3277
   19MOL   H28610042   5.720   4.968   6.090  2.8980  1.2549  0.3007
   19MOL   H28710043   5.655   5.040   6.235  0.4954 -0.2913  0.6871
   19MOL   H28810044   5.831   4.972   6.385  0.3790 -0.0981  0.3750
   19MOL   H28910045   5.919   4.892   6.260 -0.7343 -1.4839  2.3042
   19MOL   H29010046   5.937   5.121   6.132  0.1100  0.0354 -0.9114
   19MOL   H29110047   5.849   5.187   6.275  0.0483  0.5690  0.8586
   19MOL   H29210048   6.133   5.056   6.254 -3.0147 -3.3544  0.3097
   19MOL   H29310049   6.057   5.114   6.399  0.1860  1.8631  0.2360
   19MOL   H29410050   6.093   5.607   6.121 -0.4215  0.0988 -0.6314
   19MOL   H29510051   6.079   5.452   6.039  0.3963 -1.2042  0.6199
   19MOL   H29610052   6.004   5.484   6.195  0.6040 -0.5577  0.3579
   19MOL   H29710053   6.407   5.567   6.130  0.9795 -0.8798 -1.6170
   19MOL   H29810054   6.413   5.402   6.108 -2.5682 -1.3952  0.8492
   19MOL   C29910055   6.220   6.312   6.095  0.2464 -0.0541 -0.3839
   19MOL   C30010056   6.323   6.203   6.057  0.0000  0.3600  0.3928
   19MOL   C30110057   6.245   6.083   5.996 -0.2163  0.1268  0.3636
   19MOL   C30210058   6.326   5.953   5.999 -0.3345  0.0012 -0.1628
   19MOL   C30310059   6.239   5.842   5.935 -0.4832  0.2338 -0.1173
   19MOL   O30410060   6.300   5.720   5.957 -0.4481  0.1995 -0.2734
   19MOL   C30510061   6.259   5.610   5.893 -0.2345 -0.4061 -0.0637
   19MOL   O30610062   6.161   5.599   5.824 -0.1841  0.3435 -0.3047
   19MOL   C30710063   6.343   5.488   5.935 -0.2484  0.8896 -0.0218
   19MOL   C30810064   6.492   5.519   5.899  0.1783  0.0493  0.5245
   19MOL   C30910065   6.300   5.353   5.865  0.3634  0.6010 -0.0816
   19MOL   H31010066   6.174   6.347   6.003 -1.2106 -2.3985 -0.5797
   19MOL   H31110067   6.275   6.399   6.131 -1.3663  0.6901  0.3491
   19MOL   H31210068   6.137   6.281   6.158 -0.9048  3.3169 -0.1149
   19MOL   H31310069   6.361   6.171   6.154 -2.0439  1.7006  1.6831
   19MOL   H31410070   6.408   6.241   5.999 -0.1712  1.1134  0.6214
   19MOL   H31510071   6.226   6.113   5.892  0.9577  0.1642  0.1469
   19MOL   H31610072   6.149   6.070   6.046 -0.8824  1.9495 -0.3931
   19MOL   H31710073   6.350   5.937   6.104  1.1525  2.4598 -0.0898
   19MOL   H31810074   6.416   5.979   5.943 -0.3276  1.9871  0.7096
   19MOL   H31910075   6.139   5.847   5.979 -0.4877  1.4754 -0.2633
   19MOL   H32010076   6.231   5.868   5.829  4.3846  1.8544 -0.2063
   19MOL   H32110077   6.523   5.611   5.947 -2.9995  0.9941  0.8713
   19MOL   H32210078   6.567   5.452   5.942 -0.6850 -0.0839  1.8326
   19MOL   H32310079   6.522   5.537   5.796 -0.0351  0.9333  0.6174
   19MOL   H32410080   6.194   5.343   5.888  0.2188  2.9247  0.4055
   19MOL   H32510081   6.352   5.283   5.931  0.7310  1.3298  0.4148
   19MOL   C32610082   6.674   5.946   5.710 -0.0786 -0.4718 -0.4609
   19MOL   C32710083   6.631   5.866   5.587  0.2814  0.4900  0.1357
   19MOL   C32810084   6.503   5.777   5.607  0.3453  0.1098 -0.2685
   19MOL   C32910085   6.462   5.699   5.475  0.3516  0.5582 -0.0186
   19MOL   C33010086   6.333   5.611   5.505  0.0625 -0.4064 -0.2156
   19MOL   O33110087   6.368   5.503   5.591  0.2687  0.1006  0.0376
   19MOL   C33210088   6.277   5.414   5.615  0.7512  0.8884 -0.3312
   19MOL   O33310089   6.170   5.408   5.559  0.4307  0.6676  0.0228
   19MOL   C33410090   6.330   5.305   5.718 -0.4336 -0.0264 -0.3329
   19MOL   C33510091   6.480   5.268   5.706  0.6869 -0.4211  0.3796
   19MOL   C33610092   6.242   5.174   5.715 -0.8702 -0.2967 -0.4364
   19MOL   H33710093   6.757   6.011   5.683 -0.7302 -0.1862 -1.8364
   19MOL   H33810094   6.699   5.886   5.797  1.1479  3.0375  1.6751
   19MOL   H33910095   6.594   6.009   5.750 -1.8933 -2.1431 -1.3761
   19MOL   H34010096   6.717   5.802   5.566 -0.2692 -0.1812 -0.1096
   19MOL   H34110097   6.618   5.928   5.499 -1.7773  1.3343  1.0048
   19MOL   H34210098   6.418   5.839   5.635  0.5551 -0.0686  0.7735
   19MOL   H34310099   6.508   5.727   5.703  0.1610  0.8140  0.1109
   19MOL   H34410100   6.544   5.634   5.447  1.3031  2.6587 -2.2077
   19MOL   H34510101   6.439   5.761   5.389  0.5458  2.3940  1.2214
   19MOL   H34610102   6.302   5.576   5.407 -1.3049 -0.9354  0.3939
   19MOL   H34710103   6.255   5.673   5.549  1.2472  0.4606  0.6903
   19MOL   H34810104   6.550   5.350   5.718  1.4577 -0.8372 -1.1700
   19MOL   H34910105   6.502   5.229   5.606 -0.4420 -2.2215  0.8049
   19MOL   H35010106   6.508   5.191   5.778 -0.6417 -1.0153  0.2684
   19MOL   H35110107   6.140   5.208   5.735 -0.9701 -0.8071 -0.0398
   19MOL   H35210108   6.279   5.123   5.804 -0.3378 -1.1139 -1.1206
   19MOL   C35310109   6.591   4.606   6.110 -0.2464  0.9520  0.2101
   19MOL   C35410110   6.569   4.604   5.961 -0.5757  0.0720  0.0808
   19MOL   C35510111   6.571   4.741   5.895  0.3314 -1.0532 -0.0773
   19MOL   C35610112   6.578   4.726   5.742  0.6846 -0.4948  0.2542
   19MOL   C35710113   6.554   4.857   5.667  0.5868 -0.2581 -0.2686
   19MOL   O35810114   6.427   4.921   5.683  0.1536  0.3387 -0.0196
   19MOL   C35910115   6.383   5.002   5.581  0.2678  0.1144 -0.6462
   19MOL   O36010116   6.447   5.019   5.480 -0.1528  0.3826 -0.1726
   19MOL   C36110117   6.243   5.058   5.599 -0.1770 -0.3823 -0.3967
   19MOL   C36210118   6.192   5.121   5.465 -0.0006  0.8365  0.4353
   19MOL   C36310119   6.135   4.950   5.636 -0.2500 -0.7238  0.2288
   19MOL   H36410120   6.686   4.648   6.142  0.1478 -0.2148  0.6079
   19MOL   H36510121   6.569   4.511   6.159  0.2008  0.7638  0.0465
   19MOL   H36610122   6.524   4.677   6.158 -0.5426  0.7589  0.0895
   19MOL   H36710123   6.647   4.539   5.920  0.0747  0.2134  1.1000
   19MOL   H36810124   6.478   4.553   5.929  1.4547 -3.2830 -0.6909
   19MOL   H36910125   6.655   4.798   5.933  0.5134 -0.4408 -1.3822
   19MOL   H37010126   6.485   4.797   5.929 -0.0339 -0.2984 -2.1463
   19MOL   H37110127   6.499   4.661   5.706  1.8962 -1.9811  0.2371
   19MOL   H37210128   6.668   4.675   5.709 -1.1983 -2.2014 -2.3423
   19MOL   H37310129   6.633   4.929   5.688  0.8891  0.0249 -2.2912
   19MOL   H37410130   6.560   4.830   5.562 -0.7818 -0.0048 -0.4276
   19MOL   H37510131   6.260   5.199   5.434  1.4660 -0.9577 -1.0004
   19MOL   H37610132   6.211   5.051   5.384 -2.6528 -0.3986  0.8187
   19MOL   H37710133   6.090   5.160   5.469 -0.6123 -0.8098  2.3516
   19MOL   H37810134   6.172   4.918   5.733  2.4330 -2.2379 -1.2536
   19MOL   H37910135   6.041   5.004   5.652 -0.3248 -1.3919  2.0997
   19MOL   C38010136   5.521   5.369   5.179 -0.4525  0.4311 -0.1470
   19MOL   C38110137   5.580   5.312   5.307 -0.4819  0.2957 -0.6085
   19MOL   C38210138   5.624   5.163   5.291 -0.6618 -0.3430  0.0094
   19MOL   C38310139   5.726   5.110   5.407 -0.0861 -0.0269  0.2353
   19MOL   C38410140   5.826   5.013   5.345 -0.0528  0.2225  0.3911
   19MOL   O38510141   5.920   4.976   5.449  0.1079 -0.0342  0.3361
   19MOL   C38610142   5.991   4.868   5.424  0.2855 -0.0724  0.7934
   19MOL   O38710143   5.995   4.805   5.320 -0.6069 -0.2158 -0.1735
   19MOL   C38810144   6.084   4.827   5.542 -0.3241 -0.8440 -0.3418
   19MOL   C38910145   6.213   4.762   5.483 -0.1376  0.2213 -0.4479
   19MOL   C39010146   6.017   4.715   5.629  0.0580  0.8875 -0.3902
   19MOL   H39110147   5.430   5.315   5.151  0.8806 -0.7218 -2.3809
   19MOL   H39210148   5.491   5.473   5.195 -0.6429  0.2344  0.8162
   19MOL   H39310149   5.576   5.360   5.085 -2.8884 -0.1922 -1.5840
   19MOL   H39410150   5.523   5.331   5.398  0.9747 -1.7416  0.7528
   19MOL   H39510151   5.666   5.376   5.325 -1.4281  0.9551  1.7305
   19MOL   H39610152   5.541   5.092   5.285 -2.3295  1.5014  0.9003
   19MOL   H39710153   5.682   5.141   5.202  0.5674 -1.2077  1.0125
   19MOL   H39810154   5.776   5.196   5.453  0.5919 -0.6748  0.7253
   19MOL   H39910155   5.655   5.070   5.480 -0.0671 -1.8216 -0.7086
   19MOL   H40010156   5.887   5.072   5.276 -1.4213  0.6411 -0.4765
   19MOL   H40110157   5.773   4.935   5.290  1.3353  0.2553 -1.0215
   19MOL   H40210158   6.292   4.732   5.552  0.1168  0.5608 -0.5892
   19MOL   H40310159   6.264   4.811   5.400  1.1914 -2.2980 -1.1668
   19MOL   H40410160   6.190   4.667   5.434 -1.3335  0.1194  0.2827
   19MOL   H40510161   6.094   4.684   5.700 -0.2609  1.6352  0.2925
   19MOL   H40610162   6.016   4.629   5.562 -0.6683  1.3840 -1.0188
   19MOL   C40710163   5.836   5.561   5.828 -0.0571  0.3922 -0.2331
   19MOL   C40810164   5.830   5.435   5.748  0.1915 -0.3630  0.3629
   19MOL   C40910165   5.781   5.306   5.825 -0.3544  0.1233  0.4275
   19MOL   C41010166   5.775   5.176   5.746 -0.3351 -0.4692  0.1158
   19MOL   C41110167   5.757   5.048   5.830 -0.4364  0.4394 -0.8463
   19MOL   O41210168   5.773   4.931   5.755  0.0456  0.3451 -0.7374
   19MOL   C41310169   5.872   4.843   5.782 -0.1547 -0.1852  0.0622
   19MOL   O41410170   5.959   4.853   5.869  0.2890  0.5123  0.3165
   19MOL   C41510171   5.876   4.714   5.702  0.4155  0.0578  0.9085
   19MOL   C41610172   5.759   4.699   5.609 -0.0733 -0.5806  0.2721
   19MOL   C41710173   5.887   4.583   5.794  0.9379  0.5994  0.0605
   19MOL   H41810174   5.877   5.645   5.771  1.6041  0.3335  0.8753
   19MOL   H41910175   5.734   5.590   5.857  0.2655  0.8652  0.4411
   19MOL   H42010176   5.894   5.543   5.918  0.1035 -2.9282 -0.9446
   19MOL   H42110177   5.933   5.418   5.716 -0.2793 -2.1859 -0.3144
   19MOL   H42210178   5.767   5.453   5.661  0.7795 -1.4805 -0.3164
   19MOL   H42310179   5.855   5.283   5.901 -0.3611 -1.0261  0.0961
   19MOL   H42410180   5.689   5.333   5.878 -1.4676  1.0624 -1.9006
   19MOL   H42510181   5.865   5.162   5.685 -0.1189 -0.3457  0.4062
   19MOL   H42610182   5.693   5.188   5.675 -0.4107  0.6240  0.3802
   19MOL   H42710183   5.828   5.047   5.913 -1.3387 -1.3430 -0.0765
   19MOL   H42810184   5.654   5.049   5.865 -0.6997 -1.9327 -1.5000
   19MOL   H42910185   5.659   4.710   5.652 -0.3541  1.0328 -0.7587
   19MOL   H43010186   5.764   4.600   5.564  2.0017 -1.0439  1.4663
   19MOL   H43110187   5.759   4.776   5.533  1.0169  0.5877  1.4220
   19MOL   H43210188   5.968   4.616   5.858  2.8723 -1.3932 -1.2574
   19MOL   H43310189   5.931   4.502   5.735  0.6485 -0.1466  0.8584
   19MOL   C43410190   5.458   3.954   6.000 -0.4066  0.2673  0.0054
   19MOL   C43510191   5.358   4.073   6.011  0.3324 -0.1477 -0.2035
   19MOL   C43610192   5.421   4.204   5.981 -0.0863 -0.7524 -0.2459
   19MOL   C43710193   5.431   4.230   5.823  0.2463  0.1674  0.8443
   19MOL   C43810194   5.427   4.375   5.779 -0.0726 -0.8639 -0.4499
   19MOL   O43910195   5.533   4.442   5.840 -0.1416  0.1222 -0.0746
   19MOL   C44010196   5.656   4.452   5.780 -0.1367  0.5522  0.0668
   19MOL   O44110197   5.680   4.398   5.674 -0.0865 -0.8174  0.6966
   19MOL   C44210198   5.766   4.518   5.868  0.0233 -0.1526  0.0654
   19MOL   C44310199   5.711   4.636   5.948  0.2425 -0.0639 -0.5200
   19MOL   C44410200   5.807   4.409   5.972 -0.0123 -0.0709  0.2091
   19MOL   H44510201   5.412   3.862   6.035 -0.4499  0.8000  1.3642
   19MOL   H44610202   5.484   3.930   5.897 -1.2128  0.8765 -0.3461
   19MOL   H44710203   5.548   3.972   6.059  0.2854 -0.9359 -0.6653
   19MOL   H44810204   5.272   4.047   5.948  1.2795 -0.0838 -1.5546
   19MOL   H44910205   5.331   4.054   6.115 -0.4438  1.6683 -0.0545
   19MOL   H45010206   5.364   4.286   6.025  0.2795 -1.0677  0.8208
   19MOL   H45110207   5.520   4.218   6.023  0.7420 -0.9291 -2.0772
   19MOL   H45210208   5.351   4.170   5.778 -1.1270  1.3300  1.6753
   19MOL   H45310209   5.520   4.177   5.788 -0.4368 -0.3645 -0.1333
   19MOL   H45410210   5.336   4.425   5.813  0.9191  0.7567 -0.1101
   19MOL   H45510211   5.431   4.386   5.671  2.5207  1.6792 -0.1617
   19MOL   H45610212   5.639   4.594   6.017  1.7539  1.1464  1.8575
   19MOL   H45710213   5.780   4.686   6.016  0.6640  0.4816 -1.3257
   19MOL   H45810214   5.654   4.707   5.889 -1.8679 -0.2928  1.2010
   19MOL   H45910215   5.713   4.377   6.018 -0.5447  1.3705  0.1720
   19MOL   H46010216   5.845   4.465   6.058 -3.1403  0.4884  1.3086
   19MOL   C46110217   6.238   4.835   6.371  0.3589  0.1395 -0.1166
   19MOL   C46210218   6.245   4.816   6.220  0.4130 -0.1274  0.5925
   19MOL   C46310219   6.216   4.673   6.180  0.4272  0.7238 -0.2857
   19MOL   C46410220   6.195   4.651   6.033 -0.3665 -0.2075 -1.1106
   19MOL   C46510221   6.203   4.513   5.979 -0.5622 -0.4088 -0.3342
   19MOL   O46610222   6.084   4.446   5.999 -0.0948 -0.4050 -0.5331
   19MOL   C46710223   6.048   4.344   5.921  0.3184  0.4657  0.5224
   19MOL   O46810224   6.120   4.301   5.836  0.0522  0.0121  0.3019
   19MOL   C46910225   5.903   4.289   5.959 -0.1234  0.6272 -0.0547
   19MOL   C47010226   5.862   4.191   5.845 -0.2121 -0.0021 -0.3225
   19MOL   C47110227   5.900   4.222   6.102  0.6900  0.4104  0.2599
   19MOL   H47210228   6.135   4.806   6.393 -0.0055 -0.5195 -2.5464
   19MOL   H47310229   6.257   4.937   6.403  3.3688  0.0844 -1.5968
   19MOL   H47410230   6.297   4.761   6.425  0.1667 -0.5346 -0.8236
   19MOL   H47510231   6.346   4.838   6.186  0.4077 -0.9229  0.0366
   19MOL   H47610232   6.179   4.886   6.169 -0.3872 -0.9057  0.5405
   19MOL   H47710233   6.132   4.635   6.239  0.8779 -2.6531 -1.7195
   19MOL   H47810234   6.293   4.603   6.212 -1.8296 -2.5295 -1.7561
   19MOL   H47910235   6.274   4.712   5.989  0.4288  0.0980  0.7174
   19MOL   H48010236   6.106   4.705   5.999  0.6855  1.4783 -1.1984
   19MOL   H48110237   6.213   4.517   5.870 -1.2557  2.9100 -0.3159
   19MOL   H48210238   6.282   4.458   6.031  0.3699  1.1658 -0.0472
   19MOL   H48310239   5.874   4.235   5.746 -0.9907  4.3723  1.3931
   19MOL   H48410240   5.761   4.155   5.861 -0.4138  0.5175 -0.4257
   19MOL   H48510241   5.926   4.102   5.848 -2.6778 -1.7798  1.2279
   19MOL   H48610242   5.799   4.181   6.105  1.5143 -1.6669  0.7844
   19MOL   H48710243   5.893   4.307   6.171 -2.2312  2.7940 -2.8125
   19MOL   C48810244   5.525   4.378   6.315 -0.4597  0.1790 -0.1564
   19MOL   C48910245   5.582   4.256   6.383 -0.4439  0.0435 -0.1669
   19MOL   C49010246   5.561   4.117   6.323 -0.5131  0.0652  0.8909
   19MOL   C49110247   5.611   4.004   6.414 -0.9592 -0.2477 -0.0446
   19MOL   C49210248   5.764   3.999   6.434 -0.2723  0.0602 -0.1860
   19MOL   O49310249   5.835   4.015   6.306 -0.6703 -0.0933 -0.1766
   19MOL   C49410250   5.939   4.089   6.302 -0.9989 -0.2548 -0.0148
   19MOL   O49510251   5.990   4.136   6.405  0.6642  0.3826  0.0464
   19MOL   C49610252   5.997   4.109   6.155 -0.5136  0.3047  0.1246
   19MOL   C49710253   6.149   4.167   6.164 -0.1789  0.3119 -0.4943
   19MOL   C49810254   5.994   3.976   6.063 -0.0284  0.7898  0.2402
   19MOL   H49910255   5.417   4.373   6.300 -0.6851 -1.2936  1.7619
   19MOL   H50010256   5.522   4.463   6.384 -0.6223  0.1238 -0.0955
   19MOL   H50110257   5.582   4.392   6.224  1.0144 -0.0776  0.7178
   19MOL   H50210258   5.510   4.255   6.465 -0.9531  1.3926 -0.5739
   19MOL   H50310259   5.681   4.265   6.429  0.0115 -0.9786 -0.9357
   19MOL   H50410260   5.454   4.098   6.312  0.0229 -2.2048 -0.7702
   19MOL   H50510261   5.602   4.105   6.223  0.1639  1.0792  1.0439
   19MOL   H50610262   5.587   3.903   6.381  0.7622 -1.0354  1.0459
   19MOL   H50710263   5.563   4.015   6.511 -0.0010 -1.0085  0.5195
   19MOL   H50810264   5.785   4.078   6.506  1.4000 -1.3220  0.8656
   19MOL   H50910265   5.793   3.901   6.472  0.0622  0.3185  0.2278
   19MOL   H51010266   6.199   4.140   6.258  0.9639  1.1475 -0.8449
   19MOL   H51110267   6.143   4.275   6.170  0.5954  0.4501 -2.0182
   19MOL   H51210268   6.209   4.134   6.079  0.1556 -2.2827  0.6813
   19MOL   H51310269   6.048   4.008   5.975 -0.3251  0.8426  0.0762
   19MOL   H51410270   5.895   3.948   6.028 -0.7411  1.7555  1.4317
   19MOL   C51510271   5.398   3.634   5.864 -0.4193  0.8188 -0.4568
   19MOL   C51610272   5.448   3.522   5.964 -0.4655  0.1698  0.0740
   19MOL   C51710273   5.526   3.562   6.094 -0.0607  0.3604  0.1505
   19MOL   C51810274   5.660   3.630   6.058  0.6822 -0.0593 -0.7778
   19MOL   C51910275   5.745   3.662   6.177 -0.6483  0.2334 -0.6851
   19MOL   O52010276   5.851   3.749   6.127  0.3201  0.0272 -0.5277
   19MOL   C52110277   5.971   3.753   6.180 -0.5281 -0.0756  0.2595
   19MOL   O52210278   5.991   3.709   6.292 -0.0709 -0.2397  0.1562
   19MOL   C52310279   6.065   3.839   6.098  0.5204 -0.1517  0.2263
   19MOL   C52410280   6.204   3.853   6.174  0.0910  0.1415 -0.3294
   19MOL   C52510281   6.091   3.758   5.971  0.4726 -0.6301  0.5925
   19MOL   H52610282   5.354   3.584   5.777  1.0512 -0.4267 -0.5006
   19MOL   H52710283   5.331   3.707   5.909 -1.8576 -0.2583 -0.8299
   19MOL   H52810284   5.480   3.696   5.828 -0.0548 -0.6404 -2.2464
   19MOL   H52910285   5.370   3.451   5.990  0.4582 -0.6994  0.5324
   19MOL   H53010286   5.512   3.468   5.893  1.0846 -0.5745  1.9983
   19MOL   H53110287   5.461   3.634   6.143 -0.2617 -0.3664  0.9623
   19MOL   H53210288   5.541   3.481   6.165 -2.5727  0.7290  1.1514
   19MOL   H53310289   5.642   3.722   6.003 -0.8068  0.1885  0.0898
   19MOL   H53410290   5.719   3.566   5.993  0.9885 -0.1720 -0.3885
   19MOL   H53510291   5.694   3.718   6.255 -1.6218 -0.8986 -0.4976
   19MOL   H53610292   5.796   3.575   6.217 -1.3073  0.4142  0.5658
   19MOL   H53710293   6.257   3.759   6.191 -0.6540  0.2230  2.7441
   19MOL   H53810294   6.177   3.891   6.273 -2.8482  1.1316 -1.4533
   19MOL   H53910295   6.267   3.932   6.135 -0.9804  1.1921  0.0522
   19MOL   H54010296   6.120   3.657   6.000  0.0914 -1.6481 -2.4000
   19MOL   H54110297   6.175   3.800   5.916 -0.4622  0.0613 -0.3388
   19MOL   H54210298   6.009   3.748   5.899 -0.3303  0.1881  1.3825
   20MOL     C110299   7.791   2.121   5.639 -0.1328  0.1780 -0.6671
   20MOL     C210300   7.792   2.221   5.761  0.1642  0.1936  0.5850
   20MOL     C310301   0.053   2.176   5.887 -0.2790 -0.0865  0.5412
   20MOL     C410302   0.040   2.272   6.001 -0.3244  0.0770 -0.4507
   20MOL     C510303   0.133   2.397   5.996  1.0583 -0.1133  0.2533
   20MOL     O610304   0.105   2.487   6.104  0.1044  0.7273  0.4273
   20MOL     C710305   0.156   2.465   6.228  0.1476  0.0588  0.0394
   20MOL     O810306   0.238   2.374   6.244 -0.2659 -0.3079 -0.6410
   20MOL     C910307   0.115   2.570   6.333  0.3369 -0.2308 -0.6447
   20MOL    C1010308   0.230   2.673   6.344  0.2551  0.1101 -0.3305
   20MOL    C1110309   0.087   2.512   6.476  0.3549  0.2264 -0.6222
   20MOL    H1210310   0.074   2.124   5.589  0.0318  4.1799 -0.2752
   20MOL    H1310311   7.703   2.143   5.578 -0.3057  2.2010  0.2600
   20MOL    H1410312   7.767   2.030   5.692 -1.9668  1.0782  0.0947
   20MOL    H1510313   0.028   2.312   5.730 -0.5078  0.7342  1.0903
   20MOL    H1610314   7.685   2.237   5.774  0.6710  4.0782  0.6141
   20MOL    H1710315   0.003   2.082   5.912 -0.7259 -0.9717 -3.3673
   20MOL    H1810316   0.157   2.153   5.865  0.4026  1.5399  1.9676
   20MOL    H1910317   0.071   2.224   6.093 -2.0653 -0.2482 -0.0195
   20MOL    H2010318   7.750   2.295   6.023 -0.0430  3.0404 -1.8572
   20MOL    H2110319   0.238   2.365   5.997  0.7594 -1.1073  1.8590
   20MOL    H2210320   0.127   2.462   5.908 -0.5561 -1.0199 -0.3133
   20MOL    H2310321   0.323   2.634   6.385 -0.1655  1.3473  1.9171
   20MOL    H2410322   0.204   2.755   6.411  0.2241 -0.5011  0.4254
   20MOL    H2510323   0.262   2.719   6.251 -0.8160  3.1111  0.7018
   20MOL    H2610324   0.091   2.601   6.540 -2.2942  0.5920 -0.9034
   20MOL    H2710325   0.172   2.456   6.514  0.5314  0.9384  0.0429
   20MOL    H2810326   0.018   2.610   6.302  0.6994  1.5630  0.5244
   20MOL    C2910327   0.599   2.084   6.595 -0.7393  0.4912  0.3268
   20MOL    C3010328   0.466   2.019   6.606 -0.4629 -0.1667 -0.4454
   20MOL    C3110329   0.354   2.100   6.539 -0.2742 -0.5511 -0.4644
   20MOL    C3210330   0.221   2.023   6.544  0.2599 -0.0211  0.2097
   20MOL    C3310331   0.108   2.085   6.456  0.5926 -0.5740  0.0713
   20MOL    O3410332   0.088   2.220   6.486 -0.5262 -0.0907 -0.3995
   20MOL    C3510333   7.793   2.286   6.444  0.0629 -0.2038 -0.0692
   20MOL    O3610334   7.706   2.233   6.369  0.1162  0.0621  0.0472
   20MOL    C3710335   7.776   2.427   6.504 -0.1956  0.2490  0.4456
   20MOL    C3810336   7.655   2.503   6.437 -0.6908 -0.1341  0.2153
   20MOL    C3910337   7.756   2.429   6.658 -0.6826 -0.5174 -0.9119
   20MOL    H4010338   0.675   2.052   6.667  2.3469 -0.2113 -3.1004
   20MOL    H4110339   0.639   2.077   6.494  0.5574 -1.5749  0.9336
   20MOL    H4210340   0.590   2.191   6.611  1.4174  0.6936  0.3218
   20MOL    H4310341   0.435   1.995   6.708  1.0164 -1.2428 -0.2404
   20MOL    H4410342   0.461   1.921   6.560 -0.7576 -1.0257  1.3528
   20MOL    H4510343   0.378   2.135   6.439 -0.3215 -0.2196 -0.3610
   20MOL    H4610344   0.334   2.189   6.600  0.4888 -0.0154 -0.9912
   20MOL    H4710345   0.243   1.923   6.506  1.0469  0.0869  0.3673
   20MOL    H4810346   0.193   2.010   6.649  1.0875 -2.4136  0.1669
   20MOL    H4910347   0.014   2.032   6.473  1.3543 -1.3903  1.8057
   20MOL    H5010348   0.130   2.077   6.349  0.4292  0.4538 -0.0473
   20MOL    H5110349   7.661   2.511   6.329 -1.8616  1.8743  0.2703
   20MOL    H5210350   7.648   2.607   6.472  0.9618  0.1296 -0.2176
   20MOL    H5310351   7.566   2.442   6.451 -0.3009 -0.0247  3.7482
   20MOL    H5410352   7.725   2.532   6.676 -1.6321 -1.2854  2.1768
   20MOL    H5510353   0.042   2.414   6.698 -1.3762 -1.3998  0.5111
   20MOL    C5610354   7.277   2.824   6.966  0.0761 -0.4125 -0.2936
   20MOL    C5710355   7.370   2.700   6.955  0.0538  0.0022 -0.0334
   20MOL    C5810356   7.290   2.567   6.968 -0.1376 -0.2986 -0.4481
   20MOL    C5910357   7.219   2.537   6.833 -0.1607  0.5951 -0.1444
   20MOL    C6010358   7.297   2.433   6.742  0.2439  0.3110 -0.3633
   20MOL    O6110359   7.444   2.440   6.758 -0.4263  0.2232  0.0524
   20MOL    C6210360   7.523   2.346   6.691 -0.4355 -0.3167  0.3832
   20MOL    O6310361   7.469   2.272   6.608 -0.5050  0.7367  0.1943
   20MOL    C6410362   7.665   2.333   6.743 -0.2996 -0.1792  0.0217
   20MOL    C6510363   7.666   2.391   6.884 -0.1686  0.7971  0.0202
   20MOL    C6610364   7.716   2.181   6.738  0.0163  0.1997  0.4188
   20MOL    H6710365   7.333   2.918   6.963  0.2634 -0.5608 -1.8930
   20MOL    H6810366   7.230   2.835   7.063 -0.6848 -1.2397 -0.5678
   20MOL    H6910367   7.201   2.828   6.889  0.0536  1.6215 -0.1915
   20MOL    H7010368   7.425   2.707   6.861 -1.4075 -2.6976 -1.1466
   20MOL    H7110369   7.428   2.709   7.047 -1.1997 -0.2505  0.7909
   20MOL    H7210370   7.360   2.490   7.001  1.8338  1.5729 -0.2140
   20MOL    H7310371   7.221   2.582   7.051  3.2361 -0.9783  2.5992
   20MOL    H7410372   7.205   2.629   6.775 -0.9183  0.1703 -0.6439
   20MOL    H7510373   7.122   2.488   6.842  1.3498 -2.4206  0.3386
   20MOL    H7610374   7.255   2.338   6.777  1.3674 -0.0043  0.1628
   20MOL    H7710375   7.252   2.444   6.644 -0.5202 -0.7577 -0.1423
   20MOL    H7810376   7.647   2.498   6.878  0.2168  0.8446 -0.3618
   20MOL    H7910377   7.762   2.371   6.932  0.7786 -0.7279 -2.4693
   20MOL    H8010378   7.586   2.352   6.947  0.3930  0.9681  0.8615
   20MOL    H8110379   0.009   2.201   6.733 -0.3267  2.6449  2.0097
   20MOL    H8210380   7.676   2.137   6.646 -0.6331 -0.6319  1.0876
   20MOL    C8310381   0.565   1.999   7.126  0.4778 -0.1352  0.1470
   20MOL    C8410382   0.471   1.968   7.012 -0.1898 -0.0069 -0.6889
   20MOL    C8510383   0.350   2.064   6.992  0.7751  0.0970  0.1435
   20MOL    C8610384   0.257   2.070   7.115 -0.0089  0.2042  0.2525
   20MOL    C8710385   0.141   2.168   7.096  0.4041 -0.0221 -0.0329
   20MOL    O8810386   0.072   2.117   6.981  0.6620  0.0416  0.8051
   20MOL    C8910387   7.758   2.110   6.978 -0.3633  0.0646 -0.2350
   20MOL    O9010388   7.690   2.120   7.080 -0.2508  0.3275  0.3187
   20MOL    C9110389   7.681   2.078   6.848  0.4960 -0.7307 -0.3158
   20MOL    C9210390   7.531   2.064   6.870  0.2829 -0.3025 -0.4339
   20MOL    C9310391   7.739   1.941   6.808 -0.1526 -0.4462  0.3470
   20MOL    H9410392   0.663   1.955   7.108  0.7395  0.7736 -0.7186
   20MOL    H9510393   0.591   2.103   7.145  0.8978 -0.0604 -0.7904
   20MOL    H9610394   0.544   1.961   7.226 -0.1435  1.2389  0.5580
   20MOL    H9710395   0.434   1.866   7.022 -2.2072  0.9456  1.8806
   20MOL    H9810396   0.532   1.975   6.921  1.7656  0.7402  0.6535
   20MOL    H9910397   0.309   2.034   6.896 -0.5901  0.0068  0.7517
   20MOL   H10010398   0.387   2.162   6.961 -0.7932  1.1862  1.6224
   20MOL   H10110399   0.329   2.098   7.191  0.6027 -0.1026 -0.2093
   20MOL   H10210400   0.214   1.972   7.139  1.5958 -0.6802 -0.3844
   20MOL   H10310401   0.179   2.269   7.081  1.9969 -0.5170  0.6134
   20MOL   H10410402   0.080   2.178   7.186  0.3465 -2.2905  0.2297
   20MOL   H10510403   7.503   2.011   6.961 -2.3100  1.1131 -0.3729
   20MOL   H10610404   7.479   2.029   6.781  0.0741 -0.9887 -0.0462
   20MOL   H10710405   7.488   2.162   6.888  0.2624  0.0363 -2.2579
   20MOL   H10810406   7.715   1.930   6.702 -0.8167 -1.5472  0.6023
   20MOL   H10910407   0.033   1.954   6.803 -0.5071  2.0373 -2.6764
   20MOL   C11010408   0.513   1.480   6.854  0.5207  0.0668  0.2033
   20MOL   C11110409   0.474   1.492   6.707  0.5881  0.2903  0.2420
   20MOL   C11210410   0.434   1.636   6.675  0.2460 -0.8945 -0.4239
   20MOL   C11310411   0.325   1.702   6.760 -0.7185  0.3561  0.0375
   20MOL   C11410412   0.183   1.638   6.740 -0.4584 -0.4738  0.3344
   20MOL   O11510413   0.090   1.718   6.806  0.2548 -0.2887  0.1082
   20MOL   C11610414   7.776   1.705   6.778  0.5950 -0.1565  0.4284
   20MOL   O11710415   7.722   1.634   6.692  0.1371  0.1235 -0.2029
   20MOL   C11810416   7.690   1.804   6.864  0.1619  0.1858 -0.2277
   20MOL   C11910417   7.538   1.775   6.821  1.0119 -0.2187  0.4345
   20MOL   C12010418   7.715   1.793   7.018  0.4223  0.2433 -0.2585
   20MOL   H12110419   0.593   1.551   6.878  1.8200 -1.2874 -0.0232
   20MOL   H12210420   0.424   1.494   6.914 -0.1313 -0.4561 -0.6318
   20MOL   H12310421   0.551   1.381   6.879  1.0827  0.5350  1.2236
   20MOL   H12410422   0.564   1.478   6.648  0.5834  0.9113  0.0854
   20MOL   H12510423   0.394   1.427   6.672 -0.1299  1.1864  0.1972
   20MOL   H12610424   0.526   1.693   6.686 -0.7626  0.4284  1.2782
   20MOL   H12710425   0.396   1.647   6.574 -0.9307 -2.2048 -0.1466
   20MOL   H12810426   0.321   1.806   6.728 -1.2367  0.3694  0.1277
   20MOL   H12910427   0.352   1.698   6.866  1.0479 -0.6815 -0.4320
   20MOL   H13010428   0.147   1.624   6.638  1.2512 -2.2902 -0.0450
   20MOL   H13110429   0.186   1.536   6.780 -0.3190 -0.6063 -0.0163
   20MOL   H13210430   7.523   1.668   6.840  1.9417 -0.4354  0.0339
   20MOL   H13310431   7.453   1.816   6.874  0.6074 -2.6664  1.7385
   20MOL   H13410432   7.509   1.806   6.721  0.0748 -2.5211 -0.0474
   20MOL   H13510433   0.003   1.826   7.037  1.5993 -1.7472 -2.7798
   20MOL   H13610434   7.663   1.877   7.064  0.2581  0.2421 -0.4423
   20MOL   C13710435   7.232   2.216   7.068  0.2232  0.1123 -0.6918
   20MOL   C13810436   7.198   2.099   7.161 -0.3568  0.1228  0.6896
   20MOL   C13910437   7.296   1.983   7.153 -0.0179 -0.3584 -0.6527
   20MOL   C14010438   7.260   1.866   7.250 -0.0659  0.2165 -0.4289
   20MOL   C14110439   7.325   1.734   7.205  0.3467 -0.4738 -0.6394
   20MOL   O14210440   7.466   1.735   7.197  0.2211  0.0847  0.6890
   20MOL   C14310441   7.525   1.647   7.113  0.1011  0.2422  1.0133
   20MOL   O14410442   7.470   1.547   7.064 -0.0886 -0.7245 -0.5537
   20MOL   C14510443   7.677   1.665   7.105 -0.3236  0.0568  0.4317
   20MOL   C14610444   7.745   1.542   7.051  0.4425 -0.6623 -0.4109
   20MOL   C14710445   7.738   1.715   7.248 -0.1426  0.2171 -0.1177
   20MOL   H14810446   7.314   2.270   7.113  0.2543  0.0542 -0.6775
   20MOL   H14910447   7.154   2.292   7.078 -0.2892 -0.4493 -0.3257
   20MOL   H15010448   7.252   2.204   6.962 -1.2168  0.5920 -1.0361
   20MOL   H15110449   7.104   2.049   7.136  1.5291 -2.7270 -0.9218
   20MOL   H15210450   7.192   2.143   7.260 -1.3152  0.7094  0.3791
   20MOL   H15310451   7.300   1.940   7.053 -0.3292  1.1611 -1.3339
   20MOL   H15410452   7.395   2.026   7.161  0.4103 -0.8847 -2.8567
   20MOL   H15510453   7.291   1.886   7.353  1.4426 -1.3455 -0.5575
   20MOL   H15610454   7.152   1.855   7.257  0.2324 -1.4517  2.0276
   20MOL   H15710455   7.279   1.705   7.110 -0.9779 -1.9372  0.4272
   20MOL   H15810456   7.305   1.650   7.272 -0.0692  0.0253 -0.1407
   20MOL   H15910457   7.708   1.509   6.954  2.3319  0.2993 -1.4929
   20MOL   H16010458   7.737   1.456   7.118  0.8928  0.7024  1.4386
   20MOL   H16110459   0.035   1.573   7.042 -0.1696  2.3804  2.3267
   20MOL   H16210460   0.022   1.759   7.229 -0.1809  0.2041 -0.3442
   20MOL   H16310461   7.669   1.793   7.282 -0.1263 -0.0411  0.5022
   20MOL   C16410462   0.811   1.584   7.181 -0.3500  0.6844  0.5544
   20MOL   C16510463   0.676   1.635   7.219 -0.2153 -0.7009 -0.2470
   20MOL   C16610464   0.569   1.521   7.237  0.5295 -0.4265 -0.2000
   20MOL   C16710465   0.430   1.596   7.272 -0.5494 -0.5022 -0.0251
   20MOL   C16810466   0.305   1.502   7.283  0.8817 -0.8386  0.3446
   20MOL   O16910467   0.188   1.576   7.302  0.3751 -0.1754  0.0391
   20MOL   C17010468   0.072   1.519   7.354  0.1802 -0.3205 -0.4937
   20MOL   O17110469   0.074   1.410   7.409  0.0564  0.2111 -0.5646
   20MOL   C17210470   7.762   1.621   7.368 -0.0267 -0.0748 -0.1749
   20MOL   C17310471   7.641   1.527   7.389 -0.2926  0.0648 -0.1686
   20MOL   C17410472   7.780   1.703   7.511  0.3274 -0.5584  0.6800
   20MOL   H17510473   0.805   1.505   7.106  0.9567  0.0065  1.1456
   20MOL   H17610474   0.860   1.544   7.269  0.8663 -1.3040 -0.9771
   20MOL   H17710475   0.877   1.663   7.147  2.2157 -1.8330 -0.4929
   20MOL   H17810476   0.643   1.711   7.148  0.3726 -1.4878 -1.3928
   20MOL   H17910477   0.694   1.695   7.308  1.1279  3.6711 -3.2975
   20MOL   H18010478   0.557   1.470   7.141 -0.5291  0.9026 -0.7953
   20MOL   H18110479   0.590   1.444   7.311 -1.4377  1.8398  2.8183
   20MOL   H18210480   0.407   1.662   7.189  0.8778 -0.0780 -0.0968
   20MOL   H18310481   0.444   1.651   7.366 -1.2871 -1.3626  0.6014
   20MOL   H18410482   0.328   1.425   7.356  0.1358  0.6958  2.2158
   20MOL   H18510483   0.280   1.462   7.185  1.4421  1.1929 -0.6651
   20MOL   H18610484   7.651   1.460   7.474  3.3943 -1.0902 -1.4209
   20MOL   H18710485   7.624   1.465   7.301  0.6165  0.2250 -0.4599
   20MOL   H18810486   7.548   1.583   7.398 -0.3440 -0.0940  0.3043
   20MOL   H18910487   7.679   1.738   7.534  0.3700 -0.8283  1.2906
   20MOL   H19010488   7.781   1.625   7.587  0.6380 -1.2740 -0.0503
   20MOL   C19110489   7.342   2.231   7.699 -0.1695 -0.3168 -1.1282
   20MOL   C19210490   7.400   2.232   7.562 -0.8262  0.1220  0.1542
   20MOL   C19310491   7.539   2.182   7.540 -0.0288 -0.5169  0.0789
   20MOL   C19410492   7.577   2.146   7.399  0.2507 -0.2959 -0.1966
   20MOL   C19510493   7.723   2.111   7.392 -0.3592  0.3090  0.4517
   20MOL   O19610494   7.739   1.984   7.444 -0.1374 -0.6884  0.1118
   20MOL   C19710495   0.051   1.936   7.458  0.1066 -0.3072 -0.6512
   20MOL   O19810496   0.152   1.978   7.402 -0.6303  0.4051 -0.4968
   20MOL   C19910497   0.061   1.821   7.558  0.3032  0.6049 -0.5434
   20MOL   C20010498   0.206   1.765   7.556  0.1781  0.6876  0.4741
   20MOL   C20110499   0.011   1.850   7.699  0.6194 -0.3696  0.1228
   20MOL   H20210500   7.233   2.242   7.696 -0.3064 -0.7089  1.0876
   20MOL   H20310501   7.369   2.139   7.751  0.8578 -0.4057 -1.8134
   20MOL   H20410502   7.381   2.318   7.751 -0.1283 -1.2303  0.4195
   20MOL   H20510503   7.385   2.324   7.506  1.5162  0.1217 -0.4925
   20MOL   H20610504   7.339   2.161   7.506 -1.3398  0.7219 -0.0616
   20MOL   H20710505   7.554   2.095   7.603  1.5420  0.1231  0.6196
   20MOL   H20810506   7.613   2.255   7.571 -3.1914  1.6115  2.9207
   20MOL   H20910507   7.524   2.060   7.357  0.8546  0.5553 -2.7699
   20MOL   H21010508   7.557   2.226   7.328 -0.3746  0.0772  0.3882
   20MOL   H21110509   7.767   2.111   7.292  1.1512 -0.4925  1.0893
   20MOL   H21210510   7.791   2.182   7.440 -0.8271  0.1825  1.2952
   20MOL   H21310511   0.240   1.737   7.456 -1.6184  0.2935 -0.0543
   20MOL   H21410512   0.222   1.683   7.625 -0.2174 -0.0690 -0.3232
   20MOL   H21510513   0.269   1.850   7.583  1.7488  0.0813 -1.2127
   20MOL   H21610514   0.017   1.758   7.757  2.7518  0.8396  1.9325
   20MOL   H21710515   7.717   1.858   7.702  0.5784 -0.8252 -0.1949
   20MOL   C21810516   7.385   1.709   7.700  0.0376 -0.1579  0.1457
   20MOL   C21910517   7.383   1.675   0.037  0.0485  0.6302  0.0362
   20MOL   C22010518   7.492   1.734   0.118  0.5681 -0.7483 -0.2989
   20MOL   C22110519   7.482   1.888   0.123  0.4206  0.2775 -0.7295
   20MOL   C22210520   7.599   1.949   0.210  0.9101  0.7138 -0.2257
   20MOL   O22310521   7.716   1.918   0.141  0.1204  0.3185 -0.2127
   20MOL   C22410522   7.781   2.011   0.073 -0.6895 -0.0209 -0.2948
   20MOL   O22510523   7.751   2.129   0.076 -0.1852 -0.0327  0.1301
   20MOL   C22610524   0.076   1.959   7.790 -0.3018  0.1134 -0.3223
   20MOL   C22710525   0.121   2.085   7.718 -0.2518 -0.0799  0.7934
   20MOL   C22810526   0.198   1.895   0.049  0.2675 -0.7522 -0.0006
   20MOL   H22910527   7.487   1.685   7.669  0.7225  0.8061  1.5872
   20MOL   H23010528   7.323   1.640   7.643  0.9023 -2.2213  1.6071
   20MOL   H23110529   7.339   1.801   7.665 -0.5387 -0.3108  0.4866
   20MOL   H23210530   7.387   1.566   0.046  1.4265  0.8819  3.0361
   20MOL   H23310531   7.288   1.702   0.082  0.5716  2.5957 -0.0078
   20MOL   H23410532   7.583   1.711   0.062 -0.9707 -2.8595 -1.9773
   20MOL   H23510533   7.507   1.681   0.212  1.9432  0.6238  0.2699
   20MOL   H23610534   7.483   1.919   0.019  0.0055 -0.5831 -0.9913
   20MOL   H23710535   7.395   1.923   0.180 -0.1370 -1.6211 -0.3917
   20MOL   H23810536   7.601   1.903   0.309 -0.9922 -1.5410 -1.1696
   20MOL   H23910537   7.567   2.051   0.231 -1.9493  0.0206 -0.9244
   20MOL   H24010538   0.048   2.132   7.652  0.0806  1.9021  1.7841
   20MOL   H24110539   0.198   2.067   7.642 -0.7884 -1.0887  0.4925
   20MOL   H24210540   0.154   2.154   7.796 -1.2417  1.8658 -0.4837
   20MOL   H24310541   0.280   1.874   7.794  0.7154  1.0849 -0.0659
   20MOL   H24410542   0.155   1.801   0.082 -0.6146 -1.0608 -1.9658
   20MOL   C24510543   7.489   2.126   0.676  0.1964 -0.1731  1.2211
   20MOL   C24610544   7.565   2.089   0.548  0.2901 -1.0924  0.4232
   20MOL   C24710545   7.714   2.096   0.575 -0.6984 -0.5250  0.5397
   20MOL   C24810546   7.799   2.088   0.450 -0.6890 -0.6221  0.5590
   20MOL   C24910547   0.126   2.040   0.482 -0.3947 -0.1818  0.1485
   20MOL   O25010548   0.210   2.034   0.373 -0.9493  0.1477 -0.6017
   20MOL   C25110549   0.199   1.931   0.288 -0.1737 -0.0198  0.1710
   20MOL   O25210550   0.130   1.831   0.303 -0.0347 -0.2719 -0.3518
   20MOL   C25310551   0.284   1.950   0.166  0.1901  0.7525  0.0471
   20MOL   C25410552   0.326   2.098   0.141 -0.4371  0.1458  0.1701
   20MOL   C25510553   0.424   1.877   0.175  0.4386 -0.2075  0.0300
   20MOL   H25610554   7.383   2.117   0.653  0.6751 -1.5430 -0.5679
   20MOL   H25710555   7.516   2.054   0.754  1.5408 -0.4552  0.5144
   20MOL   H25810556   7.512   2.230   0.699 -0.1699 -0.0475  1.0066
   20MOL   H25910557   7.548   1.988   0.510  2.3634 -0.3675 -2.6214
   20MOL   H26010558   7.538   2.156   0.466 -0.6487 -0.6141  1.1208
   20MOL   H26110559   7.741   2.009   0.635  1.1171 -1.1761 -1.1454
   20MOL   H26210560   7.743   2.189   0.624  0.5907 -0.7889  0.2982
   20MOL   H26310561   7.758   2.012   0.384  0.4463  0.6387 -1.6409
   20MOL   H26410562   7.796   2.177   0.388  4.5451  0.1671  1.2214
   20MOL   H26510563   0.172   2.123   0.536 -0.3229  1.1541 -1.8864
   20MOL   H26610564   0.130   1.946   0.538  0.6271  0.6528  1.5102
   20MOL   H26710565   0.239   2.163   0.155 -1.7423 -1.3774 -0.7813
   20MOL   H26810566   0.405   2.135   0.207 -1.4071  0.3345  1.2498
   20MOL   H26910567   0.367   2.102   0.040 -0.3545 -0.1505  0.1920
   20MOL   H27010568   0.477   1.905   0.085 -1.7399  1.0997 -0.8766
   20MOL   H27110569   0.474   1.943   0.245  3.5401 -0.9489 -1.4450
   20MOL   C27210570   0.516   1.058   0.771  0.6388  0.7371  0.6495
   20MOL   C27310571   0.516   1.150   0.645  0.1942 -0.0985 -0.1993
   20MOL   C27410572   0.453   1.291   0.671  0.0902 -0.1907 -0.0876
   20MOL   C27510573   0.432   1.361   0.535 -0.4155 -0.1897  0.7619
   20MOL   C27610574   0.443   1.515   0.527 -0.4987 -0.1220  0.2940
   20MOL   O27710575   0.438   1.559   0.399  0.3748  0.2327  0.2661
   20MOL   C27810576   0.450   1.696   0.369 -0.5911 -0.0623  0.3243
   20MOL   O27910577   0.471   1.778   0.453 -0.3615 -0.1638 -0.1254
   20MOL   C28010578   0.459   1.729   0.216  0.4885  0.3875 -0.2828
   20MOL   C28110579   0.348   1.644   0.142 -0.5012 -0.3216 -0.1362
   20MOL   C28210580   0.606   1.705   0.166  0.0391  0.4513  0.2750
   20MOL   H28310581   0.585   1.085   0.850  0.3558 -0.8035  1.4589
   20MOL   H28410582   0.413   1.063   0.807 -1.0616  1.3398 -3.9842
   20MOL   H28510583   0.529   0.953   0.742 -0.4032  0.2100  1.9960
   20MOL   H28610584   0.620   1.157   0.612 -0.2207  0.4347 -1.4241
   20MOL   H28710585   0.458   1.105   0.565  0.7679  1.2166 -1.3807
   20MOL   H28810586   0.362   1.282   0.729  0.7727 -3.5436  0.5384
   20MOL   H28910587   0.527   1.347   0.729 -0.9385  0.6669  0.4070
   20MOL   H29010588   0.511   1.323   0.469 -0.6509 -1.2590  1.0772
   20MOL   H29110589   0.348   1.319   0.480  0.1973  2.8364 -2.6789
   20MOL   H29210590   0.540   1.548   0.562 -0.9641  1.2320  0.3298
   20MOL   H29310591   0.368   1.573   0.580 -0.8656 -0.9887  0.7450
   20MOL   H29410592   0.338   1.666   0.036 -1.2237  0.2761  0.0525
   20MOL   H29510593   0.377   1.539   0.145  1.5899  0.2302 -0.4005
   20MOL   H29610594   0.253   1.640   0.197  0.4174  0.2834  1.5531
   20MOL   H29710595   0.581   1.705   0.059 -0.0661 -1.7549  0.2823
   20MOL   H29810596   0.667   1.793   0.184 -0.3457  0.8242 -0.2211
   20MOL   C29910597   0.660   1.656   0.859 -0.1159 -0.5262  0.0494
   20MOL   C30010598   0.767   1.769   0.835 -0.0491  0.0969 -0.2030
   20MOL   C30110599   0.860   1.725   0.717  0.0433  0.1368 -0.1169
   20MOL   C30210600   0.800   1.751   0.576 -0.1946  0.4561  0.6069
   20MOL   C30310601   0.903   1.711   0.464 -0.3969 -0.0210 -0.3784
   20MOL   O30410602   0.841   1.690   0.338 -0.9797  0.0268  0.4347
   20MOL   C30510603   0.771   1.581   0.316  0.3413 -0.4817 -1.0701
   20MOL   O30610604   0.750   1.492   0.397 -0.4490 -0.3324  0.7798
   20MOL   C30710605   0.706   1.578   0.178 -0.2223 -0.0603 -0.7519
   20MOL   C30810606   0.626   1.447   0.159  0.1294  0.1719  0.6395
   20MOL   C30910607   0.810   1.593   0.058 -0.8005 -0.1032 -0.0670
   20MOL   H31010608   0.703   1.565   0.902  2.3066 -0.2438 -1.6410
   20MOL   H31110609   0.601   1.637   0.769  1.1812 -2.3353 -0.4511
   20MOL   H31210610   0.589   1.691   0.934 -0.4689 -0.5100 -0.2922
   20MOL   H31310611   0.811   1.788   0.933  0.7900  0.5979 -0.6744
   20MOL   H31410612   0.713   1.861   0.813 -1.2423 -0.7824 -1.0271
   20MOL   H31510613   0.892   1.621   0.720 -1.2224 -0.2411  0.7832
   20MOL   H31610614   0.955   1.779   0.718  1.5759 -2.5391  0.5540
   20MOL   H31710615   0.767   1.854   0.590  1.1376  1.2657 -1.7866
   20MOL   H31810616   0.708   1.695   0.565  0.9887 -1.5514  0.5714
   20MOL   H31910617   0.966   1.797   0.440 -1.3456  0.3692 -1.5053
   20MOL   H32010618   0.963   1.630   0.506  1.3707  1.7517  0.6337
   20MOL   H32110619   0.595   1.424   0.057 -1.3078 -0.3979  1.1963
   20MOL   H32210620   0.699   1.368   0.175  3.6496  2.8626 -1.4859
   20MOL   H32310621   0.541   1.433   0.227  0.6989  3.0459  2.0191
   20MOL   H32410622   0.850   1.693   0.073 -2.1069  0.5544 -0.8012
   20MOL   H32510623   0.761   1.584   7.775  1.0471 -0.3723 -1.0015
   20MOL   C32610624   1.051   2.005   7.253 -0.2831  0.4176  0.0667
   20MOL   C32710625   0.938   1.949   7.336 -0.2577  1.0018 -0.1685
   20MOL   C32810626   0.982   1.903   7.477  0.8866  0.1681 -0.8276
   20MOL   C32910627   1.051   1.770   7.477  0.7412 -0.2560 -0.7698
   20MOL   C33010628   1.123   1.712   7.608  0.2395  0.5545 -0.3238
   20MOL   O33110629   1.020   1.644   7.680 -0.8660  0.1713 -0.2948
   20MOL   C33210630   1.045   1.577   7.793  0.6077  0.7223  0.1935
   20MOL   O33310631   1.150   1.595   0.039  0.1511 -0.1269 -0.2588
   20MOL   C33410632   0.928   1.491   0.029  0.0238  0.3896  0.1124
   20MOL   C33510633   0.984   1.419   0.159  0.4824  0.1423  0.2048
   20MOL   C33610634   0.874   1.385   7.737  0.1296 -0.2214  0.1170
   20MOL   H33710635   1.125   1.928   7.228 -1.7460 -1.5290  1.6369
   20MOL   H33810636   1.091   2.087   7.312  1.9420 -1.9510  1.9843
   20MOL   H33910637   1.002   2.040   7.162  1.7236  0.2172 -1.1437
   20MOL   H34010638   0.893   1.865   7.282  0.6962  0.9300 -0.8595
   20MOL   H34110639   0.860   2.023   7.353 -2.5821 -1.2634 -0.6471
   20MOL   H34210640   0.895   1.888   7.540  0.4589 -0.0758 -1.4748
   20MOL   H34310641   1.046   1.981   7.518 -1.0607  1.5336 -0.3656
   20MOL   H34410642   1.126   1.761   7.399 -0.8726 -2.4242 -2.1351
   20MOL   H34510643   0.978   1.696   7.443  0.2884 -0.3910  0.4682
   20MOL   H34610644   1.162   1.793   7.670 -1.3573  0.1910  1.1848
   20MOL   H34710645   1.204   1.646   7.579 -1.2254 -0.7334 -1.5283
   20MOL   H34810646   0.914   1.344   0.196 -1.8585  2.6079  0.9311
   20MOL   H34910647   1.015   1.480   0.244  0.9683  0.2143 -0.0245
   20MOL   H35010648   1.069   1.355   0.134 -0.0031 -0.5868  0.4017
   20MOL   H35110649   0.806   1.437   7.671 -0.2956  1.3449  1.7377
   20MOL   H35210650   0.805   1.324   7.795 -1.1757 -1.1996 -2.4259
   20MOL   C35310651   1.431   0.992   0.467 -0.0547 -0.3611  0.3204
   20MOL   C35410652   1.323   1.082   0.407  0.2438 -0.0365 -0.0485
   20MOL   C35510653   1.268   1.017   0.283  0.0510  1.0454 -0.3435
   20MOL   C35610654   1.165   1.109   0.219 -0.4553 -0.3350  0.4398
   20MOL   C35710655   1.080   1.042   0.108 -0.2065 -0.0935  0.0376
   20MOL   O35810656   1.005   1.130   0.023  0.1437 -0.2720 -0.5400
   20MOL   C35910657   1.059   1.198   7.738 -0.6759  0.4594  0.8247
   20MOL   O36010658   1.183   1.220   7.736 -0.2201 -0.1013 -0.3789
   20MOL   C36110659   0.962   1.278   7.653 -0.7855  0.3439  0.8811
   20MOL   C36210660   1.039   1.354   7.546 -0.0833  0.3322 -0.2439
   20MOL   C36310661   0.851   1.186   7.591 -0.7380 -0.0869 -0.0600
   20MOL   H36410662   1.401   0.889   0.486  0.3704 -0.7709 -1.1385
   20MOL   H36510663   1.461   1.036   0.562 -1.8747 -0.5194  0.9827
   20MOL   H36610664   1.521   0.995   0.405  0.3429 -1.2009  0.8323
   20MOL   H36710665   1.245   1.083   0.483  1.0980 -1.0215  0.8541
   20MOL   H36810666   1.343   1.189   0.400 -2.8685  0.6537  0.6514
   20MOL   H36910667   1.227   0.924   0.323 -0.8137  0.4825 -2.4562
   20MOL   H37010668   1.347   0.987   0.214  0.7649  0.8140  0.5778
   20MOL   H37110669   1.231   1.180   0.169 -1.7055  0.5883  0.0482
   20MOL   H37210670   1.096   1.166   0.282 -0.4485  1.2657 -0.9708
   20MOL   H37310671   1.150   0.979   0.053 -0.2554 -1.1825  1.1802
   20MOL   H37410672   1.019   0.965   0.156  0.9902 -0.8711  0.3400
   20MOL   H37510673   0.984   1.443   7.513  1.3224  1.7153  1.0514
   20MOL   H37610674   1.129   1.403   7.584 -0.9538  1.3551  0.5493
   20MOL   H37710675   1.062   1.299   7.456 -1.5322 -0.8942  0.1149
   20MOL   H37810676   0.806   1.143   7.680 -2.3393  0.2048 -0.7211
   20MOL   H37910677   0.765   1.250   7.571 -1.2263 -0.6064  0.3676
   20MOL   C38010678   1.340   0.988   6.770 -0.0671 -0.1932  0.5874
   20MOL   C38110679   1.259   0.934   6.891 -0.1140  0.5272 -0.4851
   20MOL   C38210680   1.143   1.025   6.940 -0.6055 -0.5928 -0.5698
   20MOL   C38310681   1.093   0.983   7.072  0.3187 -1.0107  0.3324
   20MOL   C38410682   0.991   1.093   7.125 -0.2271 -0.6629 -0.8824
   20MOL   O38510683   0.941   1.050   7.249 -0.2076  0.4955 -0.1689
   20MOL   C38610684   0.887   1.133   7.337 -0.2800  0.5544  0.1187
   20MOL   O38710685   0.845   1.249   7.313 -0.1110  0.1861 -0.4799
   20MOL   C38810686   0.867   1.072   7.475  0.4275 -0.4198  0.7387
   20MOL   C38910687   0.999   1.001   7.512 -0.6164 -0.0705 -0.3694
   20MOL   C39010688   0.738   0.976   7.484  0.4862 -0.1959 -0.6847
   20MOL   H39110689   1.415   0.917   6.736 -0.0224  0.6202 -1.0774
   20MOL   H39210690   1.280   1.006   6.681  1.4287  2.1375  0.0274
   20MOL   H39310691   1.395   1.082   6.778  2.6387 -1.6823  0.0235
   20MOL   H39410692   1.323   0.913   6.977 -0.4705 -0.4941 -0.4600
   20MOL   H39510693   1.212   0.840   6.860  1.0927  0.2532 -1.5048
   20MOL   H39610694   1.173   1.130   6.942 -1.2966 -0.4050  0.0078
   20MOL   H39710695   1.058   1.016   6.873 -0.5871 -1.4372 -0.4767
   20MOL   H39810696   1.043   0.887   7.063  1.0874 -1.3672 -0.2268
   20MOL   H39910697   1.184   0.974   7.131  0.6045  1.2267  0.2976
   20MOL   H40010698   0.915   1.098   7.047  1.8767 -0.5507 -2.9730
   20MOL   H40110699   1.042   1.188   7.137 -0.4914 -0.7676  1.2855
   20MOL   H40210700   1.028   0.913   7.454 -0.2538 -0.6038  0.6107
   20MOL   H40310701   1.001   0.962   7.613 -0.4435 -1.2997 -0.8405
   20MOL   H40410702   1.081   1.070   7.493  0.7668 -1.8747 -1.0215
   20MOL   H40510703   0.656   1.047   7.494  0.3618 -0.4309  0.0373
   20MOL   H40610704   0.733   0.933   7.584 -2.5056 -0.1389 -0.7721
   20MOL   C40710705   0.076   0.998   7.359  0.5962  0.0877 -0.0385
   20MOL   C40810706   0.165   1.085   7.270 -0.4568 -0.3582 -0.7360
   20MOL   C40910707   0.300   1.028   7.227 -0.1692  0.4273  0.7363
   20MOL   C41010708   0.387   1.133   7.154 -0.3003 -0.2756  0.4982
   20MOL   C41110709   0.530   1.078   7.123 -0.6853 -0.5983 -0.3621
   20MOL   O41210710   0.588   1.021   7.242  0.0940  0.2855 -0.3134
   20MOL   C41310711   0.671   0.910   7.236 -0.4977 -0.5878  0.2486
   20MOL   O41410712   0.708   0.854   7.133  0.4489 -0.2189 -0.2825
   20MOL   C41510713   0.703   0.860   7.382 -0.1622  0.1780 -0.0395
   20MOL   C41610714   0.823   0.762   7.370  0.2472  0.2080 -0.0329
   20MOL   C41710715   0.578   0.789   7.455 -0.4695  1.1808  0.2633
   20MOL   H41810716   0.009   1.060   7.419 -0.7709 -0.9367 -0.4920
   20MOL   H41910717   0.015   0.932   7.298 -0.4171 -0.1748  1.2544
   20MOL   H42010718   0.135   0.939   7.429  0.6763  1.6241  1.2345
   20MOL   H42110719   0.178   1.182   7.318  3.9562 -0.1556 -2.1537
   20MOL   H42210720   0.109   1.113   7.181  1.2253 -0.1618 -1.7615
   20MOL   H42310721   0.345   0.992   7.320 -0.8581  0.2191  0.9944
   20MOL   H42410722   0.289   0.943   7.159 -0.9238 -1.2775  2.9162
   20MOL   H42510723   0.402   1.219   7.219  1.9206 -0.8684  0.8316
   20MOL   H42610724   0.335   1.168   7.065  0.3100 -0.3372  0.1110
   20MOL   H42710725   0.529   1.010   7.038 -2.1109 -1.4360  0.3008
   20MOL   H42810726   0.592   1.163   7.093  0.1458 -0.7924  0.7705
   20MOL   H42910727   0.854   0.742   7.472 -1.5366  0.4510  0.5753
   20MOL   H43010728   0.900   0.815   7.314 -0.2639  1.5336  0.4937
   20MOL   H43110729   0.801   0.666   7.322  0.7547 -0.1648  0.4742
   20MOL   H43210730   0.509   0.874   7.462  1.3224  2.7268 -0.5060
   20MOL   H43310731   0.605   0.771   7.559 -0.4632  0.3574  0.1212
   20MOL   C43410732   0.924   7.790   7.184 -0.5213 -0.1292 -0.7278
   20MOL   C43510733   0.821   0.090   7.177 -0.4651 -0.9348 -0.1942
   20MOL   C43610734   0.752   0.132   7.311 -0.1849  0.0494 -0.3440
   20MOL   C43710735   0.666   0.255   7.290  0.2606 -0.4946 -0.3995
   20MOL   C43810736   0.598   0.303   7.419  0.2666 -1.0118 -0.4518
   20MOL   O43910737   0.535   0.429   7.395 -0.1431  0.4199 -0.0460
   20MOL   C44010738   0.596   0.538   7.436  0.2519  0.1457 -0.3866
   20MOL   O44110739   0.691   0.547   7.514  0.0998 -0.7597  0.0110
   20MOL   C44210740   0.510   0.664   7.392  0.5631 -0.1049  0.0140
   20MOL   C44310741   0.500   0.655   7.236 -0.1261  0.1008 -0.0987
   20MOL   C44410742   0.360   0.653   7.438 -0.0589  0.9247  0.5220
   20MOL   H44510743   0.994   0.006   7.262  0.2752  0.3553 -1.6264
   20MOL   H44610744   0.872   7.700   7.217 -2.8613  0.6225 -2.2378
   20MOL   H44710745   0.974   7.766   7.090  1.9133  0.1566  0.4478
   20MOL   H44810746   0.880   0.179   7.155 -1.0826 -0.6143 -0.5764
   20MOL   H44910747   0.743   0.069   7.103 -0.3864 -0.8461 -0.3029
   20MOL   H45010748   0.684   0.053   7.344 -1.0272  1.1253  0.5351
   20MOL   H45110749   0.831   0.149   7.384 -1.2002  0.4622  0.6869
   20MOL   H45210750   0.591   0.239   7.212 -0.1136 -0.9665  0.0578
   20MOL   H45310751   0.720   0.342   7.253  0.7461 -0.6404 -0.0301
   20MOL   H45410752   0.681   0.310   7.490 -0.3407 -4.0788  0.6322
   20MOL   H45510753   0.534   0.219   7.446 -1.2221  0.3136  0.2233
   20MOL   H45610754   0.592   0.634   7.182 -0.7588 -0.8739 -0.7986
   20MOL   H45710755   0.437   0.577   7.195  0.4582 -0.1614 -0.4958
   20MOL   H45810756   0.449   0.738   7.187  0.7782 -0.1186 -1.4050
   20MOL   H45910757   0.314   0.571   7.383  1.1476  1.1148 -0.8046
   20MOL   H46010758   0.298   0.728   7.389  0.6626 -0.8842 -3.2594
   20MOL   C46110759   0.466   1.486   7.618  0.0777  0.0094  0.0626
   20MOL   C46210760   0.497   1.341   7.607  0.4572 -0.5947 -0.4267
   20MOL   C46310761   0.396   1.247   7.672  0.4378  0.3141  0.1524
   20MOL   C46410762   0.411   1.100   7.625 -0.2876 -0.3895 -0.3041
   20MOL   C46510763   0.292   1.015   7.668  0.0861  0.0021  0.1193
   20MOL   O46610764   0.292   0.885   7.602 -0.3207 -0.3527 -0.4128
   20MOL   C46710765   0.355   0.779   7.660 -0.5061 -0.5757  0.0270
   20MOL   O46810766   0.432   0.782   7.750  0.2375 -0.4738  0.3840
   20MOL   C46910767   0.314   0.650   7.589 -0.2814  1.0557  0.2608
   20MOL   C47010768   0.386   0.525   7.658 -0.3131 -0.5481  1.1298
   20MOL   C47110769   0.161   0.616   7.590  0.0138 -0.1198  0.0792
   20MOL   H47210770   0.555   1.544   7.594  1.3976 -2.2401 -0.6519
   20MOL   H47310771   0.436   1.519   7.718 -2.2903 -1.5141 -0.1016
   20MOL   H47410772   0.384   1.509   7.550  0.5839  0.1979 -0.4904
   20MOL   H47510773   0.593   1.329   7.656 -0.3231 -1.3585  0.9626
   20MOL   H47610774   0.500   1.316   7.501 -1.8757 -0.0527 -0.6602
   20MOL   H47710775   0.295   1.283   7.655  0.7430  0.7631 -0.7352
   20MOL   H47810776   0.413   1.242   7.780  3.1323  0.7644 -0.2124
   20MOL   H47910777   0.503   1.059   7.665 -0.1700 -0.9780 -1.1803
   20MOL   H48010778   0.401   1.090   7.517 -0.9953 -0.0815 -0.2711
   20MOL   H48110779   0.283   1.005   7.776  0.0486 -0.9887  0.0320
   20MOL   H48210780   0.198   1.058   7.636  0.2817 -1.7815 -3.1122
   20MOL   H48310781   0.350   0.510   7.760 -0.9515 -1.5020  0.7660
   20MOL   H48410782   0.492   0.541   7.679 -0.0958  0.7496 -0.8143
   20MOL   H48510783   0.363   0.436   7.600  1.4980  0.1764 -0.7613
   20MOL   H48610784   0.133   0.548   7.509  1.2907  0.0753 -0.5380
   20MOL   H48710785   0.118   0.707   7.548  2.1480  0.1595 -1.5637
   20MOL   C48810786   0.291   7.587   7.554  0.0146  0.5560 -0.6045
   20MOL   C48910787   0.188   7.700   7.542 -0.5379  0.1307 -0.2557
   20MOL   C49010788   0.185   7.796   7.665  0.7772  0.1332  0.4191
   20MOL   C49110789   0.116   0.122   7.636  0.0744  0.0902  1.0268
   20MOL   C49210790   0.133   0.232   7.739  0.2715 -0.4743 -0.8295
   20MOL   O49310791   0.083   0.360   7.695 -0.5480 -0.7177 -0.1808
   20MOL   C49410792   0.093   0.464   7.777 -0.5998 -0.2768  0.0887
   20MOL   O49510793   0.126   0.452   0.087 -0.0914  0.1853  0.5480
   20MOL   C49610794   0.069   0.605   7.714 -1.1290  0.1220 -0.5404
   20MOL   C49710795   7.747   0.596   7.659 -0.3956  0.7866  0.0693
   20MOL   C49810796   0.080   0.729   7.812  0.5016  0.0550 -0.0081
   20MOL   H49910797   0.279   7.526   7.644  0.5688 -0.8994 -1.5067
   20MOL   H50010798   0.270   7.508   7.482  0.9310  1.0735 -1.4560
   20MOL   H50110799   0.393   7.625   7.556 -0.0124  0.6395 -0.8592
   20MOL   H50210800   0.088   7.660   7.526 -1.7890  2.7421  0.7436
   20MOL   H50310801   0.201   7.754   7.448  0.6003 -0.1639 -0.2663
   20MOL   H50410802   0.137   7.754   7.754 -1.5642 -1.5626 -1.5901
   20MOL   H50510803   0.289   0.006   7.686  0.9421 -1.6124  1.7434
   20MOL   H50610804   0.013   0.105   7.603  0.8654 -0.8377 -1.0530
   20MOL   H50710805   0.175   0.158   7.552  1.4446 -4.7568 -0.2366
   20MOL   H50810806   0.081   0.190   0.011  0.7489 -0.0896 -0.3557
   20MOL   H50910807   0.236   0.241   7.773 -0.2940 -0.1059  0.8478
   20MOL   H51010808   7.745   0.528   7.573 -0.9780  1.2404 -0.2816
   20MOL   H51110809   7.731   0.695   7.615 -1.1022  0.2736 -0.8412
   20MOL   H51210810   7.671   0.586   7.735 -1.3701 -1.3815 -1.1654
   20MOL   H51310811   0.102   0.818   7.753  0.2535 -0.2602 -0.5805
   20MOL   H51410812   0.172   0.711   0.055 -1.0550 -2.5785  1.7423
   20MOL   C51510813   7.803   1.514   0.149  1.1159  0.2103  0.4733
   20MOL   C51610814   7.762   1.431   0.025 -0.5606 -0.3775 -0.6099
   20MOL   C51710815   7.732   1.285   0.048  0.1052 -0.1524  0.4811
   20MOL   C51810816   7.723   1.194   7.733 -0.1205 -0.3623  0.1262
   20MOL   C51910817   7.635   1.065   7.760 -0.3272  0.2939  0.8974
   20MOL   O52010818   7.723   0.965   7.794  0.3649 -0.7452  0.1042
   20MOL   C52110819   7.674   0.857   0.036 -0.2524  0.1310  0.1203
   20MOL   O52210820   7.553   0.818   0.024 -0.4609  0.7630 -0.3518
   20MOL   C52310821   7.785   0.774   0.103  0.1136 -0.0927  0.1380
   20MOL   C52410822   0.045   0.864   0.205  0.2322 -0.3269  0.2327
   20MOL   C52510823   7.720   0.660   0.190 -0.2345 -0.1982  0.1154
   20MOL   H52610824   0.052   1.480   0.232 -0.3572 -0.5023  1.3106
   20MOL   H52710825   0.020   1.612   0.115 -0.5434  0.7261  0.4361
   20MOL   H52810826   7.717   1.542   0.210  0.6547 -0.3202  0.0721
   20MOL   H52910827   7.680   1.477   7.784 -0.2751 -0.5899 -1.2250
   20MOL   H53010828   0.041   1.435   7.781 -0.6806  0.0954 -0.7646
   20MOL   H53110829   0.000   1.247   0.108 -0.7137 -0.0336  1.6899
   20MOL   H53210830   7.634   1.279   0.095 -1.5262  0.7993 -2.5879
   20MOL   H53310831   7.813   1.163   7.680 -0.1273 -0.1445 -0.0125
   20MOL   H53410832   7.675   1.258   7.659  3.2009 -0.8597 -2.5888
   20MOL   H53510833   7.546   1.065   0.009 -1.3419 -2.4792 -0.4389
   20MOL   H53610834   7.603   1.025   7.664 -0.1096 -0.0829  0.9812
   20MOL   H53710835   0.104   0.809   0.279 -0.6345 -0.7226  0.6403
   20MOL   H53810836   7.793   0.929   0.262  2.1887  2.1792 -0.2822
   20MOL   H53910837   0.112   0.926   0.147 -1.6254  0.7200 -0.8244
   20MOL   H54010838   7.807   0.606   0.227  1.5523  2.5943  0.1837
   20MOL   H54110839   7.661   0.591   0.131  1.2216  0.2502 -1.9077
   20MOL   H54210840   7.661   0.700   0.273  0.6057  0.0365  0.6115
   21MOL     C110841   1.954   5.357   5.083 -0.0174  0.8253 -0.4447
   21MOL     C210842   2.054   5.315   4.979 -0.5147 -0.2002 -0.2470
   21MOL     C310843   2.084   5.169   4.962 -0.0951 -0.1235 -0.0837
   21MOL     C410844   2.177   5.108   5.060 -0.3344  0.7668  0.0215
   21MOL     C510845   2.102   5.052   5.183  0.1460  0.4661  0.4511
   21MOL     O610846   2.186   4.998   5.285  0.5435  0.2642  0.2440
   21MOL     C710847   2.236   5.077   5.371  0.2793  1.1694  0.2642
   21MOL     O810848   2.206   5.197   5.380  0.3299  0.2475 -0.4772
   21MOL     C910849   2.337   5.015   5.466  0.1988  0.3472  0.2371
   21MOL    C1010850   2.464   4.986   5.380 -0.4912 -0.2866 -0.6083
   21MOL    C1110851   2.300   4.898   5.547  0.2980 -0.3331  0.1879
   21MOL    H1210852   1.979   5.321   5.183 -2.3053  2.2179  0.6560
   21MOL    H1310853   1.854   5.317   5.067  0.4788 -1.8631  2.6867
   21MOL    H1410854   1.950   5.466   5.090 -2.1540  0.6259  2.0111
   21MOL    H1510855   2.018   5.358   4.885  0.2663 -2.5144 -1.6452
   21MOL    H1610856   2.143   5.374   4.998 -0.3839 -0.8876  1.3630
   21MOL    H1710857   1.994   5.108   4.973 -0.2552  0.2351  0.6410
   21MOL    H1810858   2.124   5.150   4.863 -2.7109 -2.4334 -0.7599
   21MOL    H1910859   2.247   5.185   5.093  0.5288  0.5750 -1.3631
   21MOL    H2010860   2.228   5.036   4.996 -0.2113  1.4608 -0.6594
   21MOL    H2110861   2.045   5.132   5.229  1.1765  1.4672  0.0213
   21MOL    H2210862   2.037   4.969   5.157 -1.2169  1.6178  0.1408
   21MOL    H2310863   2.542   5.009   5.452  2.0105 -0.4460 -3.2058
   21MOL    H2410864   2.478   5.056   5.298 -2.6367  1.0914  0.1600
   21MOL    H2510865   2.472   4.885   5.340  0.3460 -0.8357  0.9091
   21MOL    H2610866   2.384   4.832   5.569 -2.2146 -3.2538  1.5036
   21MOL    H2710867   2.229   4.836   5.493  1.2914 -1.5288  0.2228
   21MOL    H2810868   2.366   5.089   5.539 -1.3081  2.8045 -1.5824
   21MOL    C2910869   1.605   5.260   5.886  0.0339 -0.5178 -0.3866
   21MOL    C3010870   1.600   5.231   5.737  0.1027 -0.0903  0.0873
   21MOL    C3110871   1.729   5.237   5.661  0.0455 -0.1518 -0.5705
   21MOL    C3210872   1.834   5.132   5.711  0.0485  0.1227 -0.9825
   21MOL    C3310873   1.937   5.121   5.600 -0.6996  0.0067  0.5612
   21MOL    O3410874   2.037   5.022   5.627  0.1617  0.0693 -0.3860
   21MOL    C3510875   2.153   5.041   5.695 -0.4405 -0.5159 -0.1983
   21MOL    O3610876   2.172   5.141   5.763  0.6828 -0.3665 -0.1511
   21MOL    C3710877   2.253   4.924   5.693  0.4663  0.3961  0.6587
   21MOL    C3810878   2.382   4.949   5.780  1.2517 -0.1508 -0.0021
   21MOL    C3910879   2.166   4.797   5.748 -0.2272 -0.3078  0.3215
   21MOL    H4010880   1.635   5.362   5.906 -1.1527 -0.1513 -0.4206
   21MOL    H4110881   1.510   5.238   5.935  0.6317  2.0723  2.0727
   21MOL    H4210882   1.678   5.197   5.937  1.5847  0.3216 -1.5216
   21MOL    H4310883   1.533   5.304   5.690 -2.8630 -1.3647  2.1570
   21MOL    H4410884   1.558   5.134   5.711 -0.8776  0.7420 -1.5614
   21MOL    H4510885   1.776   5.336   5.669 -1.6627  0.7936 -2.0364
   21MOL    H4610886   1.711   5.227   5.554 -0.5703 -3.4972 -0.1798
   21MOL    H4710887   1.874   5.167   5.807 -0.9356  0.1776 -0.5839
   21MOL    H4810888   1.788   5.037   5.736  0.9965  0.3421  1.7438
   21MOL    H4910889   1.993   5.213   5.590  1.0259 -1.1640 -1.0275
   21MOL    H5010890   1.887   5.102   5.505 -2.1006  0.2700  1.2293
   21MOL    H5110891   2.425   4.850   5.799  0.6383 -1.1225 -3.3045
   21MOL    H5210892   2.357   4.997   5.874  1.0208  0.0002 -0.1396
   21MOL    H5310893   2.456   5.007   5.724  0.6882 -1.5677 -2.3138
   21MOL    H5410894   2.230   4.709   5.740 -1.2879 -0.9541 -1.2452
   21MOL    H5510895   2.089   4.773   5.675 -0.9531  0.5272  0.7970
   21MOL    C5610896   1.528   4.454   5.614 -0.2224 -0.7671  0.1729
   21MOL    C5710897   1.672   4.390   5.608 -0.3441 -0.8970  0.3319
   21MOL    C5810898   1.774   4.444   5.708 -0.3942  0.5550  0.0677
   21MOL    C5910899   1.919   4.394   5.691 -0.9380 -0.0302  0.0853
   21MOL    C6010900   2.004   4.425   5.817 -0.1063 -0.4639  0.2004
   21MOL    O6110901   2.068   4.550   5.823  0.4211  0.0458 -0.0380
   21MOL    C6210902   2.020   4.650   5.895 -1.0176 -0.8998 -0.1865
   21MOL    O6310903   1.909   4.649   5.957 -0.0960 -0.0069 -0.1247
   21MOL    C6410904   2.115   4.777   5.899  0.3065  0.0118  0.2592
   21MOL    C6510905   2.039   4.899   5.942  0.2105  0.8867 -0.0029
   21MOL    C6610906   2.241   4.739   5.998 -0.1779  0.0703 -0.0178
   21MOL    H6710907   1.516   4.558   5.584 -1.9171 -0.4450  1.8805
   21MOL    H6810908   1.504   4.442   5.719 -1.2222  0.0593  0.0468
   21MOL    H6910909   1.454   4.398   5.556 -1.2478  0.4008  0.3318
   21MOL    H7010910   1.673   4.281   5.611 -0.3013 -0.9898 -1.9138
   21MOL    H7110911   1.722   4.405   5.512  1.4574 -0.0329  1.3842
   21MOL    H7210912   1.776   4.550   5.686 -2.1446  0.4234 -0.7830
   21MOL    H7310913   1.735   4.419   5.807  0.0837  0.3364  0.2018
   21MOL    H7410914   1.963   4.445   5.605 -1.6653 -1.0785 -0.9276
   21MOL    H7510915   1.913   4.287   5.674  1.1340 -0.0392 -0.6949
   21MOL    H7610916   1.950   4.412   5.911 -1.4084 -2.5982 -0.7978
   21MOL    H7710917   2.080   4.346   5.816  0.0384 -0.3364 -1.6245
   21MOL    H7810918   1.967   4.934   5.868  0.7505 -0.6482 -1.2657
   21MOL    H7910919   2.099   4.990   5.956  2.9639 -1.0578  1.3373
   21MOL    H8010920   1.979   4.885   6.032 -0.0850 -2.2816 -0.6583
   21MOL    H8110921   2.322   4.806   5.969 -1.9300  2.5593  0.7218
   21MOL    H8210922   2.286   4.649   5.955 -0.2773  0.2874 -0.5848
   21MOL    C8310923   2.759   5.149   6.126 -0.5602  0.2647 -0.1951
   21MOL    C8410924   2.609   5.173   6.153  0.1973  0.6465 -0.8227
   21MOL    C8510925   2.569   5.118   6.284 -0.4936  0.0239  1.3158
   21MOL    C8610926   2.425   5.148   6.321 -0.5061 -0.2879 -0.3994
   21MOL    C8710927   2.321   5.113   6.217 -0.1125  0.4463  0.1764
   21MOL    O8810928   2.322   4.972   6.177  0.4231 -0.1351  0.1252
   21MOL    C8910929   2.227   4.884   6.212  0.0577  1.0331  0.3611
   21MOL    O9010930   2.131   4.917   6.276  0.1938  0.4104 -0.2932
   21MOL    C9110931   2.248   4.739   6.152  0.3431 -0.1175 -1.1810
   21MOL    C9210932   2.129   4.661   6.205  0.0469  0.6200  0.2014
   21MOL    C9310933   2.390   4.694   6.200  0.3594 -0.5321 -0.1056
   21MOL    H9410934   2.798   5.202   6.038 -0.9978 -2.2974 -1.9904
   21MOL    H9510935   2.815   5.194   6.208 -1.0534 -0.6362  0.6372
   21MOL    H9610936   2.788   5.045   6.115 -0.7916  0.2049 -0.2343
   21MOL    H9710937   2.554   5.128   6.070  0.9079  1.0239 -1.5017
   21MOL    H9810938   2.604   5.282   6.157  0.6490  0.6298  0.3104
   21MOL    H9910939   2.634   5.162   6.360  2.6645 -0.8131 -0.7892
   21MOL   H10010940   2.583   5.011   6.268 -1.2255  0.1077  0.0273
   21MOL   H10110941   2.424   5.253   6.350 -2.2684 -0.9091  1.8912
   21MOL   H10210942   2.394   5.087   6.406 -1.3571 -2.1944 -2.0570
   21MOL   H10310943   2.335   5.191   6.142  0.8908 -0.8523 -1.0303
   21MOL   H10410944   2.230   5.131   6.274 -0.0229 -1.4401  0.9569
   21MOL   H10510945   2.137   4.555   6.178 -2.9198  0.2561  0.6074
   21MOL   H10610946   2.035   4.694   6.160 -0.1536  1.2438  1.0692
   21MOL   H10710947   2.105   4.669   6.311  0.7441 -3.2981  0.7361
   21MOL   H10810948   2.422   4.617   6.130  0.0998 -0.0610 -0.7574
   21MOL   H10910949   2.465   4.772   6.190  3.0625 -3.1931 -1.3249
   21MOL   C11010950   2.330   4.048   6.766 -0.3422  0.6302 -0.3518
   21MOL   C11110951   2.331   4.066   6.611 -0.9019  0.3492  0.1494
   21MOL   C11210952   2.285   4.199   6.562 -0.1726 -0.5646 -0.1557
   21MOL   C11310953   2.287   4.199   6.409 -0.4402 -0.4631  0.3018
   21MOL   C11410954   2.225   4.315   6.335 -0.4741  0.1126 -0.4071
   21MOL   O11510955   2.312   4.418   6.297 -0.1753 -0.7074  0.0994
   21MOL   C11610956   2.328   4.525   6.383  0.0356 -0.0195  0.4905
   21MOL   O11710957   2.265   4.529   6.489  0.0652  0.1291 -0.5850
   21MOL   C11810958   2.431   4.637   6.340  0.4100 -0.1561  0.0737
   21MOL   C11910959   2.428   4.757   6.433 -0.1246 -0.2484  0.5343
   21MOL   C12010960   2.577   4.580   6.319 -0.4294 -0.0660 -0.5535
   21MOL   H12110961   2.334   3.940   6.780  0.0034  0.7685  0.6405
   21MOL   H12210962   2.415   4.089   6.820  0.0254  1.2266 -1.3649
   21MOL   H12310963   2.230   4.079   6.794  0.7801  4.0123  0.1425
   21MOL   H12410964   2.431   4.056   6.568 -0.9769 -0.0522  0.0741
   21MOL   H12510965   2.273   3.991   6.559 -0.0314 -2.2587  2.7770
   21MOL   H12610966   2.189   4.235   6.599  0.6817  2.8025 -1.0156
   21MOL   H12710967   2.355   4.272   6.601 -0.0063 -1.2545  0.8596
   21MOL   H12810968   2.226   4.111   6.386 -1.1592  0.1899 -0.3050
   21MOL   H12910969   2.389   4.183   6.374 -0.3787 -1.8311  1.0614
   21MOL   H13010970   2.188   4.269   6.243 -0.2368  2.7112 -1.8599
   21MOL   H13110971   2.144   4.357   6.395  0.0839  0.4269  0.1263
   21MOL   H13210972   2.494   4.838   6.401 -0.9938 -0.5518 -2.1692
   21MOL   H13310973   2.325   4.792   6.446 -0.1072 -0.0522  0.1415
   21MOL   H13410974   2.455   4.732   6.536  0.4919 -0.8231  0.2324
   21MOL   H13510975   2.566   4.488   6.262  0.7660 -0.3952 -0.2558
   21MOL   H13610976   2.641   4.632   6.248 -1.0746 -0.8245 -1.7025
   21MOL   C13710977   3.151   5.152   6.360 -0.2724 -0.0640 -0.1805
   21MOL   C13810978   3.091   5.031   6.294  0.4258  0.5075 -0.8567
   21MOL   C13910979   3.026   4.937   6.397 -0.1977 -0.0611  0.0075
   21MOL   C14010980   2.877   4.969   6.417 -0.4934 -1.0288  0.9987
   21MOL   C14110981   2.798   4.879   6.511 -0.1760  1.1268  0.9210
   21MOL   O14210982   2.792   4.747   6.459  0.0268 -0.2438  0.4600
   21MOL   C14310983   2.718   4.655   6.523  0.4495 -0.2013  0.1626
   21MOL   O14410984   2.685   4.663   6.639  0.0429 -0.5965  0.2565
   21MOL   C14510985   2.679   4.533   6.434 -0.1794 -0.1163 -0.3702
   21MOL   C14610986   2.599   4.433   6.517 -0.0542 -0.0698  0.1080
   21MOL   C14710987   2.805   4.473   6.368 -0.6762  0.1907 -0.4028
   21MOL   H14810988   3.084   5.184   6.439  0.6084 -0.7223  0.8535
   21MOL   H14910989   3.155   5.230   6.284 -1.0096  1.7147  1.5663
   21MOL   H15010990   3.255   5.134   6.387 -0.0336 -1.7124 -2.0076
   21MOL   H15110991   3.174   4.977   6.249  0.7738  1.4359 -1.3369
   21MOL   H15210992   3.021   5.049   6.212  0.1365  0.1090 -0.7019
   21MOL   H15310993   3.036   4.831   6.374  1.4691 -0.1126  0.9073
   21MOL   H15410994   3.068   4.955   6.496 -0.3652 -0.0132  0.0700
   21MOL   H15510995   2.868   5.071   6.457 -2.1828 -0.5863 -0.4807
   21MOL   H15610996   2.832   4.972   6.318  0.6103  2.9717  0.5314
   21MOL   H15710997   2.700   4.926   6.518 -0.1624  2.0762 -3.6169
   21MOL   H15810998   2.833   4.862   6.613 -0.5090  2.4473  1.2638
   21MOL   H15910999   2.556   4.346   6.469  4.4202 -1.8718 -0.9092
   21MOL   H16011000   2.527   4.486   6.579  1.5626  3.5646 -0.9998
   21MOL   H16111001   2.667   4.387   6.589  0.4148  0.8793  0.2733
   21MOL   H16211002   2.753   4.420   6.288  1.2203  0.1976 -1.6649
   21MOL   H16311003   2.851   4.559   6.319 -2.5313  2.1014  1.0984
   21MOL   C16411004   2.885   3.621   6.897  0.8579  0.0963 -0.5860
   21MOL   C16511005   2.940   3.749   6.848 -0.1892 -0.5712 -0.3146
   21MOL   C16611006   2.844   3.825   6.755  0.3702  0.0269  0.4460
   21MOL   C16711007   2.888   3.966   6.707 -0.6518 -0.0917  1.0265
   21MOL   C16811008   2.804   4.043   6.608 -0.0237  0.6984 -0.4234
   21MOL   O16911009   2.865   4.168   6.579  0.7325 -0.5125  0.1793
   21MOL   C17011010   2.835   4.229   6.458 -0.4467 -0.2890 -0.2563
   21MOL   O17111011   2.750   4.185   6.375  0.6953 -0.3455 -0.3785
   21MOL   C17211012   2.905   4.371   6.441 -0.0192 -0.6266 -0.0632
   21MOL   C17311013   2.951   4.431   6.582 -0.3288  0.0683  0.0672
   21MOL   C17411014   3.025   4.363   6.338  0.0126 -0.1877 -0.7726
   21MOL   H17511015   2.793   3.635   6.953  1.5518  0.0150  0.5898
   21MOL   H17611016   2.964   3.575   6.957  0.9425  0.1322 -0.6697
   21MOL   H17711017   2.872   3.547   6.818  0.9954 -0.1939 -0.3402
   21MOL   H17811018   3.037   3.739   6.799  0.7798 -0.5209  1.5615
   21MOL   H17911019   2.973   3.814   6.929 -1.8272  0.9013 -0.7923
   21MOL   H18011020   2.826   3.750   6.678 -0.4027  1.0545 -0.3873
   21MOL   H18111021   2.751   3.849   6.807 -0.4469 -1.7762 -0.1336
   21MOL   H18211022   2.986   3.952   6.661 -1.4431  0.2489 -0.8095
   21MOL   H18311023   2.899   4.035   6.791  1.6644 -0.8778  1.3923
   21MOL   H18411024   2.713   4.062   6.664  0.6121  1.3284  0.4039
   21MOL   H18511025   2.790   3.988   6.515  1.0552  1.6352 -1.1545
   21MOL   H18611026   3.030   4.366   6.619  0.3773  0.6430 -0.4099
   21MOL   H18711027   2.872   4.432   6.657  0.4748 -0.4641  0.9237
   21MOL   H18811028   3.003   4.526   6.573  1.6762 -1.0810 -0.8099
   21MOL   H18911029   2.980   4.343   6.241 -0.7215 -0.3212 -0.4089
   21MOL   H19011030   3.074   4.460   6.340  0.5630 -0.4432 -1.7483
   21MOL   C19111031   3.336   3.757   6.953  0.3114 -0.0665 -0.4761
   21MOL   C19211032   3.373   3.875   6.866 -0.0498 -0.3271 -0.3978
   21MOL   C19311033   3.265   3.945   6.784  0.4489 -0.8105 -0.2385
   21MOL   C19411034   3.315   4.083   6.730  0.1334  0.1715  0.9625
   21MOL   C19511035   3.205   4.182   6.690 -0.1520 -0.2860  0.4917
   21MOL   O19611036   3.150   4.179   6.560 -0.2608  0.6177 -0.2271
   21MOL   C19711037   3.210   4.241   6.463 -0.7323 -0.1341  0.1445
   21MOL   O19811038   3.328   4.285   6.470 -0.3912  0.5392  0.5662
   21MOL   C19911039   3.134   4.245   6.331  0.0038 -0.1035  0.7756
   21MOL   C20011040   3.227   4.290   6.213  0.1482  0.3703 -0.4211
   21MOL   C20111041   3.075   4.097   6.299  0.7344 -0.6382 -0.2026
   21MOL   H20211042   3.308   3.684   6.877  0.1801  1.2420 -1.7101
   21MOL   H20311043   3.413   3.707   7.011  0.8089 -1.3131 -2.1782
   21MOL   H20411044   3.249   3.775   7.017 -0.7777 -1.8711 -1.4251
   21MOL   H20511045   3.472   3.871   6.819  0.0039  1.3149 -0.4501
   21MOL   H20611046   3.395   3.950   6.942 -2.0223 -1.2382  1.1252
   21MOL   H20711047   3.177   3.961   6.846 -0.8386 -2.1095 -1.6837
   21MOL   H20811048   3.232   3.873   6.709 -3.1299 -0.2022  0.6333
   21MOL   H20911049   3.379   4.140   6.798  0.9724 -1.1103  1.2684
   21MOL   H21011050   3.383   4.058   6.649 -2.3398 -1.4520 -0.6711
   21MOL   H21111051   3.127   4.177   6.767 -2.5076 -0.6275 -1.8455
   21MOL   H21211052   3.251   4.280   6.704  0.4171 -0.6162  0.9456
   21MOL   H21311053   3.324   4.242   6.207 -0.6382 -1.3695  0.5979
   21MOL   H21411054   3.255   4.393   6.234 -1.3520  1.1636 -2.1178
   21MOL   H21511055   3.176   4.304   6.117  0.1126 -2.1068 -0.7846
   21MOL   H21611056   2.984   4.121   6.244  0.2295  3.1406  2.0672
   21MOL   H21711057   3.044   4.056   6.395  0.3788  0.2436  0.0628
   21MOL   C21811058   2.390   3.817   6.273 -0.1396  0.0513  0.2978
   21MOL   C21911059   2.500   3.934   6.264 -0.4459  0.3224  0.5728
   21MOL   C22011060   2.639   3.884   6.206  0.3005 -0.2589 -0.3225
   21MOL   C22111061   2.709   3.771   6.291 -0.3594 -0.1593 -0.9696
   21MOL   C22211062   2.852   3.736   6.231 -0.4305  1.0628 -0.1450
   21MOL   O22311063   2.928   3.858   6.240 -0.2001  0.1139 -0.3581
   21MOL   C22411064   3.064   3.844   6.246 -0.1747  0.3620  0.3777
   21MOL   O22511065   3.123   3.735   6.249  0.4255  1.1239 -0.2565
   21MOL   C22611066   3.146   3.976   6.228  0.4402  0.5435 -0.2454
   21MOL   C22711067   3.284   3.954   6.309  0.5703 -0.6369  0.1917
   21MOL   C22811068   3.190   3.990   6.083 -0.5077  0.3002  0.5668
   21MOL   H22911069   2.420   3.719   6.309 -0.4228 -0.7874 -1.6614
   21MOL   H23011070   2.300   3.844   6.328 -2.0720 -3.3607 -1.0079
   21MOL   H23111071   2.357   3.796   6.171 -0.7021  1.8021  0.0947
   21MOL   H23211072   2.521   3.977   6.362  1.6118 -0.3015  0.4371
   21MOL   H23311073   2.455   4.011   6.201  1.1965 -0.5021 -1.6925
   21MOL   H23411074   2.704   3.971   6.198 -0.5262  0.4119  0.1274
   21MOL   H23511075   2.614   3.838   6.111 -5.4227 -0.6490  1.1789
   21MOL   H23611076   2.725   3.784   6.398  1.3274  1.2083 -1.3655
   21MOL   H23711077   2.648   3.682   6.275  0.1615 -0.5837 -0.6101
   21MOL   H23811078   2.839   3.705   6.127 -1.5109 -0.2226  0.3683
   21MOL   H23911079   2.895   3.650   6.281 -0.2291  0.1039 -1.9392
   21MOL   H24011080   3.355   3.878   6.276  2.2111  0.9617 -0.0477
   21MOL   H24111081   3.268   3.926   6.413 -1.6843  1.2508  0.3708
   21MOL   H24211082   3.346   4.044   6.313 -1.5102  0.7951  0.7454
   21MOL   H24311083   3.260   3.905   6.081 -2.3215 -1.2170 -0.6301
   21MOL   H24411084   3.253   4.078   6.072  0.6162 -0.6411 -0.7228
   21MOL   C24511085   3.265   3.216   5.981  0.3257  0.2033  0.7797
   21MOL   C24611086   3.349   3.323   5.913  0.5233  0.8666  0.7374
   21MOL   C24711087   3.268   3.417   5.824 -0.0242 -0.1572  0.5654
   21MOL   C24811088   3.212   3.540   5.898  0.2018 -0.3589 -0.2508
   21MOL   C24911089   3.159   3.651   5.803 -0.1388  0.1627 -0.1586
   21MOL   O25011090   3.167   3.778   5.871 -0.0711  0.7402  0.5903
   21MOL   C25111091   3.065   3.836   5.915 -0.0522 -0.0407  0.3369
   21MOL   O25211092   2.951   3.789   5.921  0.1196  0.3586  0.3504
   21MOL   C25311093   3.098   3.989   5.953 -0.5553  0.5649 -0.3000
   21MOL   C25411094   3.184   4.044   5.839 -1.0520 -0.0112  0.5359
   21MOL   C25511095   2.970   4.081   5.985  0.7834  0.2637  0.5724
   21MOL   H25611096   3.192   3.160   5.923  0.7556  0.3298  0.1076
   21MOL   H25711097   3.321   3.150   6.047 -0.0992  0.6068  1.5471
   21MOL   H25811098   3.203   3.274   6.049 -1.7674 -0.7122 -0.3152
   21MOL   H25911099   3.405   3.376   5.990 -0.8860  1.4681  1.3613
   21MOL   H26011100   3.425   3.281   5.846 -2.6475 -1.4419 -1.5570
   21MOL   H26111101   3.189   3.355   5.781 -0.3537  2.0231 -2.1558
   21MOL   H26211102   3.314   3.463   5.736  0.3723 -0.5229  0.5816
   21MOL   H26311103   3.131   3.515   5.966  0.3450  0.6244  0.3041
   21MOL   H26411104   3.287   3.582   5.966 -1.3852  0.3658  1.0948
   21MOL   H26511105   3.225   3.665   5.717  1.1268 -0.1655  0.7378
   21MOL   H26611106   3.058   3.617   5.781 -0.3533  0.4243  0.4257
   21MOL   H26711107   3.274   3.986   5.823 -0.5112  1.3188 -1.4587
   21MOL   H26811108   3.122   4.044   5.749 -2.5380 -2.2320  1.5052
   21MOL   H26911109   3.211   4.150   5.844 -1.3445  0.1681 -1.4644
   21MOL   H27011110   2.917   4.017   6.055  1.1465 -1.3569 -0.6168
   21MOL   H27111111   3.005   4.162   6.050  0.4306 -0.6875  1.9599
   21MOL   C27211112   2.313   3.495   5.734  0.6627  0.1337  0.0107
   21MOL   C27311113   2.401   3.596   5.814  0.8336  0.1548  0.6494
   21MOL   C27411114   2.480   3.694   5.721 -0.6980 -0.4153 -1.1205
   21MOL   C27511115   2.575   3.784   5.807  0.1551 -0.0843  0.1036
   21MOL   C27611116   2.619   3.908   5.741  0.5315  0.3027  0.4492
   21MOL   O27711117   2.712   3.974   5.822  0.3364 -0.7510 -0.3368
   21MOL   C27811118   2.811   4.047   5.783  0.0620 -0.5939  0.0389
   21MOL   O27911119   2.846   4.064   5.666  0.2789  0.0048 -0.4762
   21MOL   C28011120   2.869   4.150   5.890 -0.8202 -0.4346 -0.3233
   21MOL   C28111121   2.757   4.192   6.000  0.1202 -0.2709  0.2440
   21MOL   C28211122   2.938   4.276   5.825 -0.2757 -0.2416 -0.8025
   21MOL   H28311123   2.254   3.436   5.803 -2.9008  1.0730 -2.1172
   21MOL   H28411124   2.248   3.536   5.656  1.2265 -2.4009 -1.8435
   21MOL   H28511125   2.373   3.418   5.686 -2.4096 -1.2868 -1.6125
   21MOL   H28611126   2.342   3.652   5.886  0.3039 -0.1594  0.4621
   21MOL   H28711127   2.470   3.531   5.869  2.6833  0.1882 -1.5601
   21MOL   H28811128   2.525   3.643   5.635 -1.1773  0.6224 -2.0088
   21MOL   H28911129   2.401   3.758   5.681 -1.6076 -0.9503 -0.2003
   21MOL   H29011130   2.518   3.808   5.896  2.2456  0.4493  1.3455
   21MOL   H29111131   2.667   3.731   5.833 -0.5233  0.1809  3.2316
   21MOL   H29211132   2.545   3.986   5.728  0.3570  0.0769  0.0826
   21MOL   H29311133   2.665   3.884   5.645 -0.7730 -2.1163  0.3778
   21MOL   H29411134   2.705   4.101   6.030 -1.8161  0.7659  0.0588
   21MOL   H29511135   2.793   4.223   6.097 -2.6588 -1.4729  1.7184
   21MOL   H29611136   2.684   4.268   5.975 -1.4885 -1.1181  2.2726
   21MOL   H29711137   3.006   4.314   5.902 -1.3673  2.3537 -1.0586
   21MOL   H29811138   3.006   4.244   5.746  0.9351 -2.0663  0.9311
   21MOL   C29911139   2.821   4.964   5.570  0.5154 -0.1187  0.8996
   21MOL   C30011140   2.863   5.003   5.711 -0.1544  0.3881 -0.0155
   21MOL   C30111141   2.863   4.895   5.820 -0.4147 -0.1306  0.9655
   21MOL   C30211142   2.722   4.841   5.856  0.3102  0.1794 -0.5667
   21MOL   C30311143   2.730   4.715   5.941 -0.5290  0.1738 -0.4118
   21MOL   O30411144   2.772   4.611   5.856 -0.6125 -0.7708  0.0651
   21MOL   C30511145   2.819   4.496   5.899 -0.3737  0.7138  0.6460
   21MOL   O30611146   2.839   4.472   6.015  0.1037  0.0400  0.0789
   21MOL   C30711147   2.852   4.397   5.775  0.2325  0.1223 -0.2901
   21MOL   C30811148   2.950   4.474   5.681  0.5420 -0.0209 -0.5142
   21MOL   C30911149   2.727   4.350   5.692 -0.1966 -0.7405 -0.1317
   21MOL   H31011150   2.906   4.962   5.502  1.1333  0.3888  1.6525
   21MOL   H31111151   2.754   5.040   5.531  0.2616 -1.0405 -0.5112
   21MOL   H31211152   2.776   4.866   5.554  0.6249 -0.0955  0.4430
   21MOL   H31311153   2.797   5.083   5.745 -1.3508 -1.3988  1.9519
   21MOL   H31411154   2.966   5.039   5.706  0.0493 -0.3812 -2.2736
   21MOL   H31511155   2.902   4.953   5.903  1.2728  0.3642 -0.1510
   21MOL   H31611156   2.929   4.813   5.791  1.1499  1.4750 -0.1589
   21MOL   H31711157   2.665   4.811   5.767  1.4993 -1.1750 -0.8913
   21MOL   H31811158   2.661   4.913   5.911 -0.0177  0.1532 -0.8946
   21MOL   H31911159   2.789   4.727   6.031 -1.6908  1.4351  0.2017
   21MOL   H32011160   2.629   4.688   5.972 -0.5013  0.4813 -0.0604
   21MOL   H32111161   3.051   4.494   5.717  0.5183 -0.6640 -0.0701
   21MOL   H32211162   2.952   4.434   5.580 -1.5262  2.1466 -1.4490
   21MOL   H32311163   2.917   4.576   5.666  2.9849  0.6082 -1.9116
   21MOL   H32411164   2.699   4.253   5.732  0.3853 -0.9844 -0.3038
   21MOL   H32511165   2.781   4.313   5.604 -1.8327 -3.9929  0.1526
   21MOL   C32611166   2.186   3.942   5.814 -0.4199 -0.3847 -0.1494
   21MOL   C32711167   2.252   4.031   5.921  0.1458  0.0884 -0.2995
   21MOL   C32811168   2.310   4.161   5.868 -0.1455 -0.3898  0.7969
   21MOL   C32911169   2.359   4.254   5.985 -0.3236  0.4646  0.3438
   21MOL   C33011170   2.389   4.388   5.924 -0.0332 -0.0934  0.4250
   21MOL   O33111171   2.490   4.376   5.825  0.2340 -0.4031  0.2446
   21MOL   C33211172   2.515   4.480   5.748 -0.2241  0.1080 -0.4219
   21MOL   O33311173   2.477   4.592   5.762 -0.7610  0.0783  0.0343
   21MOL   C33411174   2.608   4.437   5.629 -1.0612 -0.2209 -0.7259
   21MOL   C33511175   2.655   4.563   5.554 -0.1923  0.4557 -0.5353
   21MOL   C33611176   2.535   4.335   5.531 -0.2047 -0.1691 -0.2749
   21MOL   H33711177   2.106   4.005   5.774  0.1058  0.3620 -0.0150
   21MOL   H33811178   2.137   3.855   5.858 -0.2270  0.4537  1.7256
   21MOL   H33911179   2.260   3.914   5.739  1.1051  3.0644 -0.0075
   21MOL   H34011180   2.327   3.968   5.967  0.2840  0.0853 -0.5253
   21MOL   H34111181   2.185   4.053   6.004  0.4424 -1.6919  0.4299
   21MOL   H34211182   2.233   4.200   5.801  0.7730  1.6008  0.8677
   21MOL   H34311183   2.397   4.139   5.806 -1.4707 -2.2671 -0.4290
   21MOL   H34411184   2.443   4.205   6.034  0.1954 -0.1505 -1.1462
   21MOL   H34511185   2.271   4.273   6.047 -1.2129  1.9190 -1.3191
   21MOL   H34611186   2.429   4.451   6.004 -0.1246  0.4342  0.0576
   21MOL   H34711187   2.295   4.429   5.887 -0.5491 -1.2744  0.4042
   21MOL   H34811188   2.710   4.635   5.614  0.1799  0.5206 -0.9588
   21MOL   H34911189   2.571   4.618   5.513  0.4410  0.9371 -1.1881
   21MOL   H35011190   2.721   4.535   5.472  0.9021 -0.9292  0.7865
   21MOL   H35111191   2.499   4.263   5.604 -1.3228  1.0304  0.3794
   21MOL   H35211192   2.612   4.282   5.475  2.3774  3.2534 -0.1832
   21MOL   C35311193   2.855   4.234   4.907  0.2900  0.2805  0.3524
   21MOL   C35411194   2.707   4.266   4.882 -0.0328 -0.3016  0.3398
   21MOL   C35511195   2.629   4.325   4.995  0.1107 -0.2739  0.2676
   21MOL   C35611196   2.694   4.446   5.063 -0.5122  1.0165 -0.1080
   21MOL   C35711197   2.604   4.520   5.160 -1.0330 -0.2650 -0.3828
   21MOL   O35811198   2.554   4.434   5.263  0.9433 -0.7299  0.0957
   21MOL   C35911199   2.449   4.473   5.338  0.5282  0.5419  0.4188
   21MOL   O36011200   2.387   4.576   5.318  0.0473 -0.5932  0.4612
   21MOL   C36111201   2.412   4.371   5.440  0.1482  0.1332  0.1315
   21MOL   C36211202   2.296   4.425   5.527  0.6788  0.6430 -0.1092
   21MOL   C36311203   2.376   4.228   5.384 -0.0112 -0.6822 -0.0815
   21MOL   H36411204   2.862   4.211   5.013  1.1305  0.6305  0.3757
   21MOL   H36511205   2.917   4.323   4.898  0.0387  0.3690 -0.6122
   21MOL   H36611206   2.891   4.151   4.846 -0.5001  0.5312 -0.4773
   21MOL   H36711207   2.692   4.319   4.789  0.2561  0.9555  0.9983
   21MOL   H36811208   2.659   4.168   4.874 -0.6893 -0.0553  1.0927
   21MOL   H36911209   2.612   4.257   5.079  2.0582  0.4820  1.3048
   21MOL   H37011210   2.528   4.348   4.960 -0.0958 -0.4019  0.7611
   21MOL   H37111211   2.725   4.519   4.987  1.8584  0.6331  0.4639
   21MOL   H37211212   2.782   4.416   5.120 -1.9546 -0.3213  1.4588
   21MOL   H37311213   2.633   4.617   5.200 -0.0462 -0.6427 -0.1725
   21MOL   H37411214   2.522   4.548   5.094 -1.0814  1.5916  0.4360
   21MOL   H37511215   2.276   4.373   5.621 -2.4100  0.4165 -0.8509
   21MOL   H37611216   2.318   4.526   5.562 -0.5883  1.3636 -1.3411
   21MOL   H37711217   2.199   4.424   5.478  1.4406 -0.9875 -1.6406
   21MOL   H37811218   2.468   4.197   5.334  1.1962  0.1814  1.5723
   21MOL   H37911219   2.368   4.162   5.471 -0.0240 -3.0791 -1.8236
   21MOL   C38011220   1.379   4.203   5.292  0.2433  0.7330  0.3747
   21MOL   C38111221   1.517   4.233   5.232  0.0454  0.3216  0.5139
   21MOL   C38211222   1.635   4.162   5.303 -0.6911  0.1251 -0.4682
   21MOL   C38311223   1.777   4.203   5.250 -0.4157  0.4844  0.7592
   21MOL   C38411224   1.889   4.127   5.321  0.8715 -0.5697 -0.9196
   21MOL   O38511225   2.017   4.163   5.275  0.2408  0.3887  0.6172
   21MOL   C38611226   2.116   4.183   5.363 -0.4468  0.1618 -0.0167
   21MOL   O38711227   2.101   4.197   5.487 -0.3304 -0.1533  0.4912
   21MOL   C38811228   2.254   4.193   5.290 -0.1440  0.7861  0.8044
   21MOL   C38911229   2.244   4.299   5.175 -0.0218 -0.4139 -0.3155
   21MOL   C39011230   2.266   4.046   5.207  0.0144  0.2676 -0.7121
   21MOL   H39111231   1.292   4.244   5.239  0.6279  1.3627  0.2249
   21MOL   H39211232   1.375   4.095   5.281  0.5685  0.9603 -2.4936
   21MOL   H39311233   1.383   4.216   5.400 -1.1477  2.1584  0.2816
   21MOL   H39411234   1.530   4.342   5.231 -1.8128  0.5557  0.8712
   21MOL   H39511235   1.510   4.199   5.129 -1.1363  1.0737  0.3354
   21MOL   H39611236   1.637   4.156   5.411  1.2508  0.6497 -0.4441
   21MOL   H39711237   1.623   4.061   5.265  1.0107 -0.4284  0.4286
   21MOL   H39811238   1.792   4.173   5.146  0.0528  1.2711  0.6025
   21MOL   H39911239   1.787   4.310   5.262 -0.7071  0.8013 -1.5039
   21MOL   H40011240   1.880   4.021   5.296 -0.4155 -0.9630  1.0892
   21MOL   H40111241   1.875   4.129   5.429  3.5653  2.0742 -0.5423
   21MOL   H40211242   2.218   4.402   5.200  2.9576  0.1614  0.6091
   21MOL   H40311243   2.164   4.264   5.109 -2.3688 -1.2255  2.8250
   21MOL   H40411244   2.341   4.309   5.127  0.5216  0.7283  0.9988
   21MOL   H40511245   2.353   4.058   5.144  1.5360 -0.4134  1.2158
   21MOL   H40611246   2.182   4.035   5.139 -0.1640 -0.4181 -0.3894
   21MOL   C40711247   2.811   3.676   4.845  0.0653  0.0528 -0.3494
   21MOL   C40811248   2.811   3.815   4.912 -0.4090  0.3051 -0.0122
   21MOL   C40911249   2.724   3.808   5.038  0.0368  0.6473  0.3731
   21MOL   C41011250   2.745   3.937   5.116  0.0956  0.0286 -0.1351
   21MOL   C41111251   2.670   3.930   5.245 -0.3393 -0.0683  0.2706
   21MOL   O41211252   2.529   3.931   5.230 -0.1000  0.3262 -0.4941
   21MOL   C41311253   2.442   3.920   5.334 -0.1992 -0.2733 -0.1408
   21MOL   O41411254   2.462   3.916   5.452 -0.4187  0.4420 -0.0701
   21MOL   C41511255   2.293   3.911   5.285 -0.2412  0.1429  0.7122
   21MOL   C41611256   2.192   3.905   5.402 -0.7966  0.0181 -0.0142
   21MOL   C41711257   2.281   3.790   5.176  0.2956 -0.0362 -0.7602
   21MOL   H41811258   2.827   3.591   4.911 -0.0025  0.5797  0.3497
   21MOL   H41911259   2.721   3.668   4.784 -0.0798 -0.8659 -0.0284
   21MOL   H42011260   2.890   3.662   4.770 -1.1551  0.1570 -1.6771
   21MOL   H42111261   2.770   3.885   4.840  0.4389  0.7861 -0.0313
   21MOL   H42211262   2.910   3.849   4.941 -0.3267  1.5274 -1.6436
   21MOL   H42311263   2.620   3.789   5.009  0.0305  1.5222 -0.1856
   21MOL   H42411264   2.749   3.719   5.096 -0.6845  0.3701  0.2799
   21MOL   H42511265   2.704   4.020   5.059 -0.2921 -0.2660 -0.2890
   21MOL   H42611266   2.848   3.970   5.127 -0.0484  1.0050 -1.4960
   21MOL   H42711267   2.699   3.842   5.302  2.5718  0.2735 -0.5936
   21MOL   H42811268   2.696   4.021   5.299 -1.9646  1.3282 -1.2261
   21MOL   H42911269   2.202   3.801   5.434 -0.2927  1.0705  3.4559
   21MOL   H43011270   2.091   3.926   5.370 -0.4964  1.8138  0.1550
   21MOL   H43111271   2.223   3.967   5.486 -0.3606  0.6256 -0.6158
   21MOL   H43211272   2.357   3.804   5.100 -1.2998  1.4957 -2.1298
   21MOL   H43311273   2.192   3.811   5.117  0.1963  1.0420 -0.2462
   21MOL   C43411274   2.302   2.984   5.400 -0.1705 -0.0847 -0.1732
   21MOL   C43511275   2.209   3.077   5.482 -0.7235 -0.1312 -0.0765
   21MOL   C43611276   2.160   3.194   5.390 -0.4819  0.0878 -0.0564
   21MOL   C43711277   2.074   3.298   5.463  0.1846 -0.2122  0.4663
   21MOL   C43811278   2.036   3.422   5.380  0.0362 -0.7856  0.1602
   21MOL   O43911279   2.162   3.480   5.339 -0.1472 -0.1080  0.0185
   21MOL   C44011280   2.151   3.590   5.262  0.5258  0.7068  0.0981
   21MOL   O44111281   2.047   3.653   5.235 -0.1139 -0.0437 -0.0462
   21MOL   C44211282   2.286   3.633   5.208  0.1624  0.8950  0.3617
   21MOL   C44311283   2.408   3.608   5.297 -0.4063 -0.1987 -0.4606
   21MOL   C44411284   2.315   3.539   5.083  0.0787 -0.0954  0.4208
   21MOL   H44511285   2.267   2.882   5.409  0.7729 -0.2397  1.8390
   21MOL   H44611286   2.289   3.002   5.293  0.2621 -1.9276 -0.5456
   21MOL   H44711287   2.405   3.013   5.423  0.1409  0.1355 -1.7582
   21MOL   H44811288   2.123   3.023   5.522 -1.3703  0.5007 -0.5959
   21MOL   H44911289   2.268   3.114   5.566 -1.6749 -0.2304  0.6519
   21MOL   H45011290   2.246   3.235   5.338  1.1343 -3.9361 -0.6911
   21MOL   H45111291   2.097   3.146   5.314 -1.8108  0.3057  0.8823
   21MOL   H45211292   2.123   3.338   5.552  1.7289 -0.6111 -0.1921
   21MOL   H45311293   1.978   3.258   5.495  0.0505 -1.9957 -2.0361
   21MOL   H45411294   1.974   3.490   5.438 -0.0351 -1.5782  1.0251
   21MOL   H45511295   1.980   3.397   5.290 -0.8988  0.9325  0.2590
   21MOL   H45611296   2.424   3.501   5.306  1.0268 -0.1730 -2.3735
   21MOL   H45711297   2.489   3.669   5.258 -0.8226  2.7084  2.9854
   21MOL   H45811298   2.401   3.658   5.393  3.2410 -0.2332 -0.1183
   21MOL   H45911299   2.355   3.439   5.101 -1.1997 -0.7286 -0.1898
   21MOL   H46011300   2.412   3.578   5.052  0.5324 -1.4419  0.1131
   21MOL   C46111301   2.494   4.283   4.572  0.2485 -0.0959  0.3443
   21MOL   C46211302   2.492   4.131   4.604 -0.8571  0.0484  1.1811
   21MOL   C46311303   2.385   4.090   4.710  0.6533  0.0127  0.0611
   21MOL   C46411304   2.377   3.937   4.728 -0.2146 -0.9383  0.0280
   21MOL   C46511305   2.271   3.896   4.835  0.3817 -0.2479 -0.1012
   21MOL   O46611306   2.297   3.757   4.859  0.3533  0.3229  0.1089
   21MOL   C46711307   2.190   3.677   4.899 -0.0120 -0.4205  0.5311
   21MOL   O46811308   2.074   3.721   4.909  0.3293 -0.4643  0.0923
   21MOL   C46911309   2.234   3.538   4.948 -0.4119 -0.5545 -0.6985
   21MOL   C47011310   2.122   3.438   4.965  0.0896  0.6075  0.6459
   21MOL   C47111311   2.331   3.470   4.839  0.8622 -0.4592 -0.6108
   21MOL   H47211312   2.565   4.314   4.495 -1.3882 -2.5691 -2.2022
   21MOL   H47311313   2.500   4.355   4.654 -1.0353 -1.1617  1.3927
   21MOL   H47411314   2.397   4.304   4.528 -0.4525  1.4192  2.5001
   21MOL   H47511315   2.590   4.090   4.630  0.2619  0.3320 -2.3109
   21MOL   H47611316   2.482   4.092   4.503 -0.0563  0.6058  0.8831
   21MOL   H47711317   2.288   4.136   4.688  2.6271  3.2493 -2.3107
   21MOL   H47811318   2.412   4.137   4.804  0.3942  1.6449 -0.6618
   21MOL   H47911319   2.473   3.894   4.757 -0.1433  0.1141  1.4058
   21MOL   H48011320   2.342   3.895   4.634  1.6038 -0.5814 -0.8276
   21MOL   H48111321   2.298   3.947   4.927  0.0335 -0.8443  0.3348
   21MOL   H48211322   2.170   3.930   4.813 -0.6566 -0.9935  3.2907
   21MOL   H48311323   2.051   3.451   5.047 -1.0466 -0.0401 -0.2073
   21MOL   H48411324   2.169   3.346   5.000 -0.9479 -0.1155  0.2057
   21MOL   H48511325   2.070   3.424   4.870 -0.3067  1.8875  0.6578
   21MOL   H48611326   2.363   3.379   4.889  1.6861  0.8663  1.3528
   21MOL   H48711327   2.423   3.527   4.823  2.3504 -1.8029  2.7706
   21MOL   C48811328   2.212   2.796   4.347 -0.3243  0.3549 -0.3194
   21MOL   C48911329   2.298   2.754   4.471 -0.0096 -0.4706 -0.8558
   21MOL   C49011330   2.252   2.823   4.606 -0.0379 -0.4627 -0.2220
   21MOL   C49111331   2.285   2.974   4.607  0.1788  0.3027  0.1751
   21MOL   C49211332   2.243   3.047   4.733 -0.2251  0.1435 -0.4614
   21MOL   O49311333   2.300   3.177   4.734  0.2279  0.0204 -0.8487
   21MOL   C49411334   2.217   3.278   4.702 -0.4741 -0.6732 -0.4328
   21MOL   O49511335   2.096   3.271   4.682 -0.8478  0.2116  0.1680
   21MOL   C49611336   2.297   3.413   4.694 -0.6047 -0.2846 -0.0260
   21MOL   C49711337   2.435   3.397   4.622  0.8910  0.3723 -0.0186
   21MOL   C49811338   2.208   3.520   4.620  0.0745  0.0066 -0.2179
   21MOL   H49911339   2.207   2.905   4.339  0.8406  0.2627 -2.5954
   21MOL   H50011340   2.257   2.745   4.263  1.3981  0.7875  0.3077
   21MOL   H50111341   2.111   2.758   4.357 -0.2705  0.1386 -0.6003
   21MOL   H50211342   2.400   2.786   4.453 -0.3121  0.7275 -0.4601
   21MOL   H50311343   2.296   2.648   4.499  0.9784 -0.1735  0.3833
   21MOL   H50411344   2.149   2.801   4.633 -0.5243  2.2453  0.3038
   21MOL   H50511345   2.315   2.791   4.690  2.0770  1.5132 -0.9864
   21MOL   H50611346   2.237   3.015   4.519 -0.0462  2.2776  1.1813
   21MOL   H50711347   2.390   2.984   4.578 -0.1026 -1.3131 -1.4527
   21MOL   H50811348   2.134   3.049   4.726 -0.3035 -0.1580  0.5634
   21MOL   H50911349   2.273   2.994   4.824  1.9915  0.4833 -0.9612
   21MOL   H51011350   2.431   3.332   4.535  0.4263 -2.9403  2.3933
   21MOL   H51111351   2.508   3.351   4.688  2.1519  1.5212 -0.5858
   21MOL   H51211352   2.481   3.494   4.600 -0.1646  0.8698 -0.0654
   21MOL   H51311353   2.246   3.619   4.646  2.7631 -1.4352  1.6819
   21MOL   H51411354   2.108   3.520   4.663  0.5553 -0.0267  0.9308
   21MOL   C51511355   2.965   3.782   4.355 -0.1061 -0.0956 -0.0964
   21MOL   C51611356   2.841   3.771   4.448  0.5826  0.8252  0.0608
   21MOL   C51711357   2.707   3.812   4.389  0.4697 -0.1118  0.0686
   21MOL   C51811358   2.585   3.761   4.474 -0.5162  0.0148 -0.7906
   21MOL   C51911359   2.457   3.780   4.386  0.4375 -0.4051  0.0925
   21MOL   O52011360   2.342   3.710   4.434  1.0579  0.1886  0.4222
   21MOL   C52111361   2.296   3.596   4.376 -0.0126 -0.7501 -0.5746
   21MOL   O52211362   2.331   3.554   4.270 -0.6896 -0.0936  0.4493
   21MOL   C52311363   2.181   3.529   4.463  0.1288  0.4607  0.2046
   21MOL   C52411364   2.053   3.609   4.447 -0.2655  0.5983  0.3264
   21MOL   C52511365   2.148   3.392   4.398  0.2226  0.3774  0.6147
   21MOL   H52611366   2.961   3.882   4.312  0.4132  0.5746  1.3775
   21MOL   H52711367   3.056   3.767   4.413 -0.6383 -2.9465  0.0991
   21MOL   H52811368   2.969   3.698   4.286  1.6130 -0.7581  0.7581
   21MOL   H52911369   2.837   3.674   4.498  0.2475  0.5555 -0.4775
   21MOL   H53011370   2.855   3.823   4.542 -0.3387 -0.2789  0.8246
   21MOL   H53111371   2.690   3.919   4.377  0.1397 -0.3785 -2.0495
   21MOL   H53211372   2.704   3.771   4.288  0.5627  0.0830 -0.0142
   21MOL   H53311373   2.571   3.822   4.563  2.2027  1.8635 -1.5726
   21MOL   H53411374   2.599   3.655   4.496  1.0550  0.6799  1.5476
   21MOL   H53511375   2.431   3.885   4.372 -0.4105 -0.3680  1.8316
   21MOL   H53611376   2.476   3.754   4.282 -1.5653 -0.0194 -0.3741
   21MOL   H53711377   2.066   3.712   4.479  1.1270  0.4986  0.0867
   21MOL   H53811378   1.970   3.586   4.514  0.0524  0.9599  0.8459
   21MOL   H53911379   2.013   3.615   4.346  1.3352  1.3594 -0.2727
   21MOL   H54011380   2.112   3.416   4.298 -0.0411 -0.8290  0.4112
   21MOL   H54111381   2.057   3.343   4.434  0.5498  0.5048  1.6113
   21MOL   H54211382   2.229   3.319   4.394  0.1203  0.0727  3.0966
   22MOL     C111383   2.413   7.445   0.844 -0.2720  0.3308 -1.2507
   22MOL     C211384   2.307   7.544   0.786 -0.1507  0.4138  0.0000
   22MOL     C311385   2.204   7.481   0.695 -0.2163 -0.0343  0.2663
   22MOL     C411386   2.105   7.590   0.657 -0.1216 -0.5241  0.1172
   22MOL     C511387   1.967   7.562   0.589  0.6194  0.4497  0.3763
   22MOL     O611388   1.873   7.505   0.681 -0.2056  0.3716  0.3658
   22MOL     C711389   1.856   7.369   0.694 -0.7785 -0.2079 -0.3218
   22MOL     O811390   1.930   7.282   0.647  0.3614 -0.0706  0.1772
   22MOL     C911391   1.734   7.339   0.782 -0.5120 -0.0475 -0.0866
   22MOL    C1011392   1.603   7.321   0.702 -0.7889 -0.8601  0.1909
   22MOL    C1111393   1.708   7.429   0.909  0.1055  0.1357 -0.6580
   22MOL    H1211394   2.438   7.375   0.764 -0.5443 -0.2446 -0.8400
   22MOL    H1311395   2.374   7.396   0.933  0.7781  0.0466 -0.9424
   22MOL    H1411396   2.504   7.503   0.858  0.3046 -1.1679  1.5485
   22MOL    H1511397   2.257   7.585   0.873  1.1246  1.2636  0.3409
   22MOL    H1611398   2.352   7.628   0.733  1.9637 -0.8048 -0.2100
   22MOL    H1711399   2.257   7.438   0.610 -0.9819  0.6897 -0.5909
   22MOL    H1811400   2.164   7.396   0.750 -0.3678 -0.2569 -0.1936
   22MOL    H1911401   2.165   7.648   0.588  0.0331 -0.7360  0.0710
   22MOL    H2011402   2.077   7.652   0.742  2.6448  1.0801 -0.1036
   22MOL    H2111403   1.924   7.655   0.551  0.9479  0.6946  0.5949
   22MOL    H2211404   1.978   7.495   0.504 -1.5821 -0.2897  0.6380
   22MOL    H2311405   1.626   7.267   0.610 -0.7673 -0.1884 -0.2047
   22MOL    H2411406   1.566   7.421   0.680  0.4829 -0.1225  1.3479
   22MOL    H2511407   1.523   7.269   0.755 -2.7434  0.4176 -1.3966
   22MOL    H2611408   1.599   7.438   0.912  0.0999 -0.4538  1.2000
   22MOL    H2711409   1.732   7.531   0.879  0.4461 -0.0414 -0.9844
   22MOL    H2811410   1.760   7.240   0.820  0.0410  0.3726  0.6485
   22MOL    C2911411   1.226   0.230   1.217  0.2729  0.3812 -0.2054
   22MOL    C3011412   1.266   0.101   1.144 -0.0105 -0.2518  0.0582
   22MOL    C3111413   1.360   0.012   1.228 -0.1631 -0.6261  0.2387
   22MOL    C3211414   1.443   7.724   1.145 -0.5445 -0.8565  0.3459
   22MOL    C3311415   1.531   7.635   1.226 -0.5583  0.4407  0.2488
   22MOL    O3411416   1.592   7.537   1.140  0.1956  0.1864  0.2127
   22MOL    C3511417   1.728   7.532   1.129  0.1344 -0.5678  0.2483
   22MOL    O3611418   1.810   7.613   1.171 -0.4602  0.3456  0.0854
   22MOL    C3711419   1.777   7.411   1.041  0.1875  0.2316 -0.4151
   22MOL    C3811420   1.928   7.425   1.014 -0.1086  0.2747 -1.4242
   22MOL    C3911421   1.738   7.261   1.097  0.1596  0.1421 -0.2684
   22MOL    H4011422   1.161   0.292   1.155  0.1449  1.3291  0.8480
   22MOL    H4111423   1.180   0.211   1.314  2.3876 -0.1380  0.7175
   22MOL    H4211424   1.316   0.283   1.248  0.4436  1.6911 -2.7241
   22MOL    H4311425   1.320   0.127   1.053  0.2624 -1.9093 -0.2704
   22MOL    H4411426   1.179   0.042   1.117  1.0930 -1.9346  0.0968
   22MOL    H4511427   1.308   7.768   1.305  0.0144 -1.1197 -0.0090
   22MOL    H4611428   1.433   0.067   1.287  1.4548 -3.2286  0.7882
   22MOL    H4711429   1.368   7.682   1.077 -1.6132  0.3744  0.7488
   22MOL    H4811430   1.502   7.793   1.085  0.0746 -3.0350 -1.6207
   22MOL    H4911431   1.474   7.592   1.309 -1.4145 -0.4967 -0.8138
   22MOL    H5011432   1.613   7.696   1.264 -0.5517  0.6965 -0.1765
   22MOL    H5111433   1.950   7.515   0.956  0.9135  0.2280 -1.1172
   22MOL    H5211434   1.963   7.336   0.962 -1.7123 -0.4226 -1.3346
   22MOL    H5311435   1.996   7.427   1.100 -1.5797 -0.1391 -0.2249
   22MOL    H5411436   1.763   7.191   1.018  1.6007  0.4759 -0.1234
   22MOL    H5511437   1.629   7.258   1.100  0.0693  2.6955  3.7045
   22MOL    C5611438   2.256   7.085   0.688  0.1261  0.6167 -1.3135
   22MOL    C5711439   2.264   7.019   0.828 -0.0674  0.7509  0.1642
   22MOL    C5811440   2.205   7.107   0.939  0.1704  0.7021 -0.2693
   22MOL    C5911441   2.221   7.049   1.080  0.0871  0.2983  0.5320
   22MOL    C6011442   2.160   7.130   1.197  0.7200 -0.7495 -0.2127
   22MOL    O6111443   2.010   7.122   1.179 -0.4424 -0.3259 -0.3076
   22MOL    C6211444   1.941   7.219   1.255 -0.4332  0.2218 -0.1629
   22MOL    O6311445   1.996   7.309   1.323  0.1246  0.4477 -0.2442
   22MOL    C6411446   1.782   7.217   1.243 -0.1589  0.9661 -0.7445
   22MOL    C6511447   1.730   7.070   1.263  0.7801  0.6618 -0.1044
   22MOL    C6611448   1.709   7.310   1.356  0.1215  0.5207  0.1999
   22MOL    H6711449   2.331   7.164   0.680  1.5200 -0.3423  1.6123
   22MOL    H6811450   2.160   7.116   0.647 -0.8261 -1.8250 -0.9904
   22MOL    H6911451   2.284   7.012   0.612 -1.9034 -0.5091 -1.0173
   22MOL    H7011452   2.208   6.925   0.827  1.8604 -0.4660  2.3709
   22MOL    H7111453   2.367   6.998   0.857  0.3720  0.4706 -1.5632
   22MOL    H7211454   2.267   7.197   0.938  1.0280  0.1419  1.5019
   22MOL    H7311455   2.106   7.143   0.911  0.2354 -0.4174 -1.9983
   22MOL    H7411456   2.329   7.046   1.089  0.2953  1.2697 -1.3506
   22MOL    H7511457   2.165   6.956   1.071  0.6573  0.0006  0.0453
   22MOL    H7611458   2.190   7.090   1.293 -0.6354 -0.7224  0.2363
   22MOL    H7711459   2.197   7.232   1.198 -0.1189 -0.3661 -3.1218
   22MOL    H7811460   1.623   7.054   1.271  1.0267 -1.3126 -0.5759
   22MOL    H7911461   1.784   7.019   1.342  3.2398  0.5231 -1.7885
   22MOL    H8011462   1.766   7.011   1.179  0.1420  1.5985 -1.0544
   22MOL    H8111463   1.610   7.307   1.310  0.4961 -1.3561 -0.5216
   22MOL    H8211464   1.763   7.404   1.344  1.8597 -0.5292 -0.3705
   22MOL    C8311465   1.235   6.829   1.922 -0.0199  0.1250  0.0124
   22MOL    C8411466   1.334   6.948   1.933 -0.2210  0.8162 -0.6716
   22MOL    C8511467   1.450   6.945   1.837  0.5018 -0.4078 -0.7212
   22MOL    C8611468   1.409   6.948   1.694  0.0870  0.4033 -0.7026
   22MOL    C8711469   1.530   6.937   1.596 -0.0796 -0.2104  0.6033
   22MOL    O8811470   1.614   7.048   1.589  0.5410 -0.8434 -0.2103
   22MOL    C8911471   1.575   7.163   1.513  0.4566 -0.8160  0.1269
   22MOL    O9011472   1.467   7.170   1.450  0.0423 -0.2710 -0.2384
   22MOL    C9111473   1.681   7.278   1.506  0.9418  0.3809 -0.3461
   22MOL    C9211474   1.801   7.240   1.585  1.0005  0.6282  0.6255
   22MOL    C9311475   1.623   7.416   1.559  0.3154  0.0279  0.7942
   22MOL    H9411476   1.274   6.727   1.927 -1.1736 -0.2365  2.0410
   22MOL    H9511477   1.166   6.844   2.005  0.6639  0.5495  0.5036
   22MOL    H9611478   1.170   6.825   1.834  1.3431  1.4366 -1.0799
   22MOL    H9711479   1.372   6.950   2.035  1.8438 -1.4487 -1.3449
   22MOL    H9811480   1.277   7.041   1.922  2.3262  3.0240  3.4609
   22MOL    H9911481   1.509   6.857   1.862 -0.9153 -1.5729 -1.4265
   22MOL   H10011482   1.517   7.030   1.854  2.1633 -2.0875  1.4783
   22MOL   H10111483   1.358   7.042   1.671 -2.5587  0.2407  3.8059
   22MOL   H10211484   1.329   6.876   1.676  0.4162 -0.2777  0.5223
   22MOL   H10311485   1.491   6.918   1.496 -2.7094 -0.9295  1.7251
   22MOL   H10411486   1.595   6.850   1.607  2.2074  1.4545  0.7202
   22MOL   H10511487   1.856   7.155   1.543 -0.0026  0.5190 -0.5163
   22MOL   H10611488   1.770   7.206   1.684  1.0891  1.1868  0.8413
   22MOL   H10711489   1.858   7.332   1.586  0.4165  1.0676 -2.0187
   22MOL   H10811490   1.696   7.496   1.548 -0.4768  0.5511 -0.8294
   22MOL   H10911491   1.533   7.429   1.499  0.8701 -0.0716 -0.0619
   22MOL   C11011492   2.247   7.379   2.004  0.3535  0.0570 -0.1085
   22MOL   C11111493   2.128   7.283   1.954 -0.1806 -0.2963  0.5011
   22MOL   C11211494   2.062   7.333   1.827  0.4888 -0.0062 -0.2734
   22MOL   C11311495   2.021   7.469   1.807  0.9196 -0.5469  0.4446
   22MOL   C11411496   1.894   7.509   1.889 -0.2494  0.8801 -0.1063
   22MOL   O11511497   1.777   7.525   1.806 -0.3157  0.8498 -0.5602
   22MOL   C11611498   1.680   7.425   1.813  0.0414  0.4069 -0.0487
   22MOL   O11711499   1.674   7.341   1.900  0.0674 -0.4251 -0.1596
   22MOL   C11811500   1.565   7.441   1.701 -0.6050  0.4323  0.7326
   22MOL   C11911501   1.452   7.346   1.739  0.5217 -0.8297 -0.0090
   22MOL   C12011502   1.512   7.592   1.707 -0.8573  0.3925  0.4152
   22MOL   H12111503   2.279   7.328   2.095 -0.1671  0.0522  0.0743
   22MOL   H12211504   2.321   7.385   1.924  0.7859  0.4715  0.3263
   22MOL   H12311505   2.214   7.477   2.037 -1.1887 -0.5861  0.3208
   22MOL   H12411506   2.157   7.182   1.926 -0.8840 -0.4243  0.2501
   22MOL   H12511507   2.057   7.255   2.031 -0.3488 -1.2474  0.0064
   22MOL   H12611508   2.125   7.316   1.739  0.7121  0.1067 -0.1336
   22MOL   H12711509   1.978   7.266   1.808  0.7731 -1.2687  2.6137
   22MOL   H12811510   2.011   7.482   1.699  0.4777  1.4695  0.7084
   22MOL   H12911511   2.092   7.547   1.837 -0.0271  0.3657  0.3533
   22MOL   H13011512   1.878   7.436   1.968 -2.2908  2.0147  0.5796
   22MOL   H13111513   1.911   7.607   1.934  1.2015  0.6980 -0.2557
   22MOL   H13211514   1.406   7.371   1.835 -0.5979  0.1320 -0.7777
   22MOL   H13311515   1.369   7.355   1.670  2.3756 -0.3886 -2.2282
   22MOL   H13411516   1.473   7.239   1.738 -0.4754 -1.1166  2.9528
   22MOL   H13511517   1.593   7.663   1.692 -1.3946  0.7674 -0.7295
   22MOL   H13611518   1.468   7.603   1.609  0.0385  0.2844 -0.0071
   22MOL   C13711519   1.263   7.327   1.178 -0.2329 -0.4797 -0.5399
   22MOL   C13811520   1.170   7.439   1.234 -0.4220 -0.0929 -0.1780
   22MOL   C13911521   1.178   7.434   1.392 -0.7676 -0.6044  0.1432
   22MOL   C14011522   1.128   7.553   1.470 -0.3661 -0.2225  0.1509
   22MOL   C14111523   1.133   7.526   1.625  0.2291 -0.1224  0.1606
   22MOL   O14211524   1.234   7.609   1.679 -0.0457  0.4659  0.0604
   22MOL   C14311525   1.279   7.589   1.805 -0.2477  0.5569 -0.7291
   22MOL   O14411526   1.223   7.538   1.898 -0.6180 -0.1590  0.1573
   22MOL   C14511527   1.421   7.649   1.815 -0.5772 -0.2419  0.0635
   22MOL   C14611528   1.475   7.614   1.954 -0.2263  0.4941 -0.4415
   22MOL   C14711529   1.435   7.804   1.819  0.0811 -0.7922  0.6968
   22MOL   H14811530   1.207   7.236   1.203  1.6380 -1.9122 -1.4833
   22MOL   H14911531   1.360   7.333   1.228 -0.4329  0.3826 -0.2498
   22MOL   H15011532   1.272   7.343   1.071 -0.6527  0.9872 -0.3595
   22MOL   H15111533   1.071   7.426   1.190  0.1634  1.9894 -2.2176
   22MOL   H15211534   1.207   7.538   1.208  0.2507 -0.3015 -0.0096
   22MOL   H15311535   1.138   7.341   1.432  1.4670 -0.9322  1.7162
   22MOL   H15411536   1.283   7.416   1.412 -1.1634 -0.6143  2.2743
   22MOL   H15511537   1.190   7.639   1.444  1.0556 -0.9891  0.8904
   22MOL   H15611538   1.025   7.568   1.438 -0.1515 -0.3215 -0.5862
   22MOL   H15711539   1.146   7.418   1.629  1.5103  0.0729  2.9720
   22MOL   H15811540   1.039   7.555   1.673 -0.1462  0.8221 -1.1093
   22MOL   H15911541   1.440   7.514   1.981  0.7640  0.0236 -0.8715
   22MOL   H16011542   1.436   7.676   2.034  1.7298  0.6026  0.4575
   22MOL   H16111543   1.582   7.605   1.974 -0.0590  3.1084 -0.0006
   22MOL   H16211544   1.399   0.023   1.916 -0.6551  1.6040 -0.3562
   22MOL   H16311545   1.543   7.812   1.824  0.1351 -1.0161  0.0154
   22MOL   C16411546   1.085   7.648   2.344  0.1709  0.2520 -0.6469
   22MOL   C16511547   1.086   7.789   2.294  0.4437 -0.5235  0.7490
   22MOL   C16611548   1.090   7.781   2.141  0.3011 -0.5353  0.4156
   22MOL   C16711549   1.052   0.099   2.072 -0.2570  0.7214 -0.9154
   22MOL   C16811550   1.049   0.095   1.918 -0.6008 -0.1029  0.9553
   22MOL   O16911551   1.185   0.088   1.875  0.2650  0.2876  0.0780
   22MOL   C17011552   1.216   0.097   1.741 -0.7511 -0.2612 -0.1889
   22MOL   O17111553   1.131   0.106   1.653  0.3399  0.0433 -0.3043
   22MOL   C17211554   1.364   0.093   1.716 -0.3374  0.9531  0.4077
   22MOL   C17311555   1.402   0.064   1.572  0.7960 -0.1998 -0.5092
   22MOL   C17411556   1.435   0.230   1.755  0.0579  0.4419 -0.9828
   22MOL   H17511557   1.172   7.585   2.326  0.5507 -0.4407  3.0652
   22MOL   H17611558   1.000   7.582   2.323  0.3865  0.7583 -3.2497
   22MOL   H17711559   1.086   7.655   2.453 -1.2360  2.5827 -0.7549
   22MOL   H17811560   1.173   0.034   2.320  1.0939 -0.5630 -1.2267
   22MOL   H17911561   0.991   0.022   2.319 -0.3816 -0.2145 -2.5951
   22MOL   H18011562   1.188   7.747   2.108  0.4760 -1.6695  2.0720
   22MOL   H18111563   1.012   7.714   2.105  0.1509  0.1593 -0.5949
   22MOL   H18211564   1.123   0.178   2.095  0.4285 -0.9955  3.3759
   22MOL   H18311565   0.956   0.139   2.104 -1.0702 -2.3505  0.6658
   22MOL   H18411566   1.006   0.187   1.878 -0.1640  0.3492  1.5169
   22MOL   H18511567   1.001   0.006   1.878  2.2441  0.0457 -3.1248
   22MOL   H18611568   1.357   0.136   1.504 -1.6113 -1.8555 -0.7419
   22MOL   H18711569   1.359   7.782   1.542 -0.2338  0.3762 -0.9157
   22MOL   H18811570   1.508   0.057   1.547  0.9813 -0.2058  0.2578
   22MOL   H18911571   1.453   0.232   1.862 -1.3531 -1.0005 -0.7056
   22MOL   H19011572   1.536   0.216   1.718  1.4001  1.3783  2.1617
   22MOL   C19111573   0.770   0.587   1.424 -0.0954  0.6149  0.3133
   22MOL   C19211574   0.837   0.652   1.550 -0.0843 -0.0696  0.4167
   22MOL   C19311575   0.951   0.580   1.622 -0.4432  0.0646  0.6334
   22MOL   C19411576   1.006   0.648   1.750  0.5493 -0.4911 -0.3282
   22MOL   C19511577   1.093   0.561   1.844 -0.0004  0.6485  0.5489
   22MOL   O19611578   1.210   0.523   1.769  0.4819 -0.2849  1.0284
   22MOL   C19711579   1.274   0.417   1.813  0.0586 -0.0023  0.5694
   22MOL   O19811580   1.252   0.359   1.920 -0.0669 -0.0383 -0.2053
   22MOL   C19911581   1.387   0.375   1.714  0.1915 -0.3221  0.5665
   22MOL   C20011582   1.338   0.373   1.567 -0.4669 -0.6904 -0.1452
   22MOL   C20111583   1.503   0.486   1.709  0.1369  0.7389 -0.0995
   22MOL   H20211584   0.739   0.664   1.353  0.7362 -1.9673 -3.0179
   22MOL   H20311585   0.838   0.522   1.369 -0.9163 -1.5063  1.7240
   22MOL   H20411586   0.693   0.519   1.461 -1.2798  2.6607  1.6893
   22MOL   H20511587   0.764   0.674   1.628  0.5626 -1.9715  1.5805
   22MOL   H20611588   0.885   0.741   1.508 -0.3050 -0.0734  0.1551
   22MOL   H20711589   1.024   0.575   1.542  0.5329  0.3618  1.4980
   22MOL   H20811590   0.912   0.481   1.646  0.2820 -0.2922  0.3533
   22MOL   H20911591   1.076   0.725   1.718  0.7827  0.1039  1.5681
   22MOL   H21011592   0.925   0.691   1.810  0.0286  0.3374 -1.5990
   22MOL   H21111593   1.121   0.611   1.937  1.5284  0.0096  0.4417
   22MOL   H21211594   1.028   0.476   1.865  0.0432  0.3642 -0.4306
   22MOL   H21311595   1.293   0.469   1.542 -2.1452 -1.1838  0.8459
   22MOL   H21411596   1.251   0.311   1.545 -1.4199  1.1964 -1.8226
   22MOL   H21511597   1.418   0.352   1.497 -0.9500 -0.3304 -0.8071
   22MOL   H21611598   1.440   0.574   1.709 -1.7853 -0.6087  0.1090
   22MOL   H21711599   1.562   0.474   1.617  1.1159 -1.8143  0.7877
   22MOL   C21811600   2.230   7.771   1.981 -0.5129  0.0280  0.0522
   22MOL   C21911601   2.164   0.088   1.946  0.1705 -0.3819 -0.0440
   22MOL   C22011602   2.012   0.071   1.926 -0.1768 -0.4735 -0.4213
   22MOL   C22111603   1.937   0.204   1.922  0.7882  0.6686  0.2730
   22MOL   C22211604   1.790   0.181   1.876  0.7596  0.2164 -0.0040
   22MOL   O22311605   1.705   0.290   1.888  0.0132 -0.0757  0.1444
   22MOL   C22411606   1.710   0.386   1.796  0.2327  0.0176 -0.1249
   22MOL   O22511607   1.779   0.374   1.691  0.0264  0.3532 -0.0480
   22MOL   C22611608   1.612   0.505   1.820 -0.6349 -0.5308 -0.5191
   22MOL   C22711609   1.545   0.501   1.951 -0.2411 -0.2522  0.2413
   22MOL   C22811610   1.679   0.644   1.786  0.1593 -0.0383  0.5592
   22MOL   H22911611   2.315   7.792   2.045 -0.6427  1.1272 -0.1310
   22MOL   H23011612   2.163   7.698   2.027  0.0516 -2.5099 -2.9647
   22MOL   H23111613   2.265   7.713   1.896  1.4593  0.4807  0.5245
   22MOL   H23211614   2.205   0.135   1.856  0.3391  0.9013  0.6925
   22MOL   H23311615   2.189   0.160   2.024 -1.0968  0.3557 -0.2916
   22MOL   H23411616   1.983   7.810   2.001 -1.9121 -0.8875 -1.4820
   22MOL   H23511617   2.011   0.010   1.836  1.1374 -1.0441 -0.0692
   22MOL   H23611618   1.944   0.237   2.025 -0.3991 -2.3391  1.3720
   22MOL   H23711619   1.975   0.284   1.858  3.1373  0.7920  1.7693
   22MOL   H23811620   1.740   0.111   1.944  2.6956  0.0614  1.3238
   22MOL   H23911621   1.787   0.143   1.774 -1.6574  2.8953 -0.9962
   22MOL   H24011622   1.472   0.582   1.964  0.7825  0.2897  3.1285
   22MOL   H24111623   1.620   0.510   2.030 -0.2477 -2.1601  0.4837
   22MOL   H24211624   1.497   0.404   1.965 -0.5483 -0.3841 -1.6090
   22MOL   H24311625   1.599   0.717   1.772 -0.8075 -1.0260  0.8463
   22MOL   H24411626   1.708   0.647   1.681 -1.9502  1.1370 -0.0209
   22MOL   C24511627   1.229   1.117   1.755  0.1597  0.5635  0.1212
   22MOL   C24611628   1.274   1.113   1.903  0.1426  0.0590  0.3156
   22MOL   C24711629   1.366   0.987   1.932 -0.1497 -0.2646  0.0436
   22MOL   C24811630   1.456   1.009   2.052 -0.1036  0.1586  0.1190
   22MOL   C24911631   1.552   0.888   2.090  0.5890 -0.0859 -0.0713
   22MOL   O25011632   1.634   0.855   1.984  0.0352 -0.5849 -0.3263
   22MOL   C25111633   1.733   0.765   2.001  0.0109  0.4477  0.0229
   22MOL   O25211634   1.772   0.722   2.106  0.0308  0.5460 -0.4321
   22MOL   C25311635   1.792   0.720   1.868 -0.4033  0.2861  0.5405
   22MOL   C25411636   1.824   0.840   1.787 -0.7907 -0.3324 -0.0990
   22MOL   C25511637   1.925   0.635   1.873 -0.0016  0.3858  0.2902
   22MOL   H25611638   1.192   1.217   1.731  0.7475  0.9531  0.8370
   22MOL   H25711639   1.302   1.101   1.675 -1.6325  1.2706 -1.7085
   22MOL   H25811640   1.147   1.045   1.751  0.7044 -0.2666  2.8146
   22MOL   H25911641   1.331   1.201   1.932 -1.4756  0.8530  1.1902
   22MOL   H26011642   1.195   1.107   1.978  0.9486 -1.3429  1.0683
   22MOL   H26111643   1.432   0.977   1.846 -0.1345 -0.1553  0.0427
   22MOL   H26211644   1.311   0.893   1.927  2.5856 -1.8786 -0.3611
   22MOL   H26311645   1.513   1.102   2.049  0.6374 -0.1503  2.8035
   22MOL   H26411646   1.387   1.009   2.137 -1.1493 -0.5387 -0.7313
   22MOL   H26511647   1.610   0.916   2.178  0.8073  0.2441 -0.3192
   22MOL   H26611648   1.491   0.801   2.115 -1.1732  0.8549 -1.0094
   22MOL   H26711649   1.897   0.899   1.842  0.3580 -3.1153  1.3951
   22MOL   H26811650   1.853   0.816   1.685 -0.3302 -0.5076  0.0724
   22MOL   H26911651   1.736   0.899   1.760  0.6470  1.5850 -0.7640
   22MOL   H27011652   1.900   0.569   1.956  1.3139  0.0425  0.4197
   22MOL   H27111653   1.929   0.557   1.797 -0.0538  1.1086 -0.4539
   22MOL   C27211654   1.960   1.002   1.117  0.5559  0.2651 -0.0571
   22MOL   C27311655   1.924   0.915   1.244 -0.7849  0.6277  0.9842
   22MOL   C27411656   2.044   0.845   1.320  0.4121  0.1504 -0.4450
   22MOL   C27511657   2.009   0.811   1.462 -0.3889  0.1043  0.2279
   22MOL   C27611658   2.141   0.757   1.523  0.0696 -0.8688  0.9067
   22MOL   O27711659   2.093   0.696   1.647  0.0818 -0.4564 -0.3657
   22MOL   C27811660   2.109   0.762   1.770 -0.3422  0.0413  0.0592
   22MOL   O27911661   2.151   0.877   1.778  0.1418 -0.3281 -0.4364
   22MOL   C28011662   2.070   0.684   1.898  0.3170 -0.1404  0.3479
   22MOL   C28111663   2.068   0.776   2.021 -0.0940  0.4016 -0.2837
   22MOL   C28211664   2.169   0.557   1.907  0.8229 -0.8442 -0.1817
   22MOL   H28311665   1.986   0.931   1.038  0.5523 -0.0956  0.2643
   22MOL   H28411666   1.872   1.062   1.093  0.9528  0.6824 -0.4935
   22MOL   H28511667   2.055   1.054   1.129 -0.3531  1.5186  2.1104
   22MOL   H28611668   1.877   0.977   1.321 -0.7277 -1.7849  3.0294
   22MOL   H28711669   1.841   0.847   1.224 -0.7497  1.2004 -1.2090
   22MOL   H28811670   2.090   0.764   1.265 -0.2787 -1.6861  1.5942
   22MOL   H28911671   2.117   0.926   1.328  1.4781 -0.8838  0.4340
   22MOL   H29011672   1.981   0.900   1.518 -1.0779  0.3366 -0.4849
   22MOL   H29111673   1.927   0.740   1.453  0.2829 -0.6266 -0.1711
   22MOL   H29211674   2.199   0.847   1.544  0.9532 -0.7060 -2.0847
   22MOL   H29311675   2.194   0.685   1.462 -0.2632  0.1718 -0.6597
   22MOL   H29411676   1.999   0.860   2.026 -0.0045  0.4040  0.8989
   22MOL   H29511677   2.054   0.719   2.113  0.7968 -2.3181 -1.7544
   22MOL   H29611678   2.165   0.824   2.028  0.7133 -1.0225 -1.3755
   22MOL   H29711679   2.116   0.469   1.944  0.6911 -0.7169 -0.0642
   22MOL   H29811680   2.180   0.515   1.807 -1.5091  0.6312 -1.0962
   22MOL   C29911681   2.748   0.410   1.457  0.0546  0.3843 -0.4631
   22MOL   C30011682   2.658   0.533   1.456  0.5138  0.6528  0.1773
   22MOL   C30111683   2.641   0.597   1.592  0.1371 -0.0417  0.1729
   22MOL   C30211684   2.554   0.722   1.587  0.2915 -0.1280  0.0091
   22MOL   C30311685   2.519   0.777   1.727  0.7465  0.4280 -0.5725
   22MOL   O30411686   2.428   0.680   1.784  0.0014 -0.5000  0.0785
   22MOL   C30511687   2.399   0.695   1.917 -0.3392  0.1568 -0.8627
   22MOL   O30611688   2.436   0.788   1.991 -0.4706 -0.2094  0.2238
   22MOL   C30711689   2.316   0.571   1.973 -0.2541  0.5728 -0.0309
   22MOL   C30811690   2.310   0.579   2.129 -0.1793  0.0980 -0.0212
   22MOL   C30911691   2.379   0.428   1.924 -0.5278 -0.1867 -0.1363
   22MOL   H31011692   2.794   0.390   1.361 -0.7379  1.9074 -1.1679
   22MOL   H31111693   2.699   0.326   1.507 -0.8558  0.8911 -0.4890
   22MOL   H31211694   2.831   0.433   1.524 -1.5941  1.3544  1.3255
   22MOL   H31311695   2.563   0.509   1.407  2.5682 -1.4148 -2.9308
   22MOL   H31411696   2.704   0.608   1.391  0.3272 -0.5619 -1.4062
   22MOL   H31511697   2.741   0.616   1.633 -1.0000 -1.7914  3.9743
   22MOL   H31611698   2.592   0.526   1.658  0.0807  0.4156  0.6274
   22MOL   H31711699   2.457   0.697   1.544 -0.6118  2.3292  0.4770
   22MOL   H31811700   2.602   0.800   1.529 -0.1273 -0.5191 -0.8707
   22MOL   H31911701   2.596   0.794   1.802  0.1263  0.3726  0.0842
   22MOL   H32011702   2.471   0.874   1.717  1.2944  0.7270 -0.3724
   22MOL   H32111703   2.276   0.484   2.169  3.2930 -1.5997 -0.8956
   22MOL   H32211704   2.408   0.600   2.173 -1.4880 -0.4545  3.3612
   22MOL   H32311705   2.242   0.656   2.166 -1.2875 -0.7764 -0.2073
   22MOL   H32411706   2.382   0.417   1.816  0.3442  1.1095 -0.2591
   22MOL   H32511707   2.302   0.357   1.951 -0.6579  0.3299  0.8875
   22MOL   C32611708   2.567   0.766   2.563  0.1744 -0.1968 -0.4921
   22MOL   C32711709   2.660   0.644   2.554  0.0253  0.5318 -0.4198
   22MOL   C32811710   2.632   0.535   2.446  0.4881 -0.5815  0.6245
   22MOL   C32911711   2.485   0.469   2.436  1.0128  0.0810 -0.2940
   22MOL   C33011712   2.478   0.335   2.355  0.7069 -0.4978 -0.0801
   22MOL   O33111713   2.502   0.391   2.228 -0.1151 -0.3810  0.1896
   22MOL   C33211714   2.480   0.311   2.126 -0.5285  0.5858 -0.2183
   22MOL   O33311715   2.444   0.193   2.134  0.2125 -0.1914  0.0080
   22MOL   C33411716   2.511   0.377   1.983  0.8321  0.1405  0.4886
   22MOL   C33511717   2.555   0.259   1.894 -0.3395 -0.2043  0.1997
   22MOL   C33611718   2.626   0.481   1.998  0.0047  0.7391  0.2333
   22MOL   H33711719   2.567   0.820   2.658  0.7737  1.7402 -1.5458
   22MOL   H33811720   2.466   0.731   2.543  0.3750 -0.6553 -0.6969
   22MOL   H33911721   2.593   0.843   2.490 -0.6312  0.7973  0.2343
   22MOL   H34011722   2.664   0.585   2.646 -0.0276 -0.8392 -1.2761
   22MOL   H34111723   2.764   0.678   2.557  0.5074 -0.9344  4.7605
   22MOL   H34211724   2.691   0.445   2.465  0.4754 -0.8434 -0.5449
   22MOL   H34311725   2.646   0.585   2.350 -0.3661  0.4016  0.9992
   22MOL   H34411726   2.407   0.540   2.407  0.3008 -0.3120  0.6318
   22MOL   H34511727   2.457   0.444   2.538  0.6890 -0.7238 -0.5752
   22MOL   H34611728   2.373   0.308   2.362 -0.3256  3.3681  0.5419
   22MOL   H34711729   2.535   0.248   2.388  0.6508 -0.2484  0.6818
   22MOL   H34811730   2.482   0.182   1.871  2.2538 -3.0671  1.1807
   22MOL   H34911731   2.632   0.200   1.944 -0.4748 -0.3230  0.2681
   22MOL   H35011732   2.599   0.296   1.801 -1.4622  1.9053  0.4769
   22MOL   H35111733   2.588   0.545   2.077 -1.0855  1.6369 -0.9957
   22MOL   H35211734   2.623   0.542   1.907 -0.4847 -1.1384 -1.0396
   22MOL   C35311735   3.215   7.712   1.569 -0.1506  0.3452  0.0047
   22MOL   C35411736   3.116   7.739   1.694  0.5988  0.0790 -0.1894
   22MOL   C35511737   3.060   0.066   1.681 -0.1673 -0.0630  0.0949
   22MOL   C35611738   2.996   0.121   1.810  0.1147 -0.6123  0.4421
   22MOL   C35711739   3.041   0.265   1.850 -0.3955 -0.8004 -0.1164
   22MOL   O35811740   2.952   0.321   1.947 -0.1591  0.2860 -0.0834
   22MOL   C35911741   2.844   0.389   1.909 -0.5716  0.7755  0.2411
   22MOL   O36011742   2.802   0.405   1.794  0.2718  1.0831  0.1333
   22MOL   C36111743   2.782   0.449   2.031 -0.1396 -0.3474  0.1168
   22MOL   C36211744   2.793   0.355   2.153 -0.0994  0.1376 -0.1465
   22MOL   C36311745   2.846   0.595   2.062 -0.0287 -0.4722  0.1672
   22MOL   H36411746   3.284   7.796   1.557  2.2832 -1.6223 -0.1509
   22MOL   H36511747   3.168   7.692   1.473  0.5193  1.1757 -0.5054
   22MOL   H36611748   3.288   7.635   1.596 -1.7155 -1.1298  0.0552
   22MOL   H36711749   3.037   7.664   1.689  0.0221  0.5072  2.0009
   22MOL   H36811750   3.169   7.726   1.788 -0.2318 -0.0165  0.2678
   22MOL   H36911751   3.001   0.071   1.590  1.2039  0.7469 -0.7740
   22MOL   H37011752   3.143   0.136   1.673 -1.2327  1.2385  0.1376
   22MOL   H37111753   3.010   0.052   1.892 -1.1157 -0.9793  0.3530
   22MOL   H37211754   2.888   0.117   1.793  0.0025  3.1618 -0.2777
   22MOL   H37311755   3.136   0.256   1.903 -0.8904  0.0279  0.9134
   22MOL   H37411756   3.046   0.323   1.757 -1.1161  0.9850  0.9310
   22MOL   H37511757   2.772   0.399   2.251  1.5755  0.3600  0.1399
   22MOL   H37611758   2.745   0.258   2.142 -0.8101  0.3585  0.8937
   22MOL   H37711759   2.889   0.313   2.184  0.2787 -0.2201 -1.7794
   22MOL   H37811760   2.798   0.665   1.994  0.7963  2.3184  2.3802
   22MOL   H37911761   2.793   0.620   2.154  0.9813 -2.2538  1.2593
   22MOL   C38011762   2.981   0.598   2.778  0.1515  0.0227 -0.4232
   22MOL   C38111763   2.955   0.470   2.696 -0.7177 -0.7930 -0.2071
   22MOL   C38211764   3.043   0.477   2.574 -0.3187  0.0620  0.6618
   22MOL   C38311765   3.034   0.356   2.476  0.4594  0.1139  0.3296
   22MOL   C38411766   3.114   0.388   2.346  0.8977 -0.2198 -0.4616
   22MOL   O38511767   3.059   0.490   2.271 -0.0885  0.7337 -0.3413
   22MOL   C38611768   3.090   0.518   2.143 -0.0392 -0.4623  0.3994
   22MOL   O38711769   3.186   0.467   2.082  0.5819  0.8237  0.4257
   22MOL   C38811770   3.001   0.626   2.074 -0.4803  0.5873  0.2661
   22MOL   C38911771   3.049   0.644   1.928 -0.0363  0.3815  0.5109
   22MOL   C39011772   3.019   0.757   2.158  0.5794 -0.5370 -0.7498
   22MOL   H39111773   2.979   0.685   2.713  0.6803 -0.1839 -0.7188
   22MOL   H39211774   2.897   0.627   2.841  0.5157 -1.0548  0.5847
   22MOL   H39311775   3.074   0.589   2.834 -1.5797 -0.6495  2.4532
   22MOL   H39411776   2.855   0.448   2.659 -0.6236  0.7946 -1.4667
   22MOL   H39511777   2.976   0.383   2.759  1.1976  0.8891  1.5521
   22MOL   H39611778   3.007   0.565   2.521 -1.5492 -0.6146  0.3386
   22MOL   H39711779   3.148   0.502   2.585 -0.9483  2.5314  1.3213
   22MOL   H39811780   3.069   0.263   2.521 -1.2643 -0.0228  1.4118
   22MOL   H39911781   2.929   0.337   2.453  0.4865 -1.5193  1.4833
   22MOL   H40011782   3.099   0.301   2.282 -1.4109 -0.3322  0.1904
   22MOL   H40111783   3.217   0.414   2.368  0.7876  0.6616 -0.9665
   22MOL   H40211784   3.045   0.554   1.867 -0.5452 -0.2711  1.5004
   22MOL   H40311785   3.156   0.664   1.933 -0.1928  1.1754  0.7492
   22MOL   H40411786   3.005   0.732   1.882  2.6528  0.3823 -2.2885
   22MOL   H40511787   3.121   0.763   2.196 -0.0792  1.1703  0.8442
   22MOL   H40611788   2.960   0.731   2.246 -0.5082  3.1311 -0.3265
   22MOL   C40711789   3.005   0.860   1.372 -0.0941  0.2423 -0.0070
   22MOL   C40811790   2.966   0.776   1.497 -0.4679  0.3608  0.2705
   22MOL   C40911791   2.939   0.862   1.615 -0.4411 -0.7782 -0.0147
   22MOL   C41011792   3.063   0.927   1.668 -0.2665 -0.3757  0.8545
   22MOL   C41111793   3.038   1.033   1.777  0.1693 -0.5565 -0.5662
   22MOL   O41211794   2.972   0.984   1.893  0.3502  0.4003  0.2403
   22MOL   C41311795   3.053   0.956   1.995  0.3232  0.2106  0.3537
   22MOL   O41411796   3.178   0.966   1.995  0.1858  0.0272 -0.2348
   22MOL   C41511797   2.976   0.903   2.119  0.2629  0.4915 -0.1974
   22MOL   C41611798   2.824   0.914   2.107  0.1369  0.2312  0.7638
   22MOL   C41711799   3.022   0.991   2.242 -0.1029  0.1783  0.4431
   22MOL   H41811800   2.944   0.951   1.367 -1.5149 -0.6455  0.9348
   22MOL   H41911801   3.101   0.911   1.372  0.4637 -0.7598 -1.7756
   22MOL   H42011802   2.986   0.803   1.281  2.1870  0.5003 -0.6631
   22MOL   H42111803   3.045   0.705   1.521 -0.5651  0.2663  0.3125
   22MOL   H42211804   2.877   0.716   1.480  0.1977  0.3522 -3.8809
   22MOL   H42311805   2.878   0.946   1.580 -0.4929 -1.2460 -1.0816
   22MOL   H42411806   2.884   0.814   1.695 -2.8084  1.3113 -0.3209
   22MOL   H42511807   3.125   0.972   1.590 -1.7685  0.1439 -0.0584
   22MOL   H42611808   3.126   0.850   1.713  1.3174  0.1730 -0.3923
   22MOL   H42711809   3.132   1.084   1.796  0.3782 -0.3945 -2.0128
   22MOL   H42811810   2.973   1.115   1.745 -1.0612 -0.1097  2.8175
   22MOL   H42911811   2.777   0.866   2.021 -0.2951 -1.0989  1.7209
   22MOL   H43011812   2.791   1.016   2.090 -0.0690 -0.1036 -0.9386
   22MOL   H43111813   2.776   0.868   2.193  0.3008  0.6532  1.0773
   22MOL   H43211814   3.131   0.992   2.239 -0.1024 -0.5166 -0.0465
   22MOL   H43311815   2.994   0.934   2.330  0.5913 -1.3338 -0.2886
   22MOL   C43411816   2.685   1.731   2.167 -0.1720 -0.7865  0.1158
   22MOL   C43511817   2.654   1.662   2.304 -0.1565 -0.6303 -0.6554
   22MOL   C43611818   2.654   1.513   2.275  0.4320 -0.6270  0.4682
   22MOL   C43711819   2.643   1.440   2.418 -0.5079 -0.6171  0.5015
   22MOL   C43811820   2.662   1.292   2.406  0.5566 -0.2006  0.6067
   22MOL   O43911821   2.786   1.268   2.352 -0.2796  0.2249 -0.4282
   22MOL   C44011822   2.824   1.147   2.335  0.0487 -0.4497  0.6840
   22MOL   O44111823   2.751   1.052   2.365 -0.6101 -0.3259  0.2220
   22MOL   C44211824   2.970   1.133   2.272  0.4675  0.7920  0.1379
   22MOL   C44311825   2.988   1.217   2.144  0.0588 -1.9189  0.1959
   22MOL   C44411826   3.070   1.206   2.369  0.2130 -0.0213 -0.1611
   22MOL   H44511827   2.699   1.839   2.177  1.7691 -1.0778  0.6213
   22MOL   H44611828   2.770   1.691   2.113 -0.3019 -0.0086 -0.6716
   22MOL   H44711829   2.598   1.716   2.103 -2.1799  1.0336  2.3003
   22MOL   H44811830   2.735   1.681   2.373  1.6339 -1.2748 -2.5228
   22MOL   H44911831   2.555   1.685   2.343 -0.8053 -1.3691 -1.8510
   22MOL   H45011832   2.566   1.487   2.217  0.5394 -0.8856  0.4247
   22MOL   H45111833   2.745   1.486   2.222 -1.3802 -0.1209 -3.0297
   22MOL   H45211834   2.543   1.458   2.458 -0.3708 -1.8393  1.4112
   22MOL   H45311835   2.712   1.488   2.486  0.5240  0.3993 -1.2157
   22MOL   H45411836   2.599   1.259   2.323  1.0904  0.5740 -0.1226
   22MOL   H45511837   2.650   1.239   2.500 -2.0275  0.3083  0.6009
   22MOL   H45611838   2.957   1.321   2.151  1.3365 -1.5382  0.4453
   22MOL   H45711839   3.090   1.229   2.108 -0.1157  1.3018  0.6571
   22MOL   H45811840   2.928   1.172   2.065 -0.7759 -1.7145  0.7142
   22MOL   H45911841   3.035   1.309   2.376 -1.9035 -0.8269  1.7545
   22MOL   H46011842   3.167   1.211   2.319 -1.9423  0.0720 -4.5252
   22MOL   C46111843   3.533   0.601   2.180 -0.5665 -0.0092  0.0496
   22MOL   C46211844   3.566   0.630   2.323 -0.3477 -0.7716 -0.0398
   22MOL   C46311845   3.440   0.667   2.409  0.1903 -0.0332 -0.4120
   22MOL   C46411846   3.378   0.801   2.391  0.1439  0.1137 -0.2128
   22MOL   C46511847   3.257   0.831   2.485  0.1104  0.2759  0.1821
   22MOL   O46611848   3.221   0.971   2.467  0.4019 -0.9855 -1.3448
   22MOL   C46711849   3.118   1.008   2.538  0.6721  0.3315  0.1481
   22MOL   O46811850   3.046   0.939   2.609  0.2632 -0.6838  0.5665
   22MOL   C46911851   3.091   1.165   2.523  0.3580 -0.0110 -0.1170
   22MOL   C47011852   2.967   1.197   2.613 -1.0306  0.1830  0.1692
   22MOL   C47111853   3.221   1.232   2.581  0.4697 -0.0264  0.2896
   22MOL   H47211854   3.621   0.571   2.124 -1.0236 -2.3664  0.5468
   22MOL   H47311855   3.491   0.686   2.125 -0.4195  0.3217  0.4540
   22MOL   H47411856   3.458   0.523   2.162  0.9367 -2.0613  2.4002
   22MOL   H47511857   3.641   0.710   2.316 -1.1238 -0.1908 -1.9602
   22MOL   H47611858   3.606   0.533   2.352  0.6711  0.2900  2.2945
   22MOL   H47711859   3.465   0.652   2.513 -1.1306 -0.2231 -0.1131
   22MOL   H47811860   3.361   0.593   2.392  0.0947 -0.0371  0.0619
   22MOL   H47911861   3.352   0.820   2.287  1.4495  0.2151 -0.5300
   22MOL   H48011862   3.453   0.876   2.417  2.6090 -2.3888  0.1113
   22MOL   H48111863   3.175   0.766   2.456  0.4826 -1.3728  2.6217
   22MOL   H48211864   3.281   0.809   2.589 -1.7480  0.6708  0.6999
   22MOL   H48311865   2.886   1.124   2.610 -1.3014  0.4364  1.1610
   22MOL   H48411866   2.924   1.297   2.602  0.2459  0.4749 -2.6624
   22MOL   H48511867   3.006   1.195   2.714  0.7368 -0.0319 -0.4926
   22MOL   H48611868   3.307   1.205   2.519  0.4017 -0.6214  0.4563
   22MOL   H48711869   3.253   1.174   2.668  3.2089  1.2413  0.1990
   22MOL   C48811870   2.545   1.544   2.873 -0.0843 -0.4221 -0.5373
   22MOL   C48911871   2.665   1.459   2.926 -0.7918  0.5278 -0.0206
   22MOL   C49011872   2.808   1.508   2.877 -0.0662  0.2435  0.2361
   22MOL   C49111873   2.936   1.450   2.952 -0.0397 -0.0584 -0.2742
   22MOL   C49211874   3.067   1.525   2.936 -0.7894 -0.3333  0.2427
   22MOL   O49311875   3.119   1.505   2.804  0.4835 -0.5782  0.1074
   22MOL   C49411876   3.192   1.398   2.778 -0.2332  0.0204  0.2152
   22MOL   O49511877   3.216   1.315   2.864  0.8328  0.4965  0.6957
   22MOL   C49611878   3.238   1.385   2.634  0.0184 -0.1096  0.1485
   22MOL   C49711879   3.175   1.487   2.538 -0.5886 -0.4030 -0.6238
   22MOL   C49811880   3.399   1.404   2.648 -0.1028 -0.1192 -0.5215
   22MOL   H49911881   2.562   1.549   2.766 -0.5857  1.3440 -0.5485
   22MOL   H50011882   2.443   1.514   2.894  0.2380 -1.2579 -0.1199
   22MOL   H50111883   2.558   1.642   2.919  2.4122 -0.8829 -0.1531
   22MOL   H50211884   2.649   1.354   2.900 -1.0955  0.6009 -0.1235
   22MOL   H50311885   2.666   1.463   3.035 -0.0225  1.6797 -0.0605
   22MOL   H50411886   2.827   1.492   2.771  0.9202  0.6006  0.3514
   22MOL   H50511887   2.815   1.616   2.890  2.4945  0.2421 -0.7780
   22MOL   H50611888   2.954   1.350   2.913  2.1005  0.6698 -1.2220
   22MOL   H50711889   2.919   1.423   3.056 -0.1282  0.0709 -0.2546
   22MOL   H50811890   3.036   1.629   2.942  1.4320  0.3232  0.8261
   22MOL   H50911891   3.135   1.500   3.018  0.4811  0.1794 -0.6423
   22MOL   H51011892   3.220   1.464   2.441  0.1198  1.0579 -0.6628
   22MOL   H51111893   3.199   1.593   2.548 -1.7143 -0.0618 -1.4603
   22MOL   H51211894   3.068   1.472   2.528 -0.6181 -0.9903  0.4629
   22MOL   H51311895   3.444   1.382   2.551 -0.1921  1.6727 -0.9858
   22MOL   H51411896   3.447   1.322   2.702  1.3719  0.6023 -0.7196
   22MOL   C51511897   3.978   1.897   2.360  0.1904 -0.2125 -0.4216
   22MOL   C51611898   3.831   1.866   2.349  0.0199 -0.2971  0.7069
   22MOL   C51711899   3.805   1.712   2.363 -0.0018 -0.3813 -0.5360
   22MOL   C51811900   3.683   1.651   2.291 -0.7766 -0.2759 -0.1969
   22MOL   C51911901   3.552   1.698   2.350  0.6983 -0.0784  0.2840
   22MOL   O52011902   3.545   1.622   2.474  0.5035 -0.2775  0.0049
   22MOL   C52111903   3.466   1.654   2.574 -0.6025 -0.6195 -0.5818
   22MOL   O52211904   3.402   1.758   2.586 -0.0326  0.0210 -0.3650
   22MOL   C52311905   3.474   1.539   2.682 -0.0732  0.2501 -0.2295
   22MOL   C52411906   3.620   1.480   2.689  0.2961 -0.3407  0.0948
   22MOL   C52511907   3.437   1.600   2.820  0.4376  0.4782  0.2921
   22MOL   H52611908   4.041   1.821   2.315 -0.9268 -1.5661  0.2791
   22MOL   H52711909   3.990   1.988   2.301  3.4927 -1.1104 -1.2518
   22MOL   H52811910   4.010   1.911   2.463  2.4946 -1.0829 -1.0054
   22MOL   H52911911   3.762   1.923   2.412  1.7465  1.1238  1.3404
   22MOL   H53011912   3.801   1.890   2.248  0.0434 -4.5319 -0.3851
   22MOL   H53111913   3.889   1.654   2.326 -0.6599 -1.3920 -0.4602
   22MOL   H53211914   3.808   1.697   2.471 -0.7883  0.1886 -0.4257
   22MOL   H53311915   3.707   1.545   2.281  0.6766 -0.1390  1.5851
   22MOL   H53411916   3.681   1.686   2.188 -1.3635 -2.0647 -0.8139
   22MOL   H53511917   3.545   1.807   2.362 -1.3391 -0.1644  0.1527
   22MOL   H53611918   3.464   1.676   2.290  2.0922 -2.2608 -0.9777
   22MOL   H53711919   3.657   1.443   2.593 -0.9630  0.3647 -0.6779
   22MOL   H53811920   3.625   1.400   2.763  0.2457 -0.8822 -0.4884
   22MOL   H53911921   3.689   1.548   2.740 -0.0975  0.2246 -0.1238
   22MOL   H54011922   3.340   1.643   2.842  0.1964  0.8834 -1.4577
   22MOL   H54111923   3.505   1.683   2.839 -0.7278  1.5929 -0.3219
   22MOL   H54211924   3.459   1.520   2.890  1.3464 -1.5790 -2.2336
   23MOL     C111925   6.033   0.249   4.819 -0.6082  0.1777 -0.5618
   23MOL     C211926   6.182   0.214   4.829 -0.1291  0.3694 -0.7388
   23MOL     C311927   6.248   0.246   4.966 -0.4124  0.7669 -0.1404
   23MOL     C411928   6.391   0.192   4.957  1.2504 -0.5434 -0.8510
   23MOL     C511929   6.469   0.201   5.093 -0.3912 -0.3137  0.2079
   23MOL     O611930   6.557   0.309   5.089 -0.2741 -0.1042  0.2427
   23MOL     C711931   6.529   0.427   5.144 -0.7931  0.0548 -0.7647
   23MOL     O811932   6.428   0.451   5.215 -0.2948  0.5258  0.6429
   23MOL     C911933   6.626   0.535   5.104  0.6353  0.3480 -0.5450
   23MOL    C1011934   6.606   0.662   5.198  0.1957 -0.3722 -0.3863
   23MOL    C1111935   6.609   0.572   4.958  0.0035 -0.9802  0.3844
   23MOL    H1211936   5.978   0.199   4.899 -0.6033  1.2514  0.1194
   23MOL    H1311937   6.000   0.217   4.720 -0.6942 -0.6152 -0.2774
   23MOL    H1411938   6.024   0.358   4.812  1.9494  0.2842 -3.1613
   23MOL    H1511939   6.194   0.106   4.819 -2.8446  0.1624 -2.1879
   23MOL    H1611940   6.242   0.250   4.746  1.1028 -0.2968 -0.1505
   23MOL    H1711941   6.259   0.354   4.976  2.8932  0.7450 -2.6286
   23MOL    H1811942   6.182   0.204   5.043  0.7093 -0.0350  0.3995
   23MOL    H1911943   6.442   0.228   4.868  0.3438 -0.2898 -1.2678
   23MOL    H2011944   6.378   0.085   4.939  0.5298 -0.7959  1.0120
   23MOL    H2111945   6.399   0.200   5.176 -1.8283  0.4592 -0.9664
   23MOL    H2211946   6.525   0.110   5.114 -1.0569 -0.3592  1.8892
   23MOL    H2311947   6.597   0.633   5.303 -0.5807  0.8639 -0.1008
   23MOL    H2411948   6.519   0.723   5.177 -0.0037  0.0533  1.5107
   23MOL    H2511949   6.694   0.726   5.192  0.1537 -0.3142 -0.3869
   23MOL    H2611950   6.535   0.652   4.951 -0.3180 -1.3315 -0.2672
   23MOL    H2711951   6.564   0.489   4.904 -1.2960 -0.4022  0.5710
   23MOL    H2811952   6.725   0.494   5.125 -0.3649 -3.5476 -2.8914
   23MOL    C2911953   7.008   7.626   5.005 -0.2241 -0.0971  0.8131
   23MOL    C3011954   6.931   7.760   5.019  0.2986  0.7290  0.3696
   23MOL    C3111955   6.886   7.806   4.877  0.1959  0.3291  0.5132
   23MOL    C3211956   6.797   0.123   4.883  0.5018  0.2049  0.5993
   23MOL    C3311957   6.877   0.253   4.879 -0.1566 -0.4241  0.4308
   23MOL    O3411958   6.789   0.368   4.877  0.6044  0.3898  0.2197
   23MOL    C3511959   6.836   0.497   4.877 -0.6471 -0.2481  0.0021
   23MOL    O3611960   6.955   0.517   4.858  0.5682 -0.0655  0.6655
   23MOL    C3711961   6.734   0.609   4.882 -0.0401 -0.6902 -0.0501
   23MOL    C3811962   6.805   0.727   4.948  0.1547  0.2955 -0.0665
   23MOL    C3911963   6.692   0.667   4.739  0.6285 -0.6637 -0.0396
   23MOL    H4011964   6.947   7.543   5.040  0.2380 -1.7693 -2.1390
   23MOL    H4111965   7.029   7.605   4.900 -2.8573  1.5606 -0.0864
   23MOL    H4211966   7.105   7.622   5.056  0.7256 -1.3834 -1.0358
   23MOL    H4311967   6.998   0.023   5.059  0.2773  1.9830 -1.9422
   23MOL    H4411968   6.847   7.737   5.084  0.0070 -0.3602 -0.3675
   23MOL    H4511969   6.822   7.723   4.846 -0.0993  0.8408 -0.2306
   23MOL    H4611970   6.971   0.005   4.810 -1.1818 -0.6761 -1.4568
   23MOL    H4711971   6.736   0.122   4.792  0.5115  3.7179  0.4833
   23MOL    H4811972   6.716   0.119   4.956  1.1260 -1.1271  1.2404
   23MOL    H4911973   6.943   0.254   4.792 -1.5626 -0.0150 -0.6519
   23MOL    H5011974   6.946   0.249   4.964  1.1344 -0.5045 -0.5965
   23MOL    H5111975   6.886   0.768   4.888  0.5210 -0.4939 -0.1171
   23MOL    H5211976   6.848   0.711   5.048  0.3770  1.6332  0.0642
   23MOL    H5311977   6.738   0.813   4.941 -0.3189 -0.0111  0.6678
   23MOL    H5411978   6.783   0.707   4.695  0.2806 -2.1059 -2.1651
   23MOL    H5511979   6.628   0.754   4.753  1.3135 -0.1742  0.0368
   23MOL    C5611980   5.823   0.746   4.624  0.2251 -0.0282  0.1168
   23MOL    C5711981   5.973   0.776   4.620  0.5903  1.1045 -0.3780
   23MOL    C5811982   6.047   0.651   4.663  0.0626 -0.1126  0.6275
   23MOL    C5911983   6.203   0.676   4.684 -0.2779 -0.0715  0.4541
   23MOL    C6011984   6.286   0.549   4.714 -0.1599  0.8852  0.1173
   23MOL    O6111985   6.422   0.591   4.696  0.0750  0.4422  0.1973
   23MOL    C6211986   6.512   0.509   4.650  0.3036 -0.0634 -0.1060
   23MOL    O6311987   6.495   0.387   4.635 -0.5677  0.1148 -0.4594
   23MOL    C6411988   6.642   0.582   4.620 -0.2653  0.6390  0.3598
   23MOL    C6511989   6.755   0.480   4.564  0.3560 -0.4016 -0.2134
   23MOL    C6611990   6.617   0.681   4.502  0.3953  0.9621 -0.0722
   23MOL    H6711991   5.799   0.766   4.728  0.2526 -2.5934  0.6633
   23MOL    H6811992   5.785   0.645   4.608 -0.5456 -0.0052  1.6724
   23MOL    H6911993   5.759   0.816   4.570  1.8398  1.1651 -0.2708
   23MOL    H7011994   6.015   0.810   4.525  1.6395 -1.0873 -0.7092
   23MOL    H7111995   5.982   0.858   4.692 -0.6885 -0.4000  1.5606
   23MOL    H7211996   6.010   0.623   4.762  1.2088 -3.8108  0.0835
   23MOL    H7311997   6.026   0.569   4.594 -0.6455  1.1178 -0.6597
   23MOL    H7411998   6.228   0.756   4.754  1.1576  0.5108 -0.7010
   23MOL    H7511999   6.235   0.707   4.584 -1.4836 -2.3369 -0.6744
   23MOL    H7612000   6.276   0.523   4.819  0.0666 -0.9479 -0.3042
   23MOL    H7712001   6.256   0.470   4.646  1.5341 -0.0867  0.4497
   23MOL    H7812002   6.845   0.535   4.537 -0.5289 -0.0645 -2.6491
   23MOL    H7912003   6.712   0.426   4.480 -2.2791 -0.1775  0.9530
   23MOL    H8012004   6.789   0.397   4.625 -0.5678  1.2422  2.6685
   23MOL    H8112005   6.716   0.721   4.482  0.8626  0.2424  0.7693
   23MOL    H8212006   6.568   0.761   4.557  1.8230  0.2748  2.2606
   23MOL    C8312007   6.981   0.933   3.751  0.5093  0.1282  0.2937
   23MOL    C8412008   6.885   0.957   3.870 -0.5827  0.5943 -0.2902
   23MOL    C8512009   6.907   0.873   3.998  0.1261 -0.3071  0.1340
   23MOL    C8612010   6.865   0.727   4.007 -0.1744 -0.2335  0.0126
   23MOL    C8712011   6.865   0.659   4.141 -0.2918 -0.9914  0.7155
   23MOL    O8812012   6.755   0.697   4.226  0.2904 -0.3401 -0.4158
   23MOL    C8912013   6.660   0.610   4.255 -0.0433  0.0553  0.1360
   23MOL    O9012014   6.657   0.495   4.209  0.0979  0.0141 -0.3540
   23MOL    C9112015   6.557   0.662   4.357  0.0715  0.1512 -0.0385
   23MOL    C9212016   6.435   0.566   4.359 -1.0835 -0.8606 -0.7105
   23MOL    C9312017   6.507   0.812   4.312  0.3729 -0.0808 -0.6292
   23MOL    H9412018   7.079   0.971   3.778  0.3395  1.7336 -1.1935
   23MOL    H9512019   6.971   0.832   3.712 -1.5771  0.4420 -0.0575
   23MOL    H9612020   6.936   0.995   3.672 -2.1394 -2.6176 -0.4514
   23MOL    H9712021   6.782   0.944   3.836 -0.6912 -3.9611  1.4491
   23MOL    H9812022   6.892   1.061   3.903  4.1909 -0.1744  1.4056
   23MOL    H9912023   6.863   0.926   4.082 -1.4917  1.2119 -1.6093
   23MOL   H10012024   7.014   0.881   4.014  0.3711 -1.8727 -0.5955
   23MOL   H10112025   6.927   0.664   3.942 -1.2456 -0.9999 -0.2793
   23MOL   H10212026   6.762   0.706   3.978  0.0655 -2.5874  0.7337
   23MOL   H10312027   6.957   0.666   4.198  0.6590  0.6413 -0.9701
   23MOL   H10412028   6.867   0.552   4.118  2.7224 -0.2729 -2.9329
   23MOL   H10512029   6.402   0.543   4.258 -2.4446  0.2669 -0.5386
   23MOL   H10612030   6.351   0.591   4.423  0.3712  0.1589  0.8559
   23MOL   H10712031   6.470   0.468   4.392  2.9714  0.7426  0.0367
   23MOL   H10812032   6.477   0.858   4.406  0.8348 -3.2242  1.1599
   23MOL   H10912033   6.590   0.877   4.284  0.1222  1.3809  1.8840
   23MOL   C11012034   5.636   0.463   4.286 -0.5416  0.3078  0.4068
   23MOL   C11112035   5.793   0.472   4.269 -0.1333 -0.0020 -0.0259
   23MOL   C11212036   5.850   0.614   4.237 -0.0345 -0.1135  0.4518
   23MOL   C11312037   5.995   0.632   4.230  0.9248  0.6152 -0.4986
   23MOL   C11412038   6.033   0.768   4.173 -0.0801 -0.2631 -0.3844
   23MOL   O11512039   6.163   0.794   4.139 -0.3117 -0.5180 -0.2095
   23MOL   C11612040   6.253   0.803   4.238 -0.1905  0.7321 -0.4812
   23MOL   O11712041   6.225   0.800   4.361 -0.1792  0.1209  0.0152
   23MOL   C11812042   6.400   0.840   4.196 -0.3073  0.8833  0.6767
   23MOL   C11912043   6.434   0.768   4.069  0.3883  0.1575 -0.3529
   23MOL   C12012044   6.372   0.997   4.167  0.3592  0.1428  0.5559
   23MOL   H12112045   5.592   0.477   4.187 -2.9178  1.9828  1.6396
   23MOL   H12212046   5.608   0.364   4.322  2.8960 -0.7278  0.3661
   23MOL   H12312047   5.589   0.537   4.351 -1.7301 -0.7015  0.7122
   23MOL   H12412048   5.832   0.448   4.368  1.6278  1.0487 -0.4445
   23MOL   H12512049   5.834   0.395   4.204 -1.6839  0.0858 -1.1270
   23MOL   H12612050   5.801   0.654   4.149  0.5141 -1.6493 -0.5712
   23MOL   H12712051   5.806   0.678   4.314  0.4706  0.8454 -0.0670
   23MOL   H12812052   6.032   0.560   4.157  1.4402 -0.2011  0.5591
   23MOL   H12912053   6.043   0.603   4.323 -1.9883 -1.3324  0.4485
   23MOL   H13012054   5.971   0.794   4.087  0.2895 -0.2075 -0.6345
   23MOL   H13112055   5.994   0.845   4.239 -1.1183  2.4075 -3.9466
   23MOL   H13212056   6.540   0.775   4.044  0.3818  1.3139 -0.0724
   23MOL   H13312057   6.414   0.661   4.079 -0.1504  0.3839  1.1412
   23MOL   H13412058   6.383   0.798   3.978 -1.4844  0.5193  0.8080
   23MOL   H13512059   6.294   1.003   4.091  1.5881  0.7420 -0.6979
   23MOL   H13612060   6.324   1.038   4.256 -1.6333 -2.1626  0.6072
   23MOL   C13712061   6.390   1.040   4.862 -0.1251  0.4101  0.1234
   23MOL   C13812062   6.502   1.139   4.874 -0.0633  1.0580 -0.0026
   23MOL   C13912063   6.593   1.132   4.749  0.2774  0.7830  0.3634
   23MOL   C14012064   6.515   1.176   4.619  0.0385  0.0330  0.6904
   23MOL   C14112065   6.605   1.160   4.495  0.1411  0.1995 -0.0086
   23MOL   O14212066   6.520   1.152   4.383  0.0662  0.0909  0.4952
   23MOL   C14312067   6.582   1.119   4.262  0.3736 -0.4777  0.1376
   23MOL   O14412068   6.706   1.102   4.258 -0.9859 -0.1962 -0.3357
   23MOL   C14512069   6.481   1.105   4.134 -0.2865  0.9467 -1.5337
   23MOL   C14612070   6.568   1.062   4.018 -0.2199  0.2822 -0.2846
   23MOL   C14712071   6.409   1.237   4.106 -0.1990 -0.4142 -0.3237
   23MOL   H14812072   6.351   1.020   4.962  0.5735  0.4847  0.4168
   23MOL   H14912073   6.426   0.951   4.812 -0.6623  0.2508  0.0214
   23MOL   H15012074   6.314   1.078   4.795  2.5601  0.7400 -2.8829
   23MOL   H15112075   6.555   1.110   4.965  1.1664  1.7987 -0.4681
   23MOL   H15212076   6.459   1.236   4.900  0.4905  0.5999  2.8435
   23MOL   H15312077   6.674   1.205   4.760 -1.9325  2.8043  4.2154
   23MOL   H15412078   6.648   1.038   4.744 -2.7613 -0.9877 -1.1931
   23MOL   H15512079   6.421   1.124   4.603  0.1493  0.1987 -0.5066
   23MOL   H15612080   6.472   1.276   4.626 -0.1878  0.0597 -0.8765
   23MOL   H15712081   6.666   1.070   4.505  1.4844  1.0382 -0.3930
   23MOL   H15812082   6.681   1.238   4.503  0.7880 -0.3163 -0.8998
   23MOL   H15912083   6.606   0.963   4.040  0.5601  0.7369  0.4381
   23MOL   H16012084   6.649   1.129   3.990 -0.2561  1.0823  1.4687
   23MOL   H16112085   6.511   1.051   3.926 -1.6153 -2.0538  0.8094
   23MOL   H16212086   6.314   1.219   4.055 -1.4799  3.0763  0.7087
   23MOL   H16312087   6.376   1.263   4.206  1.6479 -0.2366  0.2637
   23MOL   C16412088   7.068   1.502   3.618  0.6511  0.0509  0.1822
   23MOL   C16512089   7.040   1.472   3.761  0.4909 -0.2635 -0.4102
   23MOL   C16612090   6.910   1.379   3.762  0.4568 -0.1654  0.0515
   23MOL   C16712091   6.778   1.423   3.686  0.1320 -0.4129 -0.2402
   23MOL   C16812092   6.660   1.342   3.723 -0.1099  0.1559  0.2745
   23MOL   O16912093   6.623   1.375   3.852  0.2246  0.6864 -0.3911
   23MOL   C17012094   6.499   1.338   3.900 -0.1280  0.1167 -0.0147
   23MOL   O17112095   6.420   1.278   3.831 -0.0451  0.3588 -0.6078
   23MOL   C17212096   6.475   1.365   4.044  0.7679 -0.5838  0.2597
   23MOL   C17312097   6.605   1.399   4.126 -0.1310 -0.1189 -0.4144
   23MOL   C17412098   6.375   1.486   4.052  0.2149  0.3688 -0.9465
   23MOL   H17512099   6.992   1.568   3.576 -0.8212 -0.3654  2.1437
   23MOL   H17612100   7.069   1.411   3.558 -1.6738 -0.4985  0.9498
   23MOL   H17712101   7.164   1.552   3.606  0.1920  1.4240  2.0152
   23MOL   H17812102   7.025   1.566   3.814 -0.2682 -0.9233  0.5513
   23MOL   H17912103   7.120   1.412   3.805  0.9256 -0.4881 -1.4782
   23MOL   H18012104   6.935   1.276   3.737 -0.1789 -0.2269 -0.3591
   23MOL   H18112105   6.882   1.370   3.866  1.7368  0.4219  0.4671
   23MOL   H18212106   6.784   1.414   3.577 -4.7283  3.4057 -0.9756
   23MOL   H18312107   6.765   1.530   3.702 -2.2844 -0.5859 -0.8392
   23MOL   H18412108   6.690   1.237   3.724  0.3671  0.2934  0.6739
   23MOL   H18512109   6.582   1.358   3.649  0.2249  0.3587 -0.0341
   23MOL   H18612110   6.657   1.491   4.099  1.0606 -0.4836  0.5860
   23MOL   H18712111   6.679   1.320   4.118 -0.7574 -0.7377 -0.1537
   23MOL   H18812112   6.586   1.422   4.231  0.9775  1.0614 -0.4654
   23MOL   H18912113   6.274   1.449   4.039 -0.5099  1.3194  1.6242
   23MOL   H19012114   6.367   1.507   4.158 -0.5035 -0.6769 -0.7899
   23MOL   C19112115   5.910   1.571   3.337  0.3588 -0.4304  0.6400
   23MOL   C19212116   5.923   1.539   3.489 -0.3291 -0.4234  0.0334
   23MOL   C19312117   6.008   1.418   3.523  0.1178  0.2923  0.1241
   23MOL   C19412118   6.068   1.424   3.665 -0.3215 -0.4498 -0.1478
   23MOL   C19512119   6.172   1.537   3.669  0.1866 -0.2492  0.2485
   23MOL   O19612120   6.227   1.557   3.800  0.2880 -0.0268  1.1369
   23MOL   C19712121   6.349   1.596   3.814  0.2390  0.4357 -0.2053
   23MOL   O19812122   6.436   1.603   3.726  0.2924 -0.2476 -0.6398
   23MOL   C19912123   6.391   1.620   3.966  0.4808 -0.7190  0.0526
   23MOL   C20012124   6.534   1.678   3.964 -0.2269 -0.7214 -0.4915
   23MOL   C20112125   6.307   1.733   4.033  0.0355 -0.1063  0.1247
   23MOL   H20212126   5.835   1.649   3.330  0.7472 -0.1695 -0.6138
   23MOL   H20312127   6.004   1.607   3.294 -0.5655  1.6778  0.3446
   23MOL   H20412128   5.880   1.482   3.282 -0.3688 -0.2937  0.8168
   23MOL   H20512129   5.827   1.531   3.540  0.9285 -0.2015  2.4959
   23MOL   H20612130   5.954   1.628   3.543 -0.2297 -0.1192 -0.5191
   23MOL   H20712131   6.090   1.415   3.452  0.2230  2.5561  0.1183
   23MOL   H20812132   5.951   1.327   3.507  0.4702  0.3532 -1.5083
   23MOL   H20912133   5.987   1.451   3.733 -0.7762 -0.0709 -0.8392
   23MOL   H21012134   6.117   1.330   3.692 -1.6303 -1.9211 -2.7295
   23MOL   H21112135   6.251   1.511   3.598 -0.7920 -4.0459  0.4059
   23MOL   H21212136   6.124   1.628   3.633 -0.6782 -0.3227  1.1981
   23MOL   H21312137   6.571   1.719   4.058  0.3570 -0.0147 -1.0190
   23MOL   H21412138   6.559   1.754   3.890  1.4537 -1.8220 -1.0759
   23MOL   H21512139   6.602   1.602   3.927 -1.0976 -0.5892 -2.4454
   23MOL   H21612140   6.365   1.768   4.119  0.3918 -0.5039  0.0446
   23MOL   H21712141   6.214   1.690   4.069 -0.2751  0.8567  0.4861
   23MOL   C21812142   5.687   1.506   4.258 -0.7048 -0.0499 -0.3125
   23MOL   C21912143   5.733   1.516   4.115 -0.2017 -0.2171  0.7597
   23MOL   C22012144   5.791   1.653   4.073 -0.3955 -0.2409  0.6667
   23MOL   C22112145   5.831   1.659   3.924 -0.4104  0.0702 -0.4332
   23MOL   C22212146   5.896   1.796   3.888 -0.0913 -0.3931  0.2207
   23MOL   O22312147   6.024   1.820   3.949  0.9605 -0.0882  0.6285
   23MOL   C22412148   6.133   1.837   3.875  0.3688 -0.0322 -1.0671
   23MOL   O22512149   6.131   1.844   3.753 -0.5914 -0.1368 -0.1323
   23MOL   C22612150   6.257   1.868   3.968 -0.1745 -0.3298 -0.0905
   23MOL   C22712151   6.373   1.933   3.881  0.2434 -0.5389  0.6953
   23MOL   C22812152   6.226   1.971   4.087  0.2001 -0.4417 -0.4155
   23MOL   H22912153   5.767   1.540   4.324 -1.7830 -1.1054  1.5895
   23MOL   H23012154   5.597   1.564   4.280 -0.5311  0.1769 -0.1880
   23MOL   H23112155   5.661   1.403   4.283  0.5009 -0.0163  1.2386
   23MOL   H23212156   5.649   1.508   4.046  1.1720 -0.1073 -0.9669
   23MOL   H23312157   5.800   1.437   4.082  0.5800  0.6165  0.2992
   23MOL   H23412158   5.876   1.685   4.133  0.6105 -1.6106 -0.0157
   23MOL   H23512159   5.719   1.730   4.102 -0.4736  0.0158 -0.1858
   23MOL   H23612160   5.905   1.580   3.910  1.5474  2.3138 -3.2293
   23MOL   H23712161   5.747   1.628   3.862  1.1034 -0.5847 -2.1868
   23MOL   H23812162   5.821   1.872   3.912 -2.0710 -2.1539 -0.1732
   23MOL   H23912163   5.906   1.792   3.780 -1.0694 -2.0784  0.1683
   23MOL   H24012164   6.402   1.872   3.796  0.0056  0.5430 -0.1619
   23MOL   H24112165   6.468   1.946   3.933  0.7897 -0.3803 -0.3450
   23MOL   H24212166   6.343   2.023   3.828 -0.5158 -1.9266 -1.2758
   23MOL   H24312167   6.313   1.969   4.153  0.8181  0.8444 -1.1667
   23MOL   H24412168   6.152   1.933   4.157  0.1190 -0.7860 -0.6851
   23MOL   C24512169   6.337   2.523   3.607 -0.5114  0.3491  0.5320
   23MOL   C24612170   6.237   2.447   3.700 -0.0728 -0.7878  0.0597
   23MOL   C24712171   6.126   2.373   3.615 -0.2508  0.3256 -0.2901
   23MOL   C24812172   6.020   2.297   3.692 -0.4121 -0.2570  0.4802
   23MOL   C24912173   6.067   2.155   3.709 -0.0081  0.1837 -0.0215
   23MOL   O25012174   6.150   2.156   3.825  0.1679  0.2224  0.3164
   23MOL   C25112175   6.086   2.143   3.949 -0.4367 -0.5291 -0.1661
   23MOL   O25212176   5.964   2.136   3.964  0.2776 -0.7216 -0.0271
   23MOL   C25312177   6.189   2.133   4.066 -0.3077  0.2441 -0.0078
   23MOL   C25412178   6.322   2.217   4.035 -0.4549 -0.4193 -0.2354
   23MOL   C25512179   6.136   2.179   4.203  0.6404 -0.4765  0.0861
   23MOL   H25612180   6.413   2.567   3.672  0.0051 -0.4342  0.4669
   23MOL   H25712181   6.390   2.453   3.542  1.1922  0.9475  1.2374
   23MOL   H25812182   6.305   2.613   3.555 -1.8403 -0.2470  0.2920
   23MOL   H25912183   6.288   2.364   3.749  0.0124 -0.0353  1.2372
   23MOL   H26012184   6.192   2.510   3.776 -0.0173  1.5574 -1.8059
   23MOL   H26112185   6.167   2.299   3.546 -2.5774 -0.4413 -0.8826
   23MOL   H26212186   6.087   2.443   3.541 -0.5190 -0.2338 -0.6784
   23MOL   H26312187   5.995   2.342   3.788 -0.9040  1.1408 -0.2841
   23MOL   H26412188   5.925   2.301   3.640 -0.4856 -0.4838  0.5946
   23MOL   H26512189   5.971   2.105   3.723  0.7164 -1.7052 -1.5725
   23MOL   H26612190   6.110   2.112   3.619 -0.4978  1.9434 -1.1158
   23MOL   H26712191   6.390   2.205   4.120 -0.0818  1.6898 -0.1959
   23MOL   H26812192   6.376   2.196   3.942  1.0927 -1.1225  0.7953
   23MOL   H26912193   6.284   2.319   4.031 -0.7346 -0.2804  3.6789
   23MOL   H27012194   6.036   2.136   4.207  1.3815 -2.3950 -1.5537
   23MOL   H27112195   6.191   2.119   4.275  1.3918  0.9582  0.7245
   23MOL   C27212196   6.888   2.107   4.580  0.7499  0.8349 -0.9365
   23MOL   C27312197   6.750   2.084   4.519  0.0069  0.2217  0.1682
   23MOL   C27412198   6.677   2.216   4.490 -0.7738  0.2744 -0.1571
   23MOL   C27512199   6.532   2.203   4.447 -0.1561  0.3300  0.5802
   23MOL   C27612200   6.470   2.333   4.404 -0.0793  0.3677 -0.1859
   23MOL   O27712201   6.332   2.307   4.379 -0.0615  0.1132  0.0132
   23MOL   C27812202   6.261   2.379   4.292  0.2056 -0.3917  0.3458
   23MOL   O27912203   6.304   2.490   4.258  0.2444  0.0179 -0.6902
   23MOL   C28012204   6.120   2.320   4.260  0.3735 -0.8789 -0.5125
   23MOL   C28112205   6.045   2.398   4.154  0.0148 -0.4954  0.1508
   23MOL   C28212206   6.045   2.302   4.401  0.2120 -0.9874 -0.5862
   23MOL   H28312207   6.947   2.180   4.525  2.9611 -0.0187  0.2346
   23MOL   H28412208   6.874   2.137   4.684  0.2759 -0.6578 -0.5603
   23MOL   H28512209   6.939   2.013   4.601 -0.1157  0.4529 -0.5322
   23MOL   H28612210   6.761   2.020   4.432  1.6819  0.5497  0.1391
   23MOL   H28712211   6.690   2.030   4.593 -1.3397 -0.8544 -1.6473
   23MOL   H28812212   6.683   2.283   4.575  2.6454  1.2061 -1.0757
   23MOL   H28912213   6.720   2.269   4.405 -1.7212 -0.9756 -1.4643
   23MOL   H29012214   6.518   2.132   4.365  0.9539  0.6123  0.1377
   23MOL   H29112215   6.477   2.159   4.530 -0.2723  0.2885  0.4819
   23MOL   H29212216   6.520   2.364   4.313  0.0636  2.1262  0.4751
   23MOL   H29312217   6.490   2.405   4.483  1.6700 -1.1880  0.8275
   23MOL   H29412218   6.106   2.399   4.064  0.9103 -1.4510  0.7322
   23MOL   H29512219   5.950   2.353   4.125 -0.3306  1.6561 -2.2482
   23MOL   H29612220   6.036   2.501   4.188  3.7815 -0.9398  2.8437
   23MOL   H29712221   5.949   2.255   4.380 -0.6193 -0.5384  2.0659
   23MOL   H29812222   6.086   2.224   4.465 -0.8073 -1.7212 -0.8182
   23MOL   C29912223   5.996   1.879   4.455 -0.3485  0.7686  0.7535
   23MOL   C30012224   5.880   1.848   4.555 -0.3775  0.8895 -0.4876
   23MOL   C30112225   5.800   1.972   4.597 -0.7589  0.5745  0.5991
   23MOL   C30212226   5.863   2.049   4.714  0.0025  0.7127  0.5648
   23MOL   C30312227   5.806   2.191   4.721  0.1513  0.1350  0.1300
   23MOL   O30412228   5.857   2.267   4.610  0.2117  0.3154 -0.6583
   23MOL   C30512229   5.955   2.348   4.629 -0.4988  0.1889 -0.6200
   23MOL   O30612230   6.000   2.377   4.741  0.3683  0.0472  0.0237
   23MOL   C30712231   5.992   2.423   4.496 -0.4478 -0.3670 -0.4304
   23MOL   C30812232   6.096   2.534   4.526  0.3659 -0.1848 -0.1568
   23MOL   C30912233   5.863   2.485   4.431  0.4629 -1.0844 -0.1518
   23MOL   H31012234   6.094   1.855   4.496  1.0029  4.3202 -0.1569
   23MOL   H31112235   6.012   1.980   4.416  1.5242  0.4236  0.5960
   23MOL   H31212236   5.991   1.808   4.373 -2.0003  0.0412  1.4680
   23MOL   H31312237   5.905   1.787   4.642 -2.2118 -0.2426 -0.7270
   23MOL   H31412238   5.802   1.791   4.505  0.1782  1.2634 -1.8070
   23MOL   H31512239   5.693   1.962   4.613 -0.8218  0.2360 -0.0046
   23MOL   H31612240   5.790   2.034   4.507  0.0309  0.6735  0.5763
   23MOL   H31712241   5.970   2.063   4.695  0.2124  0.4425  1.5148
   23MOL   H31812242   5.846   2.004   4.812  1.1703 -1.0387 -0.0089
   23MOL   H31912243   5.698   2.183   4.708  0.2992 -3.1501  0.3457
   23MOL   H32012244   5.822   2.235   4.819 -3.5404 -1.5225  1.5878
   23MOL   H32112245   6.197   2.497   4.546  0.5343  0.6839  0.6230
   23MOL   H32212246   6.104   2.595   4.437 -0.6109  2.2764  1.3999
   23MOL   H32312247   6.070   2.597   4.611 -1.7337 -0.4541 -0.5639
   23MOL   H32412248   5.808   2.396   4.399  1.2982 -1.0198 -1.8123
   23MOL   H32512249   5.903   2.526   4.338 -2.6318 -1.9050 -1.9145
   23MOL   C32612250   5.542   2.965   5.008  0.3767 -0.8594 -0.8070
   23MOL   C32712251   5.493   2.822   4.978 -0.3076 -0.1669  0.3997
   23MOL   C32812252   5.616   2.736   4.950 -0.3756 -0.8778 -0.3369
   23MOL   C32912253   5.572   2.598   4.908  0.0452 -0.5636 -0.1107
   23MOL   C33012254   5.693   2.523   4.861  0.2086  0.3966  0.3651
   23MOL   O33112255   5.746   2.575   4.738  0.9933  0.0556 -0.1440
   23MOL   C33212256   5.690   2.542   4.616  0.1105 -0.1851 -0.3144
   23MOL   O33312257   5.600   2.458   4.610 -0.1830 -0.6349  0.1074
   23MOL   C33412258   5.761   2.590   4.486 -0.0469 -1.1908 -0.1729
   23MOL   C33512259   5.822   2.727   4.514  0.1783  0.7624  0.4890
   23MOL   C33612260   5.648   2.606   4.371  0.3058  0.1487 -0.1756
   23MOL   H33712261   5.577   3.029   4.928  3.8024  0.0935  1.3449
   23MOL   H33812262   5.630   2.960   5.072 -1.2125 -1.3170  1.4298
   23MOL   H33912263   5.463   3.010   5.068  0.9952 -1.7280  0.6932
   23MOL   H34012264   5.425   2.811   4.893  0.8594  0.7800 -0.6685
   23MOL   H34112265   5.434   2.789   5.064  0.3752  1.3582  1.4764
   23MOL   H34212266   5.682   2.720   5.036  0.4528  0.1180 -0.7761
   23MOL   H34312267   5.675   2.776   4.868 -1.5982  0.8189 -0.4159
   23MOL   H34412268   5.497   2.605   4.830  0.9555  0.6156 -0.9097
   23MOL   H34512269   5.525   2.539   4.986 -0.7579 -2.7509 -2.1953
   23MOL   H34612270   5.669   2.417   4.859 -0.7301  0.6244 -0.4401
   23MOL   H34712271   5.773   2.534   4.934  0.9582 -0.8915 -0.2379
   23MOL   H34812272   5.745   2.793   4.553 -0.8503  0.5317 -1.1061
   23MOL   H34912273   5.868   2.769   4.425  1.4512 -0.7878  0.4048
   23MOL   H35012274   5.899   2.733   4.591  1.9412  2.7218 -1.3628
   23MOL   H35112275   5.605   2.507   4.352 -0.5434  0.9930 -2.9839
   23MOL   H35212276   5.711   2.626   4.284  0.4322 -0.0762 -0.1359
   23MOL   C35312277   5.445   3.007   3.768 -0.1380  0.5611 -0.4293
   23MOL   C35412278   5.494   3.078   3.890  0.0914 -0.1441 -0.3547
   23MOL   C35512279   5.578   3.003   3.990 -0.0137 -0.6700  0.5583
   23MOL   C35612280   5.613   3.079   4.118 -0.4268  0.1323  0.0366
   23MOL   C35712281   5.702   3.000   4.212  0.4179  0.5821  0.6809
   23MOL   O35812282   5.645   2.870   4.234 -0.2091 -0.1793  0.2416
   23MOL   C35912283   5.573   2.849   4.347 -0.7331  0.3081  0.4973
   23MOL   O36012284   5.550   2.937   4.428  0.0337  0.0927 -0.2267
   23MOL   C36112285   5.527   2.702   4.369  0.1100 -0.4348  0.4720
   23MOL   C36212286   5.443   2.694   4.502  0.3915 -0.3076  0.2170
   23MOL   C36312287   5.434   2.657   4.249 -0.6471 -0.6927  0.0985
   23MOL   H36412288   5.432   2.899   3.777 -1.9852  0.7008 -1.1492
   23MOL   H36512289   5.527   3.014   3.696  0.0251  0.0717 -0.2878
   23MOL   H36612290   5.361   3.060   3.723 -0.1656  0.0719 -0.9517
   23MOL   H36712291   5.548   3.169   3.864  2.0969 -1.4167 -0.7275
   23MOL   H36812292   5.406   3.104   3.949  2.0142 -0.4921  2.7920
   23MOL   H36912293   5.670   2.980   3.935 -0.0843  0.2006  0.0633
   23MOL   H37012294   5.531   2.907   4.010 -2.6524  0.0499 -1.9349
   23MOL   H37112295   5.524   3.100   4.177 -0.3033  0.9321 -0.0548
   23MOL   H37212296   5.654   3.176   4.090  0.4531  0.3092  1.8227
   23MOL   H37312297   5.805   2.991   4.178  0.4029  1.1773  0.4750
   23MOL   H37412298   5.716   3.055   4.306  0.6334  0.7737  0.5376
   23MOL   H37512299   5.365   2.770   4.501  1.5419  0.9194 -2.6725
   23MOL   H37612300   5.415   2.593   4.529  2.2324 -0.8936 -0.0218
   23MOL   H37712301   5.511   2.728   4.580 -1.9219  0.8237  1.8066
   23MOL   H37812302   5.485   2.680   4.156 -1.0846  0.2742  0.0954
   23MOL   H37912303   5.434   2.548   4.254 -2.2164 -0.7627 -1.2674
   23MOL   C38012304   5.473   2.142   4.620  0.3462 -0.1583 -0.3489
   23MOL   C38112305   5.327   2.172   4.582 -0.1450 -0.4988  0.5130
   23MOL   C38212306   5.302   2.322   4.563 -0.3895 -0.3900 -0.0912
   23MOL   C38312307   5.160   2.345   4.527 -0.5737  0.5562 -0.1893
   23MOL   C38412308   5.119   2.481   4.479  0.5970 -0.8207  0.3934
   23MOL   O38512309   5.198   2.522   4.367 -0.4983 -0.1183  0.0583
   23MOL   C38612310   5.193   2.655   4.340 -0.2806 -0.3444  0.3495
   23MOL   O38712311   5.125   2.735   4.405  0.1786  0.2079 -0.4841
   23MOL   C38812312   5.284   2.707   4.223  0.0801 -0.1318 -0.0045
   23MOL   C38912313   5.277   2.861   4.216  1.3299  0.4654 -0.0584
   23MOL   C39012314   5.240   2.642   4.084 -0.0751 -0.2296 -0.7353
   23MOL   H39112315   5.538   2.172   4.538  0.6441 -0.2674 -0.1497
   23MOL   H39212316   5.497   2.192   4.713  0.9931  0.3010 -0.7669
   23MOL   H39312317   5.476   2.035   4.641 -1.8269 -0.2300 -0.2551
   23MOL   H39412318   5.257   2.121   4.648  0.1010  0.5533  1.6086
   23MOL   H39512319   5.306   2.119   4.489 -0.8792 -1.0077  0.9536
   23MOL   H39612320   5.324   2.384   4.650  0.0812 -1.7014  0.7419
   23MOL   H39712321   5.367   2.352   4.481  3.0925 -0.9718  2.3789
   23MOL   H39812322   5.128   2.279   4.446 -0.0386 -1.8571  1.5301
   23MOL   H39912323   5.100   2.313   4.612  1.0830 -4.3630 -0.6829
   23MOL   H40012324   5.140   2.553   4.558  0.9583 -0.0175 -0.4247
   23MOL   H40112325   5.012   2.479   4.461  0.7462  0.6069 -0.7915
   23MOL   H40212326   5.312   2.910   4.307  1.5922  0.6014 -0.2324
   23MOL   H40312327   5.179   2.896   4.183  0.5382 -0.3139  1.3708
   23MOL   H40412328   5.349   2.901   4.145  1.2575 -1.5355 -1.2648
   23MOL   H40512329   5.212   2.541   4.113  1.4917 -0.0282  1.6166
   23MOL   H40612330   5.321   2.630   4.012 -0.5271 -1.4163 -1.0540
   23MOL   C40712331   4.587   2.259   4.089  0.4536 -0.0850  0.1003
   23MOL   C40812332   4.660   2.327   4.203  0.0002 -0.3801  0.6261
   23MOL   C40912333   4.666   2.476   4.170 -0.1080  0.2323 -0.1566
   23MOL   C41012334   4.754   2.546   4.273 -0.5614  0.2121  0.0319
   23MOL   C41112335   4.819   2.668   4.219 -0.9641  0.1523 -0.8359
   23MOL   O41212336   4.933   2.634   4.140  0.3169  0.2708 -0.5016
   23MOL   C41312337   4.999   2.734   4.069 -0.5378 -0.1048  0.6823
   23MOL   O41412338   4.955   2.846   4.065 -0.0017  0.1397 -0.2187
   23MOL   C41512339   5.122   2.687   3.990  0.1072 -0.1943  0.3648
   23MOL   C41612340   5.168   2.800   3.898 -0.0642  0.4839 -0.2092
   23MOL   C41712341   5.083   2.557   3.913 -0.3644 -0.1175  0.4440
   23MOL   H41812342   4.484   2.289   4.071  0.0354 -0.5937  1.6008
   23MOL   H41912343   4.648   2.251   3.999  0.1200 -1.3290 -0.0223
   23MOL   H42012344   4.585   2.153   4.115  2.7522  0.1089  1.2356
   23MOL   H42112345   4.757   2.275   4.201 -0.5919 -1.4794 -0.1991
   23MOL   H42212346   4.621   2.299   4.301  2.8658 -2.2014  1.3292
   23MOL   H42312347   4.717   2.478   4.073 -2.7080 -0.4443 -1.5985
   23MOL   H42412348   4.578   2.537   4.151 -0.2393 -0.4912 -2.0068
   23MOL   H42512349   4.823   2.474   4.315 -1.5866 -0.8037 -0.0007
   23MOL   H42612350   4.692   2.576   4.358 -0.2991 -1.0489  0.6816
   23MOL   H42712351   4.754   2.741   4.171 -1.2492  0.1941 -0.3903
   23MOL   H42812352   4.850   2.730   4.303 -2.9488 -0.5374  0.4377
   23MOL   H42912353   5.252   2.784   3.831 -1.0535  0.3209 -1.4211
   23MOL   H43012354   5.193   2.894   3.947 -0.6555  1.0345 -0.9484
   23MOL   H43112355   5.080   2.829   3.841  1.6064  3.6562 -1.2929
   23MOL   H43212356   5.042   2.491   3.990 -0.7869 -2.5679 -1.8073
   23MOL   H43312357   5.181   2.518   3.885  0.0420  0.6564  0.7625
   23MOL   C43412358   4.853   2.437   3.050  0.8402  0.1327  0.3301
   23MOL   C43512359   4.924   2.573   3.054 -0.4827  0.1039 -0.2258
   23MOL   C43612360   5.003   2.603   3.185  0.4341  0.6757  0.4458
   23MOL   C43712361   4.940   2.574   3.320  0.6088  0.2504  0.6051
   23MOL   C43812362   5.044   2.590   3.429 -0.5160  0.7949  0.0968
   23MOL   O43912363   4.979   2.576   3.553  0.0145  0.2132 -0.0757
   23MOL   C44012364   5.056   2.589   3.659  0.0777 -0.1869  0.2926
   23MOL   O44112365   5.175   2.622   3.656  0.0011 -0.2745  0.2822
   23MOL   C44212366   4.984   2.545   3.789 -0.2295  0.8620 -0.2054
   23MOL   C44312367   4.862   2.632   3.809  0.1270  0.7931  0.6686
   23MOL   C44412368   4.935   2.393   3.770  0.7162 -0.0159 -0.4069
   23MOL   H44512369   4.757   2.433   3.101  0.1964  0.6067 -0.8531
   23MOL   H44612370   4.828   2.425   2.945 -2.3513 -0.2755  1.0820
   23MOL   H44712371   4.924   2.361   3.084 -0.1096 -0.9445 -0.0938
   23MOL   H44812372   4.992   2.595   2.972 -0.2845 -0.0173 -0.0946
   23MOL   H44912373   4.854   2.654   3.035 -1.4183 -0.8867 -1.0492
   23MOL   H45012374   5.097   2.549   3.178 -1.0348 -1.6637 -2.2505
   23MOL   H45112375   5.017   2.711   3.178  0.1155  0.4900 -4.0691
   23MOL   H45212376   4.919   2.467   3.317  3.4104 -0.2958 -2.9158
   23MOL   H45312377   4.842   2.620   3.336 -0.3894 -1.5626 -0.2109
   23MOL   H45412378   5.080   2.691   3.410 -0.3654  0.5368 -1.0252
   23MOL   H45512379   5.127   2.521   3.410 -2.7525 -2.0592  0.4053
   23MOL   H45612380   4.799   2.608   3.894 -0.7001 -0.2871 -0.2270
   23MOL   H45712381   4.864   2.741   3.810 -0.3949  0.8142  0.2457
   23MOL   H45812382   4.798   2.600   3.726  1.1644  0.8149 -0.1606
   23MOL   H45912383   4.871   2.385   3.682  1.2484  1.3222 -0.9184
   23MOL   H46012384   4.876   2.379   3.861 -1.0734 -1.2830 -1.7454
   23MOL   C46112385   4.983   1.732   4.115 -0.4497  0.0301  0.6913
   23MOL   C46212386   4.945   1.860   4.187  0.3710  0.1904  0.4796
   23MOL   C46312387   5.034   1.970   4.140  0.5620 -0.5048  0.3259
   23MOL   C46412388   5.021   2.106   4.214  0.0797  0.4347 -0.6215
   23MOL   C46512389   5.101   2.218   4.142 -0.4748 -0.0213  0.4055
   23MOL   O46612390   5.042   2.242   4.013 -0.0550 -0.5007 -0.4883
   23MOL   C46712391   5.114   2.251   3.905 -0.1073  0.2877 -0.0965
   23MOL   O46812392   5.237   2.236   3.902 -0.0087 -0.4541  0.4625
   23MOL   C46912393   5.032   2.273   3.775 -0.3543  0.7043  0.3475
   23MOL   C47012394   5.138   2.284   3.662 -0.5913 -0.3244 -0.1176
   23MOL   C47112395   4.963   2.140   3.751  0.2452  0.3068 -0.4907
   23MOL   H47212396   4.995   1.743   4.007  0.4742 -3.2458  0.4144
   23MOL   H47312397   4.895   1.671   4.134 -0.6687  0.3879  0.8297
   23MOL   H47412398   5.068   1.681   4.161 -0.5831 -0.3573  0.5111
   23MOL   H47512399   4.961   1.858   4.295  1.9722 -0.2499  0.2417
   23MOL   H47612400   4.841   1.889   4.172  0.1907 -0.9124 -0.5279
   23MOL   H47712401   5.010   1.985   4.035 -0.0595 -0.1286  0.5189
   23MOL   H47812402   5.139   1.941   4.147  0.1495 -1.6612  1.9821
   23MOL   H47912403   5.046   2.089   4.319 -0.3162 -2.0260 -0.8952
   23MOL   H48012404   4.915   2.132   4.211  0.0091  0.0283 -2.1407
   23MOL   H48112405   5.092   2.309   4.202 -0.9716  1.8532 -2.4407
   23MOL   H48212406   5.209   2.200   4.135 -0.5330 -0.5728  0.8665
   23MOL   H48312407   5.196   2.193   3.646 -0.1087 -0.2647  1.2470
   23MOL   H48412408   5.218   2.357   3.675  0.4650 -1.4246 -0.3874
   23MOL   H48512409   5.092   2.310   3.566 -0.1222 -0.9336 -0.5175
   23MOL   H48612410   4.935   2.109   3.851  1.3861  1.1025  0.0873
   23MOL   H48712411   5.040   2.064   3.734 -1.0511 -1.0591 -0.3324
   23MOL   C48812412   5.018   1.998   2.917  0.5687 -0.6641  0.0860
   23MOL   C48912413   4.994   1.911   3.044  0.3117  0.2633  0.0955
   23MOL   C49012414   4.958   1.988   3.164  0.0846 -0.0479 -0.5417
   23MOL   C49112415   5.069   2.075   3.219  0.1468  0.3737 -0.2151
   23MOL   C49212416   5.023   2.189   3.313 -0.0820  0.1737 -0.0570
   23MOL   O49312417   4.981   2.130   3.433 -0.0816  0.6511 -0.4867
   23MOL   C49412418   4.873   2.184   3.511  0.3952  0.2583  0.3069
   23MOL   O49512419   4.797   2.278   3.472 -0.5950  0.2219  0.4972
   23MOL   C49612420   4.857   2.114   3.644  0.0128 -0.1937  0.6842
   23MOL   C49712421   4.725   2.162   3.716  0.2149  0.2802  0.1635
   23MOL   C49812422   4.859   1.957   3.622 -0.1541 -0.6647  0.3192
   23MOL   H49912423   4.931   2.062   2.912  2.5521  2.1432  0.3436
   23MOL   H50012424   5.103   2.066   2.925 -0.8665  1.4487 -1.8182
   23MOL   H50112425   5.019   1.949   2.819  1.4006 -0.8056  0.1594
   23MOL   H50212426   5.075   1.841   3.066  0.7242  0.4668 -0.7389
   23MOL   H50312427   4.906   1.851   3.023  1.0342 -0.0005 -2.3007
   23MOL   H50412428   4.868   2.045   3.142  0.3300  0.7051  0.3701
   23MOL   H50512429   4.933   1.916   3.242 -2.0010  1.7691  0.5049
   23MOL   H50612430   5.118   2.133   3.141  0.0790  0.3084 -0.3059
   23MOL   H50712431   5.144   2.010   3.265 -1.3036 -0.8510  0.4266
   23MOL   H50812432   5.099   2.265   3.333  0.4345 -0.2886 -0.2559
   23MOL   H50912433   4.946   2.256   3.275 -0.9593 -0.2961  0.8693
   23MOL   H51012434   4.705   2.269   3.720  0.3325  0.2857  0.6835
   23MOL   H51112435   4.707   2.117   3.814 -4.9077  0.3063 -0.5884
   23MOL   H51212436   4.629   2.149   3.666  0.2271  0.0561  0.1983
   23MOL   H51312437   4.879   1.909   3.718  0.7889 -2.5177 -0.7641
   23MOL   H51412438   4.951   1.936   3.567  0.6435  2.1468  0.5194
   23MOL   C51512439   4.295   1.977   3.998 -0.3973 -0.0399  0.2763
   23MOL   C51612440   4.345   1.864   4.085 -0.2584  0.0843 -0.0839
   23MOL   C51712441   4.498   1.861   4.111 -0.1637  0.2668 -0.0691
   23MOL   C51812442   4.585   1.882   3.988  0.9957  0.3050 -0.4508
   23MOL   C51912443   4.571   1.763   3.891  0.0761 -0.6469  0.0415
   23MOL   O52012444   4.664   1.789   3.784 -0.2417 -0.4190 -0.0280
   23MOL   C52112445   4.629   1.860   3.674  0.9350  0.4387  0.7433
   23MOL   O52212446   4.511   1.887   3.656  0.2028  0.4459 -0.0161
   23MOL   C52312447   4.735   1.883   3.569 -0.3160 -0.4847 -0.2632
   23MOL   C52412448   4.787   1.740   3.549  0.2627  0.6306  0.3061
   23MOL   C52512449   4.669   1.942   3.437  0.0170  0.1773  0.3401
   23MOL   H52612450   4.324   2.075   4.037  0.1211 -0.6818  1.5162
   23MOL   H52712451   4.327   1.965   3.894  0.1191  0.4288  0.3822
   23MOL   H52812452   4.186   1.972   3.997 -0.4334  0.7052 -0.5941
   23MOL   H52912453   4.293   1.863   4.181 -2.0200  0.1709 -1.0164
   23MOL   H53012454   4.314   1.771   4.037  0.3406 -0.1333 -0.0539
   23MOL   H53112455   4.515   1.938   4.186  3.0140 -1.3105  0.9067
   23MOL   H53212456   4.519   1.771   4.169 -0.1068 -1.7205 -3.0512
   23MOL   H53312457   4.688   1.887   4.024  0.8665 -0.5906  0.0636
   23MOL   H53412458   4.568   1.982   3.950 -2.7909  0.6474  1.9363
   23MOL   H53512459   4.591   1.671   3.945  0.0358 -0.3181  0.6182
   23MOL   H53612460   4.466   1.763   3.861 -0.1189 -0.9210  0.7341
   23MOL   H53712461   4.700   1.676   3.535 -0.6629  1.8775  0.3635
   23MOL   H53812462   4.845   1.698   3.632  1.2187  0.7908 -0.2699
   23MOL   H53912463   4.847   1.721   3.459 -0.6604  0.1792 -0.2247
   23MOL   H54012464   4.609   1.860   3.397  0.0455 -0.3733  1.4331
   23MOL   H54112465   4.741   1.961   3.357  0.1826  0.3756  0.5342
   23MOL   H54212466   4.607   2.030   3.454 -0.1076 -0.1354  1.5220
   24MOL     C112467   0.057   2.377   1.634 -0.1456 -0.5945 -0.1989
   24MOL     C212468   0.007   2.385   1.493  0.1032 -0.0210  0.6948
   24MOL     C312469   0.113   2.440   1.389 -0.0333 -0.1156 -0.0357
   24MOL     C412470   0.061   2.480   1.249  0.2282  0.1920 -0.7445
   24MOL     C512471   0.175   2.504   1.147  0.5597 -0.1902  0.2019
   24MOL     O612472   0.126   2.530   1.013 -0.5907  0.1170 -0.3892
   24MOL     C712473   0.224   2.530   0.918 -0.8640 -0.0718  0.2150
   24MOL     O812474   0.348   2.523   0.936  0.4414 -0.2176  0.7275
   24MOL     C912475   0.165   2.544   0.771 -0.0917 -0.8636 -0.0210
   24MOL    C1012476   0.062   2.428   0.752  0.2770  0.0389  0.9923
   24MOL    C1112477   0.279   2.552   0.663 -0.1435 -0.2578 -0.1318
   24MOL    H1212478   7.783   2.364   1.697 -0.3287 -1.0101 -0.5296
   24MOL    H1312479   0.110   2.469   1.658 -2.2646  1.2231 -2.2309
   24MOL    H1412480   0.117   2.289   1.657  2.8909  0.8551 -2.2473
   24MOL    H1512481   7.775   2.293   1.456 -2.0733  0.2421  2.6248
   24MOL    H1612482   7.733   2.448   1.485 -0.2415 -0.5199  0.4811
   24MOL    H1712483   0.177   2.522   1.420  1.1726 -1.4844  1.1904
   24MOL    H1812484   0.173   2.351   1.367 -0.6188 -0.6285  0.4517
   24MOL    H1912485   7.812   2.568   1.259 -1.5966 -1.1564  0.0371
   24MOL    H2012486   0.006   2.400   1.199  0.7412 -0.9226  0.4415
   24MOL    H2112487   0.241   2.586   1.174 -0.6423  0.9724 -0.2950
   24MOL    H2212488   0.243   2.419   1.154 -0.8785 -1.3277  0.6004
   24MOL    H2312489   7.800   2.439   0.674  1.0581 -2.2907 -0.1471
   24MOL    H2412490   0.004   2.403   0.841  0.7638 -1.4488  0.9095
   24MOL    H2512491   0.113   2.335   0.725 -0.0727  0.6023 -1.8119
   24MOL    H2612492   0.330   2.457   0.681 -0.4774 -0.4912 -0.3908
   24MOL    H2712493   0.351   2.627   0.695 -0.8414  0.5154 -0.3604
   24MOL    H2812494   0.110   2.638   0.773  0.6892 -0.3539 -1.6285
   24MOL    C2912495   7.689   3.286   0.326  0.1828 -0.0741 -0.2344
   24MOL    C3012496   7.787   3.170   0.303  0.6047  0.0985  0.7024
   24MOL    C3112497   7.767   3.069   0.421 -0.7034  0.0010 -0.4115
   24MOL    C3212498   0.069   2.975   0.435 -0.5932  0.7321 -0.4708
   24MOL    C3312499   0.029   2.856   0.526  0.0941  0.6351 -0.2082
   24MOL    O3412500   0.135   2.761   0.535 -0.3152 -0.5985  0.2735
   24MOL    C3512501   0.119   2.639   0.487  0.1759 -0.0685  0.0343
   24MOL    O3612502   0.017   2.598   0.433  0.1623 -0.6135  0.1258
   24MOL    C3712503   0.251   2.557   0.511 -0.3180  0.5656  0.3906
   24MOL    C3812504   0.225   2.412   0.450  0.3040  0.5672 -0.0941
   24MOL    C3912505   0.373   2.635   0.442  0.7967  0.3619  0.1899
   24MOL    H4012506   7.707   3.337   0.421  1.0836  0.9493 -0.9482
   24MOL    H4112507   7.715   3.350   0.242 -1.5236 -0.2065 -0.8942
   24MOL    H4212508   7.583   3.259   0.319 -0.2398  2.0949 -2.6951
   24MOL    H4312509   0.070   3.219   0.297  0.5108  0.2661  0.5445
   24MOL    H4412510   7.761   3.118   0.210  1.1659 -0.4029  0.8253
   24MOL    H4512511   7.679   3.009   0.398 -0.6599  0.5274 -1.9887
   24MOL    H4612512   7.743   3.109   0.520  0.3390  0.7213 -0.4382
   24MOL    H4712513   0.099   2.933   0.339 -1.5532  0.5660 -0.6964
   24MOL    H4812514   0.149   3.021   0.493  0.1591 -2.2066  0.9322
   24MOL    H4912515   7.746   2.820   0.493 -1.0819  0.8827  2.8020
   24MOL    H5012516   0.022   2.891   0.630  1.7773 -2.2218  0.9168
   24MOL    H5112517   0.300   2.341   0.484 -2.4013 -1.6807  1.5031
   24MOL    H5212518   0.212   2.398   0.342 -0.9607 -2.7995  0.4093
   24MOL    H5312519   0.131   2.375   0.493  0.3081  1.0532  0.3354
   24MOL    H5412520   0.400   2.719   0.506 -1.2923  2.2024 -1.3013
   24MOL    H5512521   0.344   2.681   0.348  0.2135  0.8204  0.5945
   24MOL    C5612522   7.781   2.457   0.111 -0.2641  0.6206 -0.2165
   24MOL    C5712523   0.047   2.500   7.801  0.0655  0.2662  0.4871
   24MOL    C5812524   0.187   2.555   0.023  1.2772 -0.3736  0.3436
   24MOL    C5912525   0.282   2.435   0.036  0.4721  0.1755  0.2431
   24MOL    C6012526   0.431   2.469   0.052 -0.1639  0.6099 -0.7562
   24MOL    O6112527   0.440   2.535   0.177  0.4485  0.5352 -0.0497
   24MOL    C6212528   0.490   2.468   0.289 -0.2463 -0.2585  0.3821
   24MOL    O6312529   0.520   2.347   0.299 -0.0819 -0.3109  0.4511
   24MOL    C6412530   0.514   2.567   0.406  0.2529 -0.2207 -0.4458
   24MOL    C6512531   0.566   2.487   0.528  0.1797  0.2516  0.1171
   24MOL    C6612532   0.605   2.685   0.377 -0.2304  0.2561  0.1377
   24MOL    H6712533   0.006   2.374   0.170 -0.9705 -0.4293 -1.1845
   24MOL    H6812534   7.682   2.419   0.086  0.5302  1.0629 -4.3904
   24MOL    H6912535   7.763   2.545   0.172  1.7135  0.9788 -0.1060
   24MOL    H7012536   0.050   2.418   7.729 -1.2729  0.1777  0.5256
   24MOL    H7112537   7.802   2.576   7.749 -1.2802 -1.1619 -0.0825
   24MOL    H7212538   0.217   2.618   7.752  2.6225 -1.0344  0.3156
   24MOL    H7312539   0.178   2.624   0.107 -1.0538  1.9001 -1.6716
   24MOL    H7412540   0.280   2.370   7.762 -0.9768 -1.1691  1.2226
   24MOL    H7512541   0.242   2.372   0.115 -0.4064 -0.1682 -0.4646
   24MOL    H7612542   0.488   2.377   0.050 -0.4239  0.4553 -1.1298
   24MOL    H7712543   0.469   2.537   7.790  0.5342 -0.9030 -1.7727
   24MOL    H7812544   0.501   2.404   0.557 -0.0427 -0.3528 -2.0709
   24MOL    H7912545   0.589   2.546   0.617  1.6852  0.2770 -0.2834
   24MOL    H8012546   0.664   2.443   0.508  0.2978  1.0421 -1.0689
   24MOL    H8112547   0.615   2.729   0.477  0.2502  1.5916 -0.4924
   24MOL    H8212548   0.544   2.749   0.313  1.0692  0.6539 -0.7008
   24MOL    C8312549   0.992   2.037   0.011 -0.0784 -0.2445 -0.3063
   24MOL    C8412550   0.898   2.013   0.125 -0.2182  0.0179 -0.2842
   24MOL    C8512551   0.927   2.105   0.244  0.4099 -0.3161 -0.4004
   24MOL    C8612552   0.866   2.248   0.214 -0.2617 -0.1652  0.1910
   24MOL    C8712553   0.881   2.342   0.335  0.1211  1.1784  0.3914
   24MOL    O8812554   0.814   2.463   0.294 -0.0613  0.0619 -0.3802
   24MOL    C8912555   0.835   2.578   0.364  0.2955 -0.2941  0.7406
   24MOL    O9012556   0.915   2.588   0.457 -0.0998  0.0443  0.4591
   24MOL    C9112557   0.751   2.695   0.314  0.2595 -0.6824  0.7559
   24MOL    C9212558   0.740   2.687   0.163 -0.1797  0.2068  0.0670
   24MOL    C9312559   0.800   2.844   0.357 -0.2918  1.0043  0.4083
   24MOL    H9412560   1.095   2.010   0.032  0.7007  2.5766 -0.3930
   24MOL    H9512561   0.968   1.965   7.746  4.9911 -0.6978 -1.6029
   24MOL    H9612562   0.972   2.135   7.782  1.6626  0.2785  0.0640
   24MOL    H9712563   0.910   1.914   0.169 -0.6355 -1.0689 -2.5488
   24MOL    H9812564   0.797   2.043   0.097  0.9049  2.6478 -1.6759
   24MOL    H9912565   1.034   2.114   0.264 -0.0448 -2.4196  3.4020
   24MOL   H10012566   0.875   2.080   0.336  1.3128 -1.8645 -0.3114
   24MOL   H10112567   0.760   2.242   0.187 -0.4412 -1.8488  1.1762
   24MOL   H10212568   0.923   2.297   0.135 -1.7772  2.2406  0.5444
   24MOL   H10312569   0.985   2.351   0.364  0.3961  1.2036 -0.6098
   24MOL   H10412570   0.827   2.294   0.417 -0.7702  0.1323 -0.7960
   24MOL   H10512571   0.684   2.598   0.134 -0.1748 -0.3106  1.5962
   24MOL   H10612572   0.839   2.679   0.118  0.0591  2.3149  0.1716
   24MOL   H10712573   0.686   2.773   0.123  0.7854  0.4605 -0.7071
   24MOL   H10812574   0.719   2.911   0.327 -0.0395  1.2604  0.3026
   24MOL   H10912575   0.811   2.843   0.465  2.3308  2.1942  0.1908
   24MOL   C11012576   0.254   2.885   0.085  0.0169 -0.2137  0.1232
   24MOL   C11112577   0.334   3.017   0.093  0.4128 -0.4737  0.0674
   24MOL   C11212578   0.479   2.996   0.067  0.3217  0.5579  0.1398
   24MOL   C11312579   0.566   3.119   0.037  0.5055  0.2364  0.6408
   24MOL   C11412580   0.723   3.088   0.035 -0.5536 -0.1977 -0.3420
   24MOL   O11512581   0.782   3.047   0.160 -0.0271  0.0979 -0.6263
   24MOL   C11612582   0.900   2.974   0.166 -0.8036 -0.2005  0.6516
   24MOL   O11712583   0.970   2.951   0.067 -0.6308 -0.2205 -0.6182
   24MOL   C11812584   0.931   2.914   0.307  0.2724  0.8384 -0.4221
   24MOL   C11912585   1.046   2.819   0.289 -0.8612  0.3974 -0.2749
   24MOL   C12012586   0.969   3.028   0.411  0.5445 -0.1266  0.4463
   24MOL   H12112587   0.249   2.847   7.797 -0.6638  0.3241 -0.0447
   24MOL   H12212588   0.307   2.817   0.151  0.2887 -0.9120 -0.7964
   24MOL   H12312589   0.151   2.874   0.117  0.2698 -2.0533  0.3732
   24MOL   H12412590   0.299   3.106   0.040  0.0949 -1.1165 -0.8126
   24MOL   H12512591   0.313   3.060   0.191  0.4499  0.0627 -0.1532
   24MOL   H12612592   0.519   2.942   0.153  0.4322 -1.3842 -1.0954
   24MOL   H12712593   0.495   2.928   7.797 -0.7678  1.4812 -0.8416
   24MOL   H12812594   0.545   3.188   0.119 -0.2072  0.3370  0.3795
   24MOL   H12912595   0.536   3.167   7.758 -0.0084  0.6929  1.0435
   24MOL   H13012596   0.745   3.004   7.782  0.8712  1.4147 -1.9492
   24MOL   H13112597   0.780   3.171   7.810  0.1097 -1.0618 -1.2482
   24MOL   H13212598   1.021   2.728   0.235  1.1737 -0.4180  0.1123
   24MOL   H13312599   1.134   2.854   0.236 -0.5161  1.7547  1.1453
   24MOL   H13412600   1.089   2.785   0.383  1.4753  0.1053 -1.4363
   24MOL   H13512601   0.879   3.080   0.443  1.1855 -0.0016  2.0955
   24MOL   H13612602   1.000   2.977   0.502 -0.1329 -0.7702  0.3166
   24MOL   C13712603   1.705   2.699   0.661 -0.6022 -0.1197  0.0278
   24MOL   C13812604   1.726   2.849   0.619 -0.6022 -0.2687 -0.1968
   24MOL   C13912605   1.644   2.882   0.491 -0.4562  0.7309  0.0657
   24MOL   C14012606   1.492   2.919   0.509 -0.3742  0.4860 -1.0724
   24MOL   C14112607   1.421   2.942   0.376  0.8459  0.0652  0.5615
   24MOL   O14212608   1.282   2.987   0.405  0.0573  0.4687 -0.0844
   24MOL   C14312609   1.218   3.077   0.321 -0.1048 -0.4566 -0.3183
   24MOL   O14412610   1.260   3.102   0.210  0.3282  0.6219 -0.4007
   24MOL   C14512611   1.089   3.133   0.385 -0.1476 -0.2340 -0.4968
   24MOL   C14612612   1.033   3.253   0.305  0.6325 -0.5797  0.7285
   24MOL   C14712613   1.128   3.181   0.530  0.1281 -0.6081 -0.2712
   24MOL   H14812614   1.730   2.633   0.577  0.0054  0.1718 -0.0279
   24MOL   H14912615   1.602   2.686   0.694 -0.9020  0.5196 -0.6415
   24MOL   H15012616   1.772   2.679   0.745 -0.8797  0.9979  0.5283
   24MOL   H15112617   1.834   2.856   0.613 -0.3618 -1.0672  2.6670
   24MOL   H15212618   1.693   2.913   0.701 -1.8461 -0.4299 -0.5557
   24MOL   H15312619   1.702   2.959   0.441  0.5368  1.1385  1.7985
   24MOL   H15412620   1.646   2.796   0.424 -1.5459 -1.6057  2.8884
   24MOL   H15512621   1.442   2.835   0.559 -0.3302  0.0051 -1.8316
   24MOL   H15612622   1.496   3.004   0.577  0.9802 -0.4081  0.0238
   24MOL   H15712623   1.416   2.853   0.313 -2.0830  0.6786 -0.1658
   24MOL   H15812624   1.479   3.019   0.325 -0.5498 -0.5581 -2.0401
   24MOL   H15912625   0.984   3.221   0.212  0.2888  0.2870  0.6026
   24MOL   H16012626   1.109   3.330   0.291  1.5203 -1.8321 -1.6032
   24MOL   H16112627   0.961   3.311   0.364 -0.0355 -0.7922  0.1351
   24MOL   H16212628   1.030   3.204   0.571  0.9620  2.3692  0.1683
   24MOL   H16312629   1.157   3.088   0.578 -0.5017 -0.4733  0.3843
   24MOL   C16412630   1.134   2.767   0.685 -0.2957 -0.3611  0.0887
   24MOL   C16512631   1.137   2.873   0.800 -0.0093 -0.3101  0.3090
   24MOL   C16612632   1.279   2.920   0.840  0.1490 -0.1061 -0.0143
   24MOL   C16712633   1.282   3.024   0.956 -0.7346  0.6204 -0.0066
   24MOL   C16812634   1.211   3.157   0.930 -0.3145  0.8584  0.3324
   24MOL   O16912635   1.207   3.184   0.794 -0.5001  0.0456 -0.2085
   24MOL   C17012636   1.191   3.306   0.744 -0.1384 -0.3599  0.2814
   24MOL   O17112637   1.157   3.410   0.803 -0.5644  0.5252  0.2107
   24MOL   C17212638   1.213   3.305   0.588 -1.1609 -0.4868 -0.4288
   24MOL   C17312639   1.160   3.445   0.523  0.4292  0.2953  0.1373
   24MOL   C17412640   1.366   3.280   0.549  0.2618  0.3994 -0.0828
   24MOL   H17512641   1.178   2.803   0.592  1.7219 -0.8250  0.8268
   24MOL   H17612642   1.028   2.748   0.669 -0.3653 -0.0464  0.1781
   24MOL   H17712643   1.182   2.672   0.709 -0.8133 -0.0403  2.4830
   24MOL   H17812644   1.075   2.841   0.884 -2.1270 -0.3365 -1.2321
   24MOL   H17912645   1.093   2.965   0.762  0.1886 -0.1670  0.4248
   24MOL   H18012646   1.349   2.840   0.863 -0.0732 -0.2236  0.2499
   24MOL   H18112647   1.315   2.975   0.752 -0.2898  1.9245  1.0606
   24MOL   H18212648   1.382   3.050   0.989 -0.2607  0.4282 -1.2466
   24MOL   H18312649   1.242   2.987   1.050 -0.7167 -0.3077 -0.3551
   24MOL   H18412650   1.259   3.242   0.979  0.2080 -0.2186  1.7170
   24MOL   H18512651   1.115   3.154   0.980 -0.0029 -0.1585  0.8787
   24MOL   H18612652   1.051   3.451   0.518  0.4878  1.4404  0.1857
   24MOL   H18712653   1.201   3.471   0.425 -0.3467  2.9050  0.4761
   24MOL   H18812654   1.182   3.532   0.585 -1.3366  1.3586 -0.6750
   24MOL   H18912655   1.388   3.192   0.608 -0.4403 -0.4073 -1.0066
   24MOL   H19012656   1.367   3.242   0.447  0.5177  1.0472 -0.3225
   24MOL   C19112657   1.728   3.017   1.249  0.9387  0.6523  0.0474
   24MOL   C19212658   1.642   3.052   1.133 -0.1681  0.5106 -0.0382
   24MOL   C19312659   1.743   3.088   1.019 -0.5251 -0.2649 -0.9583
   24MOL   C19412660   1.680   3.138   0.886  0.1532 -0.2652 -0.1993
   24MOL   C19512661   1.624   3.275   0.895  0.5024 -0.1941 -0.1607
   24MOL   O19612662   1.545   3.283   0.781  0.4665  0.0808  0.7267
   24MOL   C19712663   1.522   3.399   0.719 -0.1778  0.0667  0.7541
   24MOL   O19812664   1.549   3.511   0.767  0.5469 -0.3215  0.3582
   24MOL   C19912665   1.484   3.377   0.564 -0.7867 -0.2398  0.2670
   24MOL   C20012666   1.441   3.521   0.499  0.3611 -0.0444 -0.2142
   24MOL   C20112667   1.609   3.304   0.493 -0.7218  0.9186  0.6300
   24MOL   H20212668   1.660   2.988   1.329  1.5387  0.6619  0.5613
   24MOL   H20312669   1.787   2.927   1.229 -1.7767 -1.5346  1.5455
   24MOL   H20412670   1.781   3.102   1.291  2.5584  0.3218 -1.2865
   24MOL   H20512671   1.581   3.141   1.150 -0.4702  0.8079 -2.5254
   24MOL   H20612672   1.577   2.970   1.105  0.3058  0.8448 -2.1870
   24MOL   H20712673   1.815   3.012   0.988  2.6654  1.5460  1.7935
   24MOL   H20812674   1.810   3.157   1.070 -0.0518 -1.7664  0.4823
   24MOL   H20912675   1.756   3.126   0.809 -0.9763  0.5860 -1.4606
   24MOL   H21012676   1.610   3.065   0.845 -1.2068  1.9783 -2.0225
   24MOL   H21112677   1.569   3.257   0.987  0.6975 -1.6847 -0.3290
   24MOL   H21212678   1.696   3.357   0.897 -2.2140  2.3491 -1.7441
   24MOL   H21312679   1.398   3.502   0.400  0.6290 -0.1258 -0.3134
   24MOL   H21412680   1.529   3.585   0.502  1.2610 -1.1703 -2.0862
   24MOL   H21512681   1.370   3.579   0.559  0.5092 -0.7014  0.5944
   24MOL   H21612682   1.577   3.246   0.407  0.8348  0.4123  0.3722
   24MOL   H21712683   1.629   3.219   0.558  1.1929  0.1282 -0.9212
   24MOL   C21812684   2.498   3.428   0.403 -0.2072  0.8565  0.2888
   24MOL   C21912685   2.364   3.498   0.436 -0.6203  0.0729  0.6497
   24MOL   C22012686   2.249   3.412   0.486  0.4806  0.1961 -0.7690
   24MOL   C22112687   2.207   3.309   0.387 -0.4252 -0.9188  0.0507
   24MOL   C22212688   2.088   3.225   0.434  0.2542  0.5687  0.6541
   24MOL   O22312689   1.984   3.318   0.457  0.1273 -0.6576  0.3713
   24MOL   C22412690   1.856   3.267   0.460 -0.4774  0.7482 -0.6482
   24MOL   O22512691   1.837   3.141   0.461 -0.5212  0.0234 -0.0959
   24MOL   C22612692   1.746   3.379   0.457  0.4671  1.1991  0.2947
   24MOL   C22712693   1.793   3.481   0.568 -0.5602 -0.4941  0.2469
   24MOL   C22812694   1.751   3.448   0.316  0.4113 -0.4006 -0.2016
   24MOL   H22912695   2.489   3.350   0.327 -2.2692  2.0910 -0.7832
   24MOL   H23012696   2.575   3.487   0.356  1.6669 -1.2543  0.6224
   24MOL   H23112697   2.552   3.384   0.487  1.6889 -0.4714 -1.5850
   24MOL   H23212698   2.334   3.538   0.339  2.5642 -2.2851 -1.4131
   24MOL   H23312699   2.366   3.589   0.497  1.0306 -0.0520  0.8122
   24MOL   H23412700   2.169   3.486   0.496  0.2606 -0.2945  1.3215
   24MOL   H23512701   2.263   3.371   0.586 -2.6067  0.8453 -0.0239
   24MOL   H23612702   2.194   3.364   0.293  0.5530  1.2359  1.1642
   24MOL   H23712703   2.292   3.243   0.369  0.5433  0.8246 -2.0426
   24MOL   H23812704   2.126   3.167   0.519 -0.3438 -1.5279 -0.4696
   24MOL   H23912705   2.057   3.155   0.357 -2.2343  1.8455  0.4412
   24MOL   H24012706   1.723   3.563   0.581  1.6340  1.2373  1.3808
   24MOL   H24112707   1.881   3.533   0.531 -1.5455 -0.4223 -2.0967
   24MOL   H24212708   1.824   3.452   0.668  0.0389  1.7065  0.7206
   24MOL   H24312709   1.857   3.471   0.304  0.2849  0.0649 -0.4535
   24MOL   H24412710   1.695   3.541   0.324  1.8324  0.5415 -1.0387
   24MOL   C24512711   1.918   3.718   7.243 -0.0674 -0.2268  0.8924
   24MOL   C24612712   1.919   3.622   7.357 -0.0028  0.1925 -0.4188
   24MOL   C24712713   1.920   3.676   7.501 -0.2046  0.7994 -0.2498
   24MOL   C24812714   1.893   3.571   7.606 -0.2660 -0.4293 -0.0831
   24MOL   C24912715   1.921   3.606   7.754  0.4671 -0.3373 -0.5478
   24MOL   O25012716   1.877   3.502   0.031  0.1761 -0.1680 -0.9405
   24MOL   C25112717   1.745   3.500   0.069 -0.6934 -0.1378 -0.9644
   24MOL   O25212718   1.662   3.580   0.027 -0.1768 -0.3535 -0.2129
   24MOL   C25312719   1.707   3.387   0.177  0.2065 -0.2061 -0.1263
   24MOL   C25412720   1.556   3.382   0.179  0.1529  0.2205  0.5223
   24MOL   C25512721   1.773   3.239   0.146  0.3538 -0.2403 -0.2469
   24MOL   H25612722   1.830   3.781   7.257  1.4317  1.9273  0.8918
   24MOL   H25712723   1.997   3.793   7.257  0.9284 -0.1879 -4.0272
   24MOL   H25812724   1.931   3.670   7.146 -0.6062  0.0777  0.6685
   24MOL   H25912725   1.828   3.562   7.348  0.1441  0.2020 -2.0419
   24MOL   H26012726   2.006   3.557   7.352  1.3674  1.9729 -0.2672
   24MOL   H26112727   1.853   3.761   7.496 -1.3799 -0.2487 -3.3418
   24MOL   H26212728   2.018   3.719   7.524  1.1101 -1.9974 -0.3663
   24MOL   H26312729   1.788   3.543   7.594  0.1338 -3.0528  2.1968
   24MOL   H26412730   1.941   3.476   7.584 -1.1493 -1.0869  0.7931
   24MOL   H26512731   2.029   3.617   7.767  0.1826  1.0771  0.7902
   24MOL   H26612732   1.875   3.699   7.787  1.6534  0.1623 -0.2689
   24MOL   H26712733   1.517   3.288   0.220  1.5497 -0.1904  0.9390
   24MOL   H26812734   1.511   3.464   0.235 -1.7804  0.2791 -1.0505
   24MOL   H26912735   1.510   3.398   0.081  0.2026  1.6111  0.7203
   24MOL   H27012736   1.879   3.263   0.159  0.4754  0.5324 -2.4625
   24MOL   H27112737   1.745   3.171   0.226 -1.1316 -0.6926 -1.1305
   24MOL   C27212738   2.338   3.505   0.069  0.1449  0.4641  0.7808
   24MOL   C27312739   2.303   3.416   7.759 -0.0837  0.4204 -0.4066
   24MOL   C27412740   2.200   3.315   7.795  0.0372 -0.1525  0.4925
   24MOL   C27512741   2.188   3.201   7.699 -0.6177 -0.0626  0.2081
   24MOL   C27612742   2.095   3.090   7.740  0.2802  0.0452  1.0585
   24MOL   O27712743   1.971   3.147   7.776 -0.4141  0.6014 -0.1837
   24MOL   C27812744   1.871   3.065   7.811  0.7839 -0.9944 -0.0559
   24MOL   O27912745   1.879   2.948   0.019  0.2247 -0.0396  0.0241
   24MOL   C28012746   1.740   3.151   0.015 -0.4988 -0.0804  0.6066
   24MOL   C28112747   1.618   3.054   0.049  0.2010 -0.1562  1.0175
   24MOL   C28212748   1.720   3.232   7.698  0.1569  0.5150 -0.1421
   24MOL   H28312749   2.412   3.579   0.038  0.3183  0.5819  1.4708
   24MOL   H28412750   2.248   3.550   0.111  0.8505  1.1122  1.6107
   24MOL   H28512751   2.382   3.443   0.147  1.0973 -0.8997 -0.8039
   24MOL   H28612752   2.268   3.485   7.682  1.6249  0.2163 -1.3985
   24MOL   H28712753   2.398   3.372   7.729 -0.2473  0.0567 -0.3912
   24MOL   H28812754   2.232   3.269   0.075 -2.3416  1.0615  1.9494
   24MOL   H28912755   2.102   3.360   7.812 -0.6447 -0.9791 -1.2069
   24MOL   H29012756   2.150   3.233   7.602  1.3182 -0.9198 -0.8553
   24MOL   H29112757   2.284   3.161   7.667  0.1795  1.9514  0.0222
   24MOL   H29212758   2.137   3.031   0.007  3.6088  0.6332 -0.1745
   24MOL   H29312759   2.086   3.031   7.649  2.0365 -1.0195  1.5786
   24MOL   H29412760   1.530   3.111   0.078  0.6192  0.8012  0.4270
   24MOL   H29512761   1.599   2.979   7.786 -0.6440  2.0715 -1.0066
   24MOL   H29612762   1.642   2.997   0.138  2.6969  0.9255  1.0523
   24MOL   H29712763   1.657   3.318   7.715  1.6736  2.0189 -1.9036
   24MOL   H29812764   1.808   3.296   7.691  0.5484  0.0667  0.6053
   24MOL   C29912765   2.399   3.244   7.105 -0.3375 -0.7805 -0.2838
   24MOL   C30012766   2.321   3.208   7.235  0.5524 -0.4279  0.1152
   24MOL   C30112767   2.170   3.229   7.209 -0.1050  0.2134  0.4890
   24MOL   C30212768   2.073   3.168   7.304 -0.2687 -0.1821  0.0253
   24MOL   C30312769   1.937   3.235   7.291 -0.3694  0.2511 -0.0189
   24MOL   O30412770   1.859   3.169   7.390  0.3896  0.1862  0.0070
   24MOL   C30512771   1.759   3.234   7.442 -0.0210 -0.3087  0.0256
   24MOL   O30612772   1.732   3.349   7.411 -0.2821  0.3422 -0.2461
   24MOL   C30712773   1.685   3.163   7.558 -0.2225 -0.1354  0.6204
   24MOL   C30812774   1.736   3.018   7.559  0.3856 -0.5664  0.1678
   24MOL   C30912775   1.525   3.168   7.534 -0.0800  0.9347 -0.1487
   24MOL   H31012776   2.404   3.181   7.016 -1.3679  0.3544 -1.1659
   24MOL   H31112777   2.504   3.270   7.116 -0.8760  1.0933  0.6360
   24MOL   H31212778   2.353   3.332   7.059 -0.3931  0.4172  2.0140
   24MOL   H31312779   2.347   3.262   7.326  3.5443 -0.1199 -0.8733
   24MOL   H31412780   2.340   3.104   7.262 -0.1845 -0.7423 -0.5548
   24MOL   H31512781   2.143   3.210   7.105 -1.1531 -1.8900  1.1135
   24MOL   H31612782   2.152   3.335   7.221 -0.7467  0.2158 -0.4876
   24MOL   H31712783   2.114   3.188   7.403 -1.6325 -1.6309  0.9110
   24MOL   H31812784   2.070   3.064   7.270 -0.8543  0.1338 -0.9095
   24MOL   H31912785   1.947   3.341   7.313  0.4953  0.4924 -1.5196
   24MOL   H32012786   1.893   3.209   7.195  0.3747  0.2586 -0.3643
   24MOL   H32112787   1.690   2.941   7.622 -1.4218  1.1119  0.9608
   24MOL   H32212788   1.729   2.978   7.458 -0.8519 -1.5354  0.6256
   24MOL   H32312789   1.845   3.013   7.567  0.4387  1.5917  1.1631
   24MOL   H32412790   1.500   3.274   7.527  0.2318  1.1151  1.4073
   24MOL   H32512791   1.489   3.144   7.634  0.9508 -0.9012 -0.1985
   24MOL   C32612792   1.138   2.468   0.028  0.2892  0.0386 -0.4454
   24MOL   C32712793   1.165   2.610   7.789  0.3298 -0.4435 -0.1345
   24MOL   C32812794   1.292   2.674   0.017  0.3766 -0.4314  0.6850
   24MOL   C32912795   1.327   2.805   7.763 -0.7234  0.8324 -0.0003
   24MOL   C33012796   1.358   2.796   7.622  0.2462  1.0384  0.0078
   24MOL   O33112797   1.361   2.927   7.576 -0.0044 -0.5239  0.5546
   24MOL   C33212798   1.424   2.944   7.458  0.2223 -0.6411 -0.3527
   24MOL   O33312799   1.487   2.855   7.402 -0.0528 -0.6886 -0.0235
   24MOL   C33412800   1.429   3.089   7.420 -0.2701  0.4163 -0.1021
   24MOL   C33512801   1.288   3.157   7.444 -0.4113  0.2069  0.2146
   24MOL   C33612802   1.492   3.113   7.275  0.0006 -0.5878  0.2902
   24MOL   H33712803   1.071   2.411   7.777  0.5680  0.7625 -1.3884
   24MOL   H33812804   1.083   2.488   0.120  0.0885 -1.6918 -0.1744
   24MOL   H33912805   1.228   2.411   0.049  0.6850  0.3815 -1.1674
   24MOL   H34012806   1.080   2.675   7.811  1.3114  0.6690  0.4052
   24MOL   H34112807   1.159   2.593   7.681 -0.3309 -1.2777  0.0244
   24MOL   H34212808   1.367   2.595   0.007  1.6150  0.6051  1.6528
   24MOL   H34312809   1.287   2.689   0.125 -2.1608 -0.4158  0.5852
   24MOL   H34412810   1.414   2.845   7.814 -1.3614  1.2025  0.8125
   24MOL   H34512811   1.254   2.882   7.787 -0.1492  1.2196  0.4937
   24MOL   H34612812   1.280   2.740   7.570 -0.4233  1.4305  0.5765
   24MOL   H34712813   1.451   2.740   7.616 -0.6567 -0.4326 -0.3805
   24MOL   H34812814   1.261   3.164   7.549 -0.4313  0.8611  0.1671
   24MOL   H34912815   1.203   3.104   7.400 -0.8790 -1.0911  2.5835
   24MOL   H35012816   1.282   3.260   7.409 -1.5789 -0.0720 -0.4542
   24MOL   H35112817   1.574   3.042   7.272 -1.2801 -2.0819 -0.9219
   24MOL   H35212818   1.533   3.214   7.280 -0.2289 -0.3553 -1.8355
   24MOL   C35312819   0.714   2.829   7.036  0.0658 -0.2710  0.2650
   24MOL   C35412820   0.709   2.964   6.965  0.5484 -0.1141  0.2673
   24MOL   C35512821   0.797   3.067   7.033 -0.5868 -0.0780 -0.7378
   24MOL   C35612822   0.949   3.039   7.038  0.1836  0.2706  0.8380
   24MOL   C35712823   1.045   3.148   7.081  0.4621  0.2032  0.1828
   24MOL   O35812824   1.178   3.090   7.090  0.2582 -0.1839  0.0666
   24MOL   C35912825   1.280   3.166   7.127 -0.3381 -0.0217 -0.0053
   24MOL   O36012826   1.263   3.285   7.141 -0.0893  0.2451  0.2802
   24MOL   C36112827   1.420   3.091   7.137 -0.0116 -0.5107  0.0907
   24MOL   C36212828   1.392   2.934   7.119 -0.3655 -0.1476 -0.0841
   24MOL   C36312829   1.531   3.142   7.035 -0.1284  0.5445 -0.1211
   24MOL   H36412830   0.669   2.845   7.135  1.1810  1.4100  0.5233
   24MOL   H36512831   0.819   2.802   7.042  0.0339 -0.3432  0.4993
   24MOL   H36612832   0.652   2.767   6.971 -1.3319  1.9819 -0.6202
   24MOL   H36712833   0.732   2.946   6.860  1.8260 -0.5537  0.6093
   24MOL   H36812834   0.609   3.006   6.957  1.0661  1.4639  1.9320
   24MOL   H36912835   0.765   3.092   7.135 -0.2641  0.6149 -0.8048
   24MOL   H37012836   0.776   3.154   6.971 -1.6965 -1.6098 -2.5524
   24MOL   H37112837   0.978   2.990   6.945  1.3006 -0.3046  1.4814
   24MOL   H37212838   0.965   2.962   7.113 -1.1796  0.5941  1.4823
   24MOL   H37312839   1.034   3.235   7.016  0.0837 -1.7804 -2.5098
   24MOL   H37412840   1.011   3.184   7.178  0.9623 -0.7460  0.7226
   24MOL   H37512841   1.348   2.913   7.021  1.7314 -3.2816 -0.4020
   24MOL   H37612842   1.480   2.872   7.132 -0.5168 -0.1962  0.7506
   24MOL   H37712843   1.327   2.892   7.196  0.4583  2.3617  2.0604
   24MOL   H37812844   1.543   3.249   7.056  0.6933  0.4389 -0.0084
   24MOL   H37912845   1.624   3.100   7.073 -1.1244 -0.6821  0.9908
   24MOL   C38012846   2.122   2.720   7.013  0.0097 -0.5886 -0.3048
   24MOL   C38112847   2.041   2.847   7.055 -0.5285 -0.3938 -0.3686
   24MOL   C38212848   1.891   2.830   7.048 -0.0621 -0.7066  0.1650
   24MOL   C38312849   1.847   2.796   6.901 -0.9776  0.2788 -0.0747
   24MOL   C38412850   1.697   2.814   6.889  0.3877  0.1848  0.3201
   24MOL   O38512851   1.669   2.948   6.877 -0.1638  0.2409 -0.5421
   24MOL   C38612852   1.543   2.993   6.847  0.4352 -0.7833 -0.2085
   24MOL   O38712853   1.461   2.930   6.782 -0.2727  0.1240 -0.2449
   24MOL   C38812854   1.519   3.143   6.880 -0.5753 -0.0327 -0.2325
   24MOL   C38912855   1.383   3.189   6.840  0.1425 -0.0946 -0.4394
   24MOL   C39012856   1.632   3.237   6.830 -0.0254 -0.4233  0.0992
   24MOL   H39112857   2.226   2.716   7.044  0.2318  0.1802 -0.9328
   24MOL   H39212858   2.070   2.648   7.077  1.5436 -0.9871  0.5186
   24MOL   H39312859   2.106   2.698   6.907 -1.3978  0.6244 -0.3540
   24MOL   H39412860   2.067   2.936   6.998  1.8908 -1.3456 -0.8163
   24MOL   H39512861   2.069   2.876   7.156  0.3816 -1.7999 -0.2053
   24MOL   H39612862   1.855   2.744   7.104  0.3891 -0.6138  0.5974
   24MOL   H39712863   1.848   2.921   7.089  0.7379 -0.1035 -0.3206
   24MOL   H39812864   1.898   2.857   6.827 -0.4307 -0.8178 -0.6183
   24MOL   H39912865   1.869   2.690   6.882 -0.4297  0.5371 -0.8976
   24MOL   H40012866   1.647   2.764   6.972  2.0596  2.6570  2.8917
   24MOL   H40112867   1.659   2.763   6.800  1.0820 -1.3843  0.9185
   24MOL   H40212868   1.377   3.189   6.731  1.2754  1.2561 -0.5083
   24MOL   H40312869   1.354   3.287   6.877  2.8429  0.4977  0.1605
   24MOL   H40412870   1.301   3.122   6.865 -1.5090  1.5548 -1.2546
   24MOL   H40512871   1.729   3.209   6.873 -0.2771  0.9684  1.6164
   24MOL   H40612872   1.606   3.331   6.878  1.6244 -0.8540  1.9366
   24MOL   C40712873   1.734   2.711   6.072  0.3232  0.1311  0.1585
   24MOL   C40812874   1.773   2.842   6.153 -0.3437 -0.5209  0.7603
   24MOL   C40912875   1.736   2.831   6.301 -0.3025 -1.0915 -0.3968
   24MOL   C41012876   1.764   2.952   6.388  0.6376 -0.0218  0.1672
   24MOL   C41112877   1.713   2.946   6.534  0.1541 -0.9929  0.8373
   24MOL   O41212878   1.725   3.063   6.604 -0.0962 -0.1137  0.1652
   24MOL   C41312879   1.634   3.162   6.577 -0.9693  0.4978 -0.4366
   24MOL   O41412880   1.551   3.160   6.487  0.8542  0.5425  0.1619
   24MOL   C41512881   1.653   3.282   6.676  0.3954 -0.5253 -0.5159
   24MOL   C41612882   1.554   3.400   6.649 -0.0189 -0.0383  0.1608
   24MOL   C41712883   1.796   3.344   6.659  0.3043 -0.4109 -0.5920
   24MOL   H41812884   1.629   2.685   6.085  0.3907  0.0678  0.6047
   24MOL   H41912885   1.759   2.712   5.966 -2.7631  1.2134 -0.6280
   24MOL   H42012886   1.794   2.632   6.118 -2.6758 -1.3257  1.6953
   24MOL   H42112887   1.710   2.929   6.130 -2.6424 -2.5956 -1.1850
   24MOL   H42212888   1.879   2.863   6.142 -0.9288  1.1882 -2.3704
   24MOL   H42312889   1.633   2.795   6.305 -0.1583 -1.3743  1.5132
   24MOL   H42412890   1.791   2.750   6.351  0.5042  1.0728  2.3718
   24MOL   H42512891   1.719   3.039   6.340  1.2186  1.6790  2.6245
   24MOL   H42612892   1.872   2.965   6.374  0.8277 -1.8324 -0.1250
   24MOL   H42712893   1.607   2.924   6.545 -0.2340  0.3903 -0.0263
   24MOL   H42812894   1.753   2.855   6.580  1.0871 -1.0153 -0.0136
   24MOL   H42912895   1.589   3.495   6.691 -0.9222 -0.2250  1.3551
   24MOL   H43012896   1.458   3.390   6.699 -0.5874 -2.9308 -1.3977
   24MOL   H43112897   1.526   3.416   6.544 -2.6365 -2.1654  0.5141
   24MOL   H43212898   1.871   3.267   6.678  0.6142 -0.1097 -0.6016
   24MOL   H43312899   1.820   3.412   6.741  0.8670  1.2626 -2.1330
   24MOL   C43412900   1.594   3.647   7.021 -0.4681  0.1322  1.1116
   24MOL   C43512901   1.696   3.711   6.928 -0.2964  0.0304 -0.5801
   24MOL   C43612902   1.630   3.816   6.834 -0.0591  0.8578  0.8100
   24MOL   C43712903   1.723   3.850   6.717 -0.1690 -0.6966 -0.0102
   24MOL   C43812904   1.704   3.757   6.594  0.8291  0.5883 -0.6563
   24MOL   O43912905   1.767   3.628   6.608 -0.3431 -0.5833 -0.3826
   24MOL   C44012906   1.800   3.558   6.500  0.2220 -0.1343  0.0493
   24MOL   O44112907   1.803   3.599   6.383 -0.3264  0.5695  0.5707
   24MOL   C44212908   1.858   3.420   6.529  0.3927 -0.3391 -0.2545
   24MOL   C44312909   1.823   3.338   6.402  0.1462 -0.0839  1.0602
   24MOL   C44412910   2.016   3.440   6.527 -0.0818  0.0184  0.4553
   24MOL   H44512911   1.528   3.584   6.962  0.8074 -0.4365  0.2817
   24MOL   H44612912   1.633   3.584   7.101  0.3154  0.1122  0.7214
   24MOL   H44712913   1.534   3.724   7.070 -0.9971 -1.2676  2.6745
   24MOL   H44812914   1.761   3.766   6.996  0.6208 -1.4272 -0.2566
   24MOL   H44912915   1.760   3.638   6.877 -0.1612 -0.7224  0.6450
   24MOL   H45012916   1.530   3.794   6.799 -0.0834  0.6651  1.0057
   24MOL   H45112917   1.608   3.911   6.883 -1.0815  1.1405 -0.1712
   24MOL   H45212918   1.824   3.844   6.759  0.6196  2.6228 -1.2116
   24MOL   H45312919   1.704   3.950   6.679  0.6838 -0.5301 -0.0111
   24MOL   H45412920   1.739   3.818   6.511 -2.1582  0.4152 -2.0914
   24MOL   H45512921   1.601   3.736   6.568  1.0467 -1.9795  0.4035
   24MOL   H45612922   1.716   3.344   6.382  0.4329  1.9294 -0.0179
   24MOL   H45712923   1.872   3.377   6.312 -2.2538 -2.4066 -1.3769
   24MOL   H45812924   1.850   3.234   6.420  0.2445 -0.6739 -2.0938
   24MOL   H45912925   2.028   3.510   6.444 -0.2272  0.1955  0.5836
   24MOL   H46012926   2.056   3.344   6.494 -0.9685  0.1193 -0.9378
   24MOL   C46112927   2.135   2.800   6.373 -0.1060  0.2878  0.4333
   24MOL   C46212928   2.168   2.850   6.519 -0.2523  0.4254  0.4318
   24MOL   C46312929   2.093   2.976   6.573  0.3250  0.5406  0.0372
   24MOL   C46412930   2.141   3.009   6.716 -0.0473 -0.5075 -0.2155
   24MOL   C46512931   2.089   3.135   6.796 -0.0066  0.6080 -0.4234
   24MOL   O46612932   2.128   3.249   6.731 -0.5041 -0.2864 -0.6466
   24MOL   C46712933   2.083   3.374   6.767  0.3029 -0.2970  0.0588
   24MOL   O46812934   2.037   3.400   6.879  0.5911  0.1354  0.2245
   24MOL   C46912935   2.105   3.485   6.655 -0.1199 -0.4278  0.1001
   24MOL   C47012936   2.053   3.619   6.711 -0.0562 -0.4342  0.2153
   24MOL   C47112937   2.261   3.486   6.606 -0.3007  1.1611 -0.5606
   24MOL   H47212938   2.207   2.721   6.349  0.2908  0.4236  1.1760
   24MOL   H47312939   2.146   2.880   6.299  0.4723 -0.5812 -0.4425
   24MOL   H47412940   2.039   2.749   6.378  0.8158 -1.6622 -0.9421
   24MOL   H47512941   2.276   2.865   6.526  0.3348 -2.4949 -1.6215
   24MOL   H47612942   2.160   2.767   6.590 -1.1499 -0.2311 -0.4327
   24MOL   H47712943   1.989   2.946   6.580 -0.0499  1.4094 -1.6635
   24MOL   H47812944   2.108   3.058   6.503 -0.7499  0.0293 -0.8062
   24MOL   H47912945   2.249   3.009   6.709  0.0462 -2.1370  0.9894
   24MOL   H48012946   2.116   2.915   6.765  0.3141  0.1926  1.3386
   24MOL   H48112947   1.983   3.138   6.817 -0.2913  0.9636 -1.8943
   24MOL   H48212948   2.136   3.124   6.894 -0.6066 -0.7498 -0.2865
   24MOL   H48312949   1.948   3.614   6.742  0.1306 -4.4811  0.4323
   24MOL   H48412950   2.072   3.695   6.635  1.4202 -1.7183 -0.7177
   24MOL   H48512951   2.110   3.651   6.798 -1.0075  0.9856  0.3542
   24MOL   H48612952   2.251   3.487   6.497 -3.0145  0.0745 -0.3541
   24MOL   H48712953   2.310   3.394   6.637  1.6993  2.4041  0.0607
   24MOL   C48812954   2.312   3.671   7.418  0.0410 -0.1751  0.6292
   24MOL   C48912955   2.299   3.733   7.280  0.3432  0.1213 -0.3743
   24MOL   C49012956   2.415   3.701   7.186  0.2123 -0.3871 -0.2205
   24MOL   C49112957   2.406   3.770   7.051  0.0660 -0.2166 -0.3950
   24MOL   C49212958   2.524   3.717   6.965 -0.2700  0.7420  0.5348
   24MOL   O49312959   2.487   3.699   6.831 -0.5386  0.1330 -1.0220
   24MOL   C49412960   2.403   3.597   6.796  0.6758 -0.6822  0.3318
   24MOL   O49512961   2.348   3.510   6.869 -0.3029 -0.6920 -0.0304
   24MOL   C49612962   2.379   3.591   6.642 -0.2421 -0.9255  0.0222
   24MOL   C49712963   2.331   3.730   6.594  0.2965 -0.5865  0.5927
   24MOL   C49812964   2.515   3.555   6.565 -0.0354 -0.9420 -0.2317
   24MOL   H49912965   2.381   3.707   7.494 -1.9053 -2.2704  3.5363
   24MOL   H50012966   2.214   3.681   7.464 -0.0933  0.4286  0.2150
   24MOL   H50112967   2.322   3.563   7.406  0.0971  0.0352 -1.3484
   24MOL   H50212968   2.264   3.836   7.285  1.7234  0.5562  0.6885
   24MOL   H50312969   2.209   3.690   7.235 -0.8474  0.9338  1.1745
   24MOL   H50412970   2.498   3.754   7.232  0.2390 -0.4847 -0.1540
   24MOL   H50512971   2.424   3.593   7.177 -2.0265 -0.4878 -1.7182
   24MOL   H50612972   2.402   3.879   7.057  1.0201 -0.2669  1.2208
   24MOL   H50712973   2.314   3.737   7.001  1.0702 -1.2773 -1.5793
   24MOL   H50812974   2.610   3.783   6.965  0.2338  0.0999  1.4211
   24MOL   H50912975   2.563   3.619   6.993 -1.4109  0.2788  0.5328
   24MOL   H51012976   2.264   3.773   6.669 -0.0293  1.8927 -1.0586
   24MOL   H51112977   2.277   3.726   6.500  0.4004  0.9527  0.4516
   24MOL   H51212978   2.411   3.804   6.585 -0.0247 -0.4489 -1.2188
   24MOL   H51312979   2.584   3.633   6.596  0.8457 -1.7084 -0.2312
   24MOL   H51412980   2.499   3.567   6.458 -0.4117 -0.4251 -0.1213
   24MOL   C51512981   2.044   3.092   6.085 -0.0942 -0.4186  0.0305
   24MOL   C51612982   2.137   3.197   6.149 -0.0845 -0.7852 -0.0067
   24MOL   C51712983   2.270   3.226   6.077 -0.2921  0.4038 -0.5161
   24MOL   C51812984   2.368   3.319   6.153  0.3341 -0.2613  0.1406
   24MOL   C51912985   2.410   3.255   6.285  0.3967  0.1410  0.2685
   24MOL   O52012986   2.492   3.338   6.365 -0.3552 -0.5671 -0.1454
   24MOL   C52112987   2.516   3.307   6.495  0.3499 -0.0617  0.2065
   24MOL   O52212988   2.471   3.208   6.544 -0.2030  0.4087 -0.0117
   24MOL   C52312989   2.596   3.417   6.568 -0.4339 -0.0449 -0.1316
   24MOL   C52412990   2.630   3.378   6.711  0.7921  0.4183 -0.5453
   24MOL   C52512991   2.733   3.436   6.501  0.2506 -1.0270  0.0975
   24MOL   H52612992   2.098   2.997   6.084  0.7092  0.0390 -2.2140
   24MOL   H52712993   1.947   3.100   6.135 -1.6701 -2.5395 -2.5101
   24MOL   H52812994   2.021   3.114   5.981 -2.9642  1.2720  0.9538
   24MOL   H52912995   2.091   3.293   6.171 -1.8699 -1.3069 -1.3591
   24MOL   H53012996   2.140   3.163   6.253 -1.4633  1.7931  0.9125
   24MOL   H53112997   2.321   3.132   6.054 -0.0649  0.0406  1.3782
   24MOL   H53212998   2.246   3.273   5.982 -0.3871  2.0049  0.2958
   24MOL   H53312999   2.311   3.409   6.177  1.0601 -0.1718  1.5743
   24MOL   H53413000   2.453   3.347   6.091  3.7869  1.4719  5.2763
   24MOL   H53513001   2.325   3.220   6.342 -1.9769 -0.0880 -3.2703
   24MOL   H53613002   2.463   3.163   6.259  2.8662  1.8874 -1.1482
   24MOL   H53713003   2.534   3.356   6.757 -0.2164 -0.4726 -2.9798
   24MOL   H53813004   2.685   3.450   6.770  0.1072  0.3719  0.1568
   24MOL   H53913005   2.686   3.284   6.716  2.8245  1.4237 -3.0461
   24MOL   H54013006   2.795   3.500   6.564 -0.4845  0.1860 -0.3961
   24MOL   H54113007   2.722   3.488   6.406  2.6495 -0.1891  0.2537
   24MOL   H54213008   2.777   3.339   6.480  0.9612 -0.5593 -0.5972
   25MOL     C113009   2.081   5.434   7.664  0.2430  0.5606  0.4523
   25MOL     C213010   2.177   5.380   7.770 -0.1549  0.1676 -0.0770
   25MOL     C313011   2.277   5.279   7.708  0.3278  0.1779 -0.9172
   25MOL     C413012   2.353   5.186   0.002  0.4703 -0.0570  0.0091
   25MOL     C513013   2.464   5.101   7.754  0.1752  0.4418 -0.4953
   25MOL     O613014   2.496   5.008   0.040 -0.5107 -0.3695 -0.4629
   25MOL     C713015   2.604   4.932   0.022  0.6300 -0.2529 -0.0166
   25MOL     O813016   2.672   4.925   7.737 -0.1370 -0.1245 -0.0811
   25MOL     C913017   2.634   4.844   0.145  0.1862  0.1040 -0.3040
   25MOL    C1013018   2.513   4.749   0.167  0.1859  0.2278  0.0173
   25MOL    C1113019   2.669   4.916   0.278 -0.2407 -0.5665  0.1762
   25MOL    H1213020   2.018   5.508   7.714  0.7904  0.6686  0.9902
   25MOL    H1313021   2.013   5.354   7.633 -0.0272 -0.6459  3.9678
   25MOL    H1413022   2.123   5.486   7.578  0.6262  1.0135  0.9084
   25MOL    H1513023   2.232   5.458   0.009 -1.6047  0.1603  1.4829
   25MOL    H1613024   2.119   5.322   0.028 -0.0126  0.5163  0.3213
   25MOL    H1713025   2.230   5.215   7.634 -0.6140  1.2988 -1.3144
   25MOL    H1813026   2.350   5.339   7.652  0.0252  1.1589 -0.2817
   25MOL    H1913027   2.287   5.118   0.056  1.1984  0.0814  1.0877
   25MOL    H2013028   2.386   5.250   0.084  0.8965  0.2427 -0.3967
   25MOL    H2113029   2.425   5.053   7.664 -1.4602 -0.1074  0.5048
   25MOL    H2213030   2.549   5.165   7.727  2.1267 -1.7870  0.1752
   25MOL    H2313031   2.533   4.687   0.254  0.3671  0.9021  0.4617
   25MOL    H2413032   2.486   4.694   0.077 -0.0025 -1.1847  0.9328
   25MOL    H2513033   2.428   4.814   0.187 -1.2418 -0.9930 -1.9609
   25MOL    H2613034   2.656   4.865   0.374  0.3323  1.5205  1.4181
   25MOL    H2713035   2.598   4.998   0.293 -0.4459 -0.5954 -0.6302
   25MOL    H2813036   2.709   4.769   0.118 -0.4968 -0.7518  0.1251
   25MOL    C2913037   2.367   5.013   0.806 -0.3687 -0.1276 -0.5217
   25MOL    C3013038   2.491   5.074   0.732  0.2416 -0.0973  0.6552
   25MOL    C3113039   2.448   5.168   0.613  0.0144 -0.6386  0.5004
   25MOL    C3213040   2.562   5.272   0.569 -0.8078 -0.1290  0.2199
   25MOL    C3313041   2.705   5.206   0.565  0.7038 -0.2266 -0.7047
   25MOL    O3413042   2.713   5.119   0.456  0.2141  0.0958 -0.1891
   25MOL    C3513043   2.828   5.066   0.418  0.3475 -0.9202 -0.0772
   25MOL    O3613044   2.931   5.096   0.478  0.2585  0.0679 -0.2735
   25MOL    C3713045   2.818   4.973   0.296 -0.1801  0.1365  0.1821
   25MOL    C3813046   2.849   5.070   0.182 -0.4100 -0.0496 -0.0154
   25MOL    C3913047   2.925   4.862   0.296  0.6850 -0.3965  0.1005
   25MOL    H4013048   2.402   4.940   0.879  1.8113 -1.0801 -2.4619
   25MOL    H4113049   2.311   5.090   0.859  1.7795  0.2277  1.3385
   25MOL    H4213050   2.301   4.973   0.729 -0.1534 -3.8014  1.1221
   25MOL    H4313051   2.556   4.998   0.690 -0.1803 -0.1231  0.0470
   25MOL    H4413052   2.537   5.133   0.811 -0.0027  0.3937  0.4374
   25MOL    H4513053   2.353   5.219   0.632 -0.5507 -0.6166 -2.1557
   25MOL    H4613054   2.437   5.108   0.523  1.5642  0.7215 -0.6261
   25MOL    H4713055   2.533   5.332   0.483  0.9834 -0.6053 -0.7252
   25MOL    H4813056   2.556   5.352   0.644 -0.7387 -0.8656  1.0213
   25MOL    H4913057   2.729   5.142   0.649  0.6855 -0.0387 -0.5550
   25MOL    H5013058   2.778   5.287   0.561 -0.3218  0.7516 -0.0421
   25MOL    H5113059   2.951   5.108   0.174 -1.1318  1.7907 -0.6869
   25MOL    H5213060   2.786   5.160   0.183 -1.5983 -0.8798  1.1335
   25MOL    H5313061   2.843   5.017   0.087 -0.4581 -1.5690  0.8250
   25MOL    H5413062   3.019   4.915   0.287 -0.1322  0.7590 -1.9450
   25MOL    H5513063   2.913   4.817   0.197 -0.8238  0.7118 -0.2464
   25MOL    C5613064   2.844   4.435   7.607  0.1614  0.2306  0.0517
   25MOL    C5713065   2.918   4.349   7.715  0.8682 -0.3682  0.0672
   25MOL    C5813066   2.915   4.418   0.039 -0.2209 -0.5438 -0.3447
   25MOL    C5913067   2.764   4.444   0.076  0.1334  0.1728  0.1192
   25MOL    C6013068   2.737   4.480   0.226 -0.3196 -0.0285  0.0474
   25MOL    O6113069   2.831   4.584   0.260 -0.2787 -0.2976 -0.3189
   25MOL    C6213070   2.823   4.644   0.382  0.1602  0.9213  0.0917
   25MOL    O6313071   2.742   4.622   0.475  0.3124 -0.0779  0.1832
   25MOL    C6413072   2.938   4.745   0.396 -0.2899  0.1840 -0.0771
   25MOL    C6513073   2.946   4.797   0.536 -0.0160  0.2851  0.3678
   25MOL    C6613074   3.076   4.674   0.366 -0.3067 -0.0958 -0.1123
   25MOL    H6713075   2.737   4.432   7.632  0.2510 -0.7551  0.3738
   25MOL    H6813076   2.869   4.405   7.505  1.9634  3.4543 -0.5223
   25MOL    H6913077   2.887   4.534   7.613 -0.9624  0.6417  1.7786
   25MOL    H7013078   2.874   4.249   7.713 -0.0707  0.0461 -0.4891
   25MOL    H7113079   3.021   4.340   7.681  1.6783  0.6089  2.2235
   25MOL    H7213080   2.959   4.348   0.110 -1.4201 -2.5195 -1.5194
   25MOL    H7313081   2.959   4.518   0.039 -1.3581 -0.0368 -0.6549
   25MOL    H7413082   2.697   4.364   0.044 -0.2263 -0.4310  2.2933
   25MOL    H7513083   2.729   4.530   0.018 -2.3728  0.3786  1.8339
   25MOL    H7613084   2.631   4.506   0.232 -0.9836 -2.6875  0.5777
   25MOL    H7713085   2.773   4.397   0.287 -1.2098 -0.6077 -0.2058
   25MOL    H7813086   2.860   4.852   0.573  0.3996  0.5055  1.0157
   25MOL    H7913087   3.043   4.844   0.552 -0.3534  1.5133 -1.0906
   25MOL    H8013088   2.954   4.718   0.611 -2.4466  0.6825  1.0631
   25MOL    H8113089   3.154   4.750   0.369  0.7176 -0.8667 -4.0041
   25MOL    H8213090   3.081   4.658   0.258 -2.3604  1.5083 -0.4814
   25MOL    C8313091   2.931   4.668   1.124 -0.3646 -0.1425 -0.2784
   25MOL    C8413092   2.866   4.617   0.992 -0.7168  0.3488 -0.2435
   25MOL    C8513093   2.965   4.621   0.874 -0.1375  0.2976 -0.0769
   25MOL    C8613094   3.100   4.564   0.904 -0.5064 -0.2211 -0.0323
   25MOL    C8713095   3.197   4.585   0.791  0.2963  0.6108  0.4148
   25MOL    O8813096   3.145   4.543   0.671 -0.0555 -0.0233  0.7222
   25MOL    C8913097   3.204   4.587   0.560 -0.5208 -1.0619 -0.6106
   25MOL    O9013098   3.303   4.659   0.548  0.0817 -0.3298 -0.4477
   25MOL    C9113099   3.137   4.539   0.427 -0.4469  0.3268 -0.4070
   25MOL    C9213100   3.041   4.422   0.450 -0.3750 -0.0922  0.5289
   25MOL    C9313101   3.254   4.483   0.341  0.3557 -0.0705  0.3184
   25MOL    H9413102   2.977   4.579   1.168  0.1292 -0.3448 -1.1922
   25MOL    H9513103   2.997   4.754   1.115 -0.4195 -0.0818 -0.0966
   25MOL    H9613104   2.846   4.704   1.182 -1.0184  0.9915 -1.9093
   25MOL    H9713105   2.767   4.658   0.972 -1.6185 -0.8042  1.7675
   25MOL    H9813106   2.839   4.513   1.011  2.1763 -0.2657  0.7951
   25MOL    H9913107   2.973   4.725   0.842  1.1064  0.4237  0.5898
   25MOL   H10013108   2.911   4.579   0.790 -1.4214  2.3725 -0.3371
   25MOL   H10113109   3.081   4.458   0.918 -1.7573 -0.0112 -0.0761
   25MOL   H10213110   3.142   4.617   0.990 -1.4971 -0.8859  0.8589
   25MOL   H10313111   3.292   4.532   0.793 -0.4108 -0.6744  0.5241
   25MOL   H10413112   3.207   4.694   0.784  0.0607  0.6475  0.6231
   25MOL   H10513113   2.992   4.382   0.361  0.0265 -0.3157  0.4084
   25MOL   H10613114   2.957   4.450   0.514 -0.8319 -0.6813  0.1878
   25MOL   H10713115   3.092   4.350   0.514  2.0782  1.9990  1.0069
   25MOL   H10813116   3.195   4.452   0.255 -1.4138 -1.6991  2.0511
   25MOL   H10913117   3.322   4.567   0.326 -0.9202  0.7757 -0.7813
   25MOL   C11013118   3.434   3.938   7.646 -0.3594  0.7911 -0.1711
   25MOL   C11113119   3.301   4.013   7.660  0.2456 -0.4009 -0.0179
   25MOL   C11213120   3.278   4.046   7.808  0.4266  0.0826  0.4817
   25MOL   C11313121   3.130   4.083   0.030 -0.0338  0.0137  0.0255
   25MOL   C11413122   3.110   4.124   0.178  0.0855  0.0645 -0.1064
   25MOL   O11513123   3.206   4.226   0.208  0.4362  0.1240 -0.7267
   25MOL   C11613124   3.261   4.222   0.330 -0.0580 -0.1662 -0.1561
   25MOL   O11713125   3.235   4.133   0.414 -0.4429  0.6558 -0.3865
   25MOL   C11813126   3.342   4.354   0.361  0.1372  0.5991  1.1140
   25MOL   C11913127   3.389   4.335   0.511 -0.1747  0.0694 -0.5246
   25MOL   C12013128   3.466   4.377   0.261 -0.2706 -0.3121  0.5700
   25MOL   H12113129   3.526   3.979   7.688  1.2418 -2.4266 -0.4354
   25MOL   H12213130   3.428   3.835   7.681  2.0218  0.9412  0.8097
   25MOL   H12313131   3.461   3.917   7.542 -1.2925 -0.2381 -0.2040
   25MOL   H12413132   3.315   4.107   7.607  0.7453 -0.8169 -0.6311
   25MOL   H12513133   3.214   3.958   7.624  0.9587 -0.0308 -2.3629
   25MOL   H12613134   3.302   3.955   0.049  3.7189 -0.4612 -1.7363
   25MOL   H12713135   3.346   4.126   0.021  0.4809 -0.2014  1.1794
   25MOL   H12813136   3.053   4.013   7.811  0.6647 -0.7953  0.1000
   25MOL   H12913137   3.102   4.177   7.798  0.1338  1.1490  2.1647
   25MOL   H13013138   3.018   4.174   0.206  1.0794  1.4571  0.7748
   25MOL   H13113139   3.114   4.035   0.241 -0.2705 -0.7687 -1.2283
   25MOL   H13213140   3.456   4.417   0.540 -1.5081  0.1534  2.4322
   25MOL   H13313141   3.304   4.325   0.577 -0.2610  0.2353 -0.6082
   25MOL   H13413142   3.446   4.245   0.534  1.5980  0.4238 -3.1845
   25MOL   H13513143   3.422   4.388   0.162  0.8321 -2.5336 -0.2024
   25MOL   H13613144   3.499   4.480   0.277 -0.2737 -0.3786  0.9923
   25MOL   C13713145   4.225   4.289   0.390  0.5619 -0.5169  0.0870
   25MOL   C13813146   4.129   4.210   0.478 -0.2786  0.2749  0.0558
   25MOL   C13913147   4.008   4.291   0.522  0.0656 -0.0781  1.4162
   25MOL   C14013148   3.914   4.198   0.595  0.5967 -0.6848 -0.2527
   25MOL   C14113149   3.770   4.247   0.585 -0.2608  0.1177  0.4677
   25MOL   O14213150   3.709   4.232   0.456 -0.1135 -0.1118 -0.5221
   25MOL   C14313151   3.681   4.335   0.380 -0.4323  0.1560  0.2503
   25MOL   O14413152   3.710   4.448   0.412  0.0126  0.4350  0.2812
   25MOL   C14513153   3.599   4.301   0.252 -0.6959 -0.0265  0.9867
   25MOL   C14613154   3.579   4.145   0.226 -1.3494  0.1357  0.1452
   25MOL   C14713155   3.684   4.376   0.133  0.6477 -0.3705  0.3794
   25MOL   H14813156   4.194   4.331   0.294  0.9621 -0.3625  0.0261
   25MOL   H14913157   4.304   4.216   0.372 -1.8095 -3.2150  0.2359
   25MOL   H15013158   4.263   4.372   0.450  2.5117 -1.1444 -0.2550
   25MOL   H15113159   4.173   4.172   0.570 -2.5080  1.8255  1.8114
   25MOL   H15213160   4.091   4.123   0.424 -1.1195  2.2298 -2.6139
   25MOL   H15313161   4.039   4.375   0.584 -0.1432  1.7182 -0.8592
   25MOL   H15413162   3.959   4.343   0.440  0.9962 -0.3094  0.7075
   25MOL   H15513163   3.903   4.100   0.548  0.0126 -1.2673  1.0653
   25MOL   H15613164   3.939   4.182   0.700 -0.7186 -0.4641  0.0975
   25MOL   H15713165   3.772   4.348   0.624  0.9095  0.3920 -0.2700
   25MOL   H15813166   3.703   4.180   0.639  1.0366 -0.4117  1.4461
   25MOL   H15913167   3.671   4.090   0.210 -0.6343  1.4629 -0.4047
   25MOL   H16013168   3.523   4.117   0.137  1.5762  0.0879 -1.7490
   25MOL   H16113169   3.533   4.108   0.317  2.5151 -0.8263  1.8038
   25MOL   H16213170   3.610   4.385   0.053 -0.8538 -0.5170  1.7148
   25MOL   H16313171   3.693   4.483   0.152 -0.6286  0.0018 -0.9980
   25MOL   C16413172   4.173   3.839   0.294 -0.2384 -0.6855 -0.0746
   25MOL   C16513173   4.083   3.825   0.176  0.0212 -0.7052  0.1204
   25MOL   C16613174   4.113   3.929   0.063  0.6887 -0.6351 -0.1729
   25MOL   C16713175   4.015   3.921   7.752 -0.2706 -0.1018 -0.0251
   25MOL   C16813176   3.875   3.956   7.787 -0.1597 -0.2279 -0.0658
   25MOL   O16913177   3.881   4.086   0.026  0.0762 -0.1349 -0.2767
   25MOL   C17013178   3.784   4.182   0.003 -0.0410 -0.3483 -1.0272
   25MOL   O17113179   3.687   4.178   7.738  0.0298 -0.4119  0.4699
   25MOL   C17213180   3.815   4.312   0.076 -0.6224  0.2140  0.7384
   25MOL   C17313181   3.922   4.293   0.184 -0.3778 -0.7809  0.8608
   25MOL   C17413182   3.862   4.419   7.782 -0.3514  0.0472 -1.4918
   25MOL   H17513183   4.142   3.776   0.378 -0.3767  0.6286  0.8923
   25MOL   H17613184   4.182   3.942   0.329 -1.2804 -0.6186  0.0211
   25MOL   H17713185   4.275   3.814   0.265  0.0728 -0.4809  0.8149
   25MOL   H17813186   3.980   3.830   0.214 -0.5544 -0.4432 -1.4624
   25MOL   H17913187   4.085   3.732   0.121 -0.3350  1.2296 -3.2985
   25MOL   H18013188   4.117   4.029   0.104 -3.3154 -0.5110  0.1067
   25MOL   H18113189   4.210   3.900   0.023  1.0969  0.2387  0.1810
   25MOL   H18213190   4.022   3.823   7.706 -1.7251 -0.2841  0.1187
   25MOL   H18313191   4.054   3.986   7.674 -0.6595 -0.3903 -0.4643
   25MOL   H18413192   3.816   3.903   0.049 -2.3655  1.3011 -0.6610
   25MOL   H18513193   3.806   3.947   7.702 -2.3060  0.4011  1.5535
   25MOL   H18613194   4.022   4.277   0.144 -0.0388  0.1168  1.3320
   25MOL   H18713195   3.903   4.208   0.250  0.3900 -2.4229 -1.0141
   25MOL   H18813196   3.927   4.378   0.252  0.7108 -1.3704  1.5279
   25MOL   H18913197   3.771   4.462   7.738 -0.6319  0.6467 -0.3505
   25MOL   H19013198   3.891   4.502   0.032 -0.4911 -2.0321  1.3513
   25MOL   C19113199   3.773   3.962   7.038 -0.1018 -0.8780  0.1813
   25MOL   C19213200   3.814   4.028   7.167 -0.5877 -0.4182  0.8443
   25MOL   C19313201   3.703   4.034   7.276  0.8191  0.4168 -0.7889
   25MOL   C19413202   3.759   4.076   7.402 -0.1167  0.3253 -0.2074
   25MOL   C19513203   3.794   4.228   7.408  0.2061 -0.8723  0.0403
   25MOL   O19613204   3.829   4.281   7.538  0.2583 -0.3208  0.1531
   25MOL   C19713205   3.956   4.296   7.575  0.5647 -0.2955 -0.5705
   25MOL   O19813206   4.047   4.243   7.515  0.0852 -0.4619  0.5056
   25MOL   C19913207   3.982   4.403   7.683  0.2967 -0.2942 -0.1323
   25MOL   C20013208   4.117   4.361   7.756 -0.0356 -0.0089  1.1989
   25MOL   C20113209   4.022   4.542   7.608  0.4103 -0.6349  0.2209
   25MOL   H20213210   3.852   3.981   6.965 -2.7946 -0.3690 -2.6840
   25MOL   H20313211   3.761   3.853   7.038 -0.4118 -0.8621 -1.5826
   25MOL   H20413212   3.679   4.004   7.005 -0.3592  0.3064  2.3101
   25MOL   H20513213   3.837   4.131   7.139 -0.4055 -0.6794  0.0211
   25MOL   H20613214   3.904   3.978   7.202  1.2808  1.6209 -0.8751
   25MOL   H20713215   3.667   3.932   7.287 -0.7023  0.8496 -1.6663
   25MOL   H20813216   3.618   4.096   7.246 -0.8285  0.2737  3.1652
   25MOL   H20913217   3.704   4.047   7.492 -1.2168 -0.9512 -1.2764
   25MOL   H21013218   3.848   4.018   7.427 -0.4487  0.3346  1.0659
   25MOL   H21113219   3.871   4.247   7.333 -0.2728  0.3593 -0.1488
   25MOL   H21213220   3.709   4.291   7.382 -0.5686 -1.6938  0.5423
   25MOL   H21313221   4.150   4.423   0.026 -0.8732  2.1081  0.0028
   25MOL   H21413222   4.197   4.396   7.691  0.4031 -1.1892  1.1002
   25MOL   H21513223   4.131   4.255   7.779  1.9031  0.3118  1.6106
   25MOL   H21613224   4.096   4.513   7.533 -0.0955  1.7845 -1.2752
   25MOL   H21713225   4.085   4.598   7.677  1.1369 -1.6784  0.4212
   25MOL   C21813226   4.071   4.747   0.522  0.7967  0.3515 -0.0141
   25MOL   C21913227   4.139   4.740   0.380 -0.6590 -0.3053  0.0867
   25MOL   C22013228   4.043   4.712   0.259 -0.4947 -0.2408 -0.2808
   25MOL   C22113229   3.962   4.828   0.204  0.4276  0.8464 -0.5556
   25MOL   C22213230   3.872   4.795   0.084  0.9804 -0.1944  0.1322
   25MOL   O22313231   3.930   4.762   7.776 -0.3004  0.7024  0.5459
   25MOL   C22413232   3.841   4.716   7.683 -0.0009  0.7863 -0.3542
   25MOL   O22513233   3.718   4.720   7.692  0.1691 -0.3127 -0.4327
   25MOL   C22613234   3.919   4.652   7.560  0.1759  0.2328  0.7532
   25MOL   C22713235   3.815   4.584   7.467 -0.0491  0.2279 -0.1128
   25MOL   C22813236   4.004   4.765   7.484  0.2952  0.3497  0.0760
   25MOL   H22913237   4.038   4.652   0.565  0.6383  0.1495 -0.5752
   25MOL   H23013238   4.134   4.794   0.598  0.2468 -0.1066  0.7332
   25MOL   H23113239   3.992   4.821   0.534 -1.4613 -1.9518 -0.3143
   25MOL   H23213240   4.218   4.665   0.385 -0.2521  0.0761 -0.6851
   25MOL   H23313241   4.193   4.831   0.356  0.4464 -0.6159  1.3094
   25MOL   H23413242   3.980   4.626   0.283  3.1729 -2.5101  1.5749
   25MOL   H23513243   4.108   4.665   0.186  1.3468  0.9160  0.5686
   25MOL   H23613244   3.891   4.859   0.281  0.4842  1.7996 -0.8848
   25MOL   H23713245   4.018   4.918   0.178  1.8769 -0.2539 -1.3417
   25MOL   H23813246   3.819   4.886   0.057 -0.5061 -0.9370  0.4938
   25MOL   H23913247   3.795   4.724   0.117 -0.3171  0.8551 -0.6089
   25MOL   H24013248   3.751   4.667   7.439 -1.6227  0.0433  2.7468
   25MOL   H24113249   3.754   4.510   7.521  1.7924 -1.2426  0.0037
   25MOL   H24213250   3.862   4.542   7.378  0.9071 -0.2612  0.6168
   25MOL   H24313251   4.074   4.706   7.424  2.1645  0.4792  2.0463
   25MOL   H24413252   4.064   4.808   7.565  0.0132  2.4137 -0.7803
   25MOL   C24513253   4.047   5.521   7.600  0.5266 -0.1150 -0.1918
   25MOL   C24613254   3.984   5.426   7.701 -0.4131 -0.2478  0.3351
   25MOL   C24713255   3.909   5.313   7.628  0.2016  0.1099 -0.2905
   25MOL   C24813256   3.847   5.205   7.721 -0.1846  0.1536  0.0356
   25MOL   C24913257   3.774   5.092   7.640 -0.1380  0.3457  0.4788
   25MOL   O25013258   3.865   5.024   7.565 -0.3125  0.4936 -0.2993
   25MOL   C25113259   3.832   4.950   7.456 -0.7746  0.4809 -0.5618
   25MOL   O25213260   3.719   4.944   7.419  0.1781  0.0531 -0.2035
   25MOL   C25313261   3.949   4.875   7.387 -0.3648  0.0271  0.3431
   25MOL   C25413262   3.907   4.820   7.250 -0.2762  0.5513  0.3385
   25MOL   C25513263   4.078   4.976   7.370  0.0625 -0.8554  0.3744
   25MOL   H25613264   3.963   5.573   7.555 -0.7212 -1.3876  0.6122
   25MOL   H25713265   4.115   5.591   7.647 -0.0300 -0.0360  0.5025
   25MOL   H25813266   4.106   5.470   7.524  0.8086  1.7323 -1.2467
   25MOL   H25913267   4.048   5.378   7.774 -0.5590  0.6805  1.0973
   25MOL   H26013268   3.914   5.487   7.758  0.5777  0.0663  1.2381
   25MOL   H26113269   3.975   5.261   7.558  1.1887  0.6730  0.2125
   25MOL   H26213270   3.829   5.345   7.561 -1.1222 -0.7423  0.8642
   25MOL   H26313271   3.919   5.170   7.796 -0.4421 -1.5704 -0.4945
   25MOL   H26413272   3.770   5.257   7.777  2.3462  2.3456  1.5948
   25MOL   H26513273   3.723   5.033   7.716  1.0248 -0.8066  0.3759
   25MOL   H26613274   3.686   5.134   7.591 -0.8457 -1.8125 -0.1666
   25MOL   H26713275   3.982   4.755   7.204  1.1202  1.8772  0.7070
   25MOL   H26813276   3.821   4.754   7.251 -0.8607  1.2823 -0.5963
   25MOL   H26913277   3.890   4.898   7.176  0.1770 -0.3648 -0.7570
   25MOL   H27013278   4.092   5.019   7.470 -1.1806 -0.0064  0.1919
   25MOL   H27113279   4.168   4.915   7.359  0.9402  0.5262 -0.2565
   25MOL   C27213280   4.083   4.496   6.823  0.5828 -0.3995  0.0409
   25MOL   C27313281   4.003   4.624   6.857  0.9613  0.3368  0.1671
   25MOL   C27413282   4.091   4.756   6.871 -0.2046  0.4704  0.5292
   25MOL   C27513283   4.207   4.747   6.972 -0.1342  0.0685 -0.5552
   25MOL   C27613284   4.267   4.879   7.022  0.5621  0.0158  0.0352
   25MOL   O27713285   4.198   4.934   7.133  0.0245  0.0129  0.2581
   25MOL   C27813286   4.114   5.027   7.119  0.7026 -0.1590  0.2300
   25MOL   O27913287   4.071   5.056   7.010  0.2019  0.5524 -0.2791
   25MOL   C28013288   4.080   5.090   7.260  0.5799  0.0772 -0.5449
   25MOL   C28113289   3.942   5.162   7.237  0.3646 -0.3523 -0.1172
   25MOL   C28213290   4.197   5.190   7.306  0.2805 -0.5635  0.4014
   25MOL   H28313291   4.167   4.497   6.892  0.6066 -0.6858  0.0141
   25MOL   H28413292   4.036   4.404   6.859 -0.4018  0.5257  1.1739
   25MOL   H28513293   4.124   4.484   6.723 -0.4919 -2.4307 -0.1812
   25MOL   H28613294   3.931   4.633   6.776  0.9047  1.6892  0.3640
   25MOL   H28713295   3.944   4.594   6.943  1.7010  1.2765  1.0131
   25MOL   H28813296   4.131   4.774   6.771 -0.4533 -1.2204  0.1168
   25MOL   H28913297   4.025   4.834   6.908 -3.3891 -1.3828 -0.9695
   25MOL   H29013298   4.170   4.693   7.059 -0.8824 -0.3777 -1.1480
   25MOL   H29113299   4.267   4.694   6.899  1.9686  0.6537  0.7026
   25MOL   H29213300   4.268   4.948   6.937 -2.3958 -0.4375 -0.4341
   25MOL   H29313301   4.366   4.843   7.048  2.3986  2.9014 -2.5570
   25MOL   H29413302   3.915   5.231   7.317 -1.4636  1.7128 -2.4533
   25MOL   H29513303   3.943   5.223   7.147  0.3644 -1.7358 -1.0817
   25MOL   H29613304   3.857   5.095   7.223 -0.1931 -0.4171  3.0801
   25MOL   H29713305   4.149   5.230   7.395 -1.6863 -0.9587 -0.4617
   25MOL   H29813306   4.277   5.131   7.350  0.6060  0.6624  1.4654
   25MOL   C29913307   4.836   5.714   7.043 -0.0611 -0.1750 -0.2520
   25MOL   C30013308   4.792   5.573   7.080 -0.8077  0.1896  0.6595
   25MOL   C30113309   4.640   5.533   7.051  0.1196 -0.7604 -0.6325
   25MOL   C30213310   4.628   5.394   6.995  0.4650 -0.1882  0.3166
   25MOL   C30313311   4.488   5.358   6.949 -0.4908 -0.3769  0.0685
   25MOL   O30413312   4.404   5.382   7.058  0.3348 -0.3471 -0.2665
   25MOL   C30513313   4.355   5.274   7.131  1.2454 -0.2757 -0.4488
   25MOL   O30613314   4.390   5.154   7.122 -0.0608  0.6304 -0.3418
   25MOL   C30713315   4.253   5.317   7.232  0.8429 -0.1134 -0.1042
   25MOL   C30813316   4.141   5.397   7.153 -0.3074  0.1663 -0.1750
   25MOL   C30913317   4.326   5.418   7.332 -0.6438  0.0609  0.3317
   25MOL   H31013318   4.936   5.732   7.080 -0.8297 -0.8666  2.2571
   25MOL   H31113319   4.772   5.795   7.080  1.7539  0.9916  0.3727
   25MOL   H31213320   4.838   5.711   6.934 -0.4590  0.8186 -0.2925
   25MOL   H31313321   4.807   5.555   7.187  2.3898 -2.6428 -0.1378
   25MOL   H31413322   4.867   5.507   7.035 -1.2925  0.7094 -0.9475
   25MOL   H31513323   4.599   5.595   6.971  1.6309  1.6128  0.3883
   25MOL   H31613324   4.579   5.549   7.140  1.8761 -2.3269  0.8957
   25MOL   H31713325   4.644   5.324   7.077  1.9655 -0.8834 -0.5386
   25MOL   H31813326   4.698   5.368   6.915  0.6518 -1.3143  0.8283
   25MOL   H31913327   4.465   5.406   6.854 -0.1550  2.0324  1.1722
   25MOL   H32013328   4.488   5.253   6.922  0.8479 -0.2825 -0.3809
   25MOL   H32113329   4.106   5.339   7.068 -0.2652 -1.5802  0.9732
   25MOL   H32213330   4.056   5.423   7.217  1.3723  2.7237  1.1193
   25MOL   H32313331   4.177   5.493   7.118 -0.3602 -0.4811 -2.0323
   25MOL   H32413332   4.253   5.474   7.390 -0.0812  0.1976  0.9169
   25MOL   H32513333   4.366   5.503   7.278  0.0907 -0.7953 -0.4925
   25MOL   C32613334   4.276   6.111   7.337 -0.3399  0.1838  0.6018
   25MOL   C32713335   4.421   6.090   7.331 -0.1406 -0.1285  0.2133
   25MOL   C32813336   4.482   5.983   7.421 -0.4524  0.2644 -0.0440
   25MOL   C32913337   4.460   5.837   7.385 -0.2230 -0.1450 -0.2238
   25MOL   C33013338   4.549   5.751   7.469  0.3493 -0.5729 -0.1663
   25MOL   O33113339   4.532   5.612   7.443  0.2191 -0.1127  0.1271
   25MOL   C33213340   4.462   5.526   7.514 -0.5958 -0.0099 -0.4191
   25MOL   O33313341   4.400   5.560   7.614 -0.3571 -0.2439 -0.1104
   25MOL   C33413342   4.436   5.389   7.441 -0.0855 -0.6004  1.5011
   25MOL   C33513343   4.382   5.293   7.549  0.2970  0.0041 -0.6969
   25MOL   C33613344   4.570   5.338   7.374 -0.1958 -0.0627  0.2349
   25MOL   H33713345   4.256   6.187   7.261 -0.7418 -0.4565  0.0634
   25MOL   H33813346   4.247   6.140   7.439 -1.9387 -3.1355  1.1470
   25MOL   H33913347   4.218   6.022   7.312  2.4161 -1.1124 -1.3801
   25MOL   H34013348   4.473   6.186   7.339  1.6033 -1.0722  0.3723
   25MOL   H34113349   4.447   6.065   7.228 -0.9352 -1.8213  0.4173
   25MOL   H34213350   4.451   5.999   7.524 -1.3157  3.2747 -0.6934
   25MOL   H34313351   4.588   6.008   7.420 -0.3021 -0.3732  0.3760
   25MOL   H34413352   4.477   5.818   7.279  0.9707 -4.0073  0.5948
   25MOL   H34513353   4.357   5.830   7.420 -0.5563  0.3524 -1.1042
   25MOL   H34613354   4.538   5.773   7.575 -0.2989  1.9580 -0.7160
   25MOL   H34713355   4.654   5.763   7.442  0.4667 -0.4573  0.3397
   25MOL   H34813356   4.419   5.307   7.650 -0.5145  0.2826 -0.4368
   25MOL   H34913357   4.381   5.186   7.524 -2.1590 -0.1779  0.0522
   25MOL   H35013358   4.278   5.321   7.564  0.8774  2.1705 -0.5477
   25MOL   H35113359   4.588   5.414   7.298 -1.9443  1.2222  1.0616
   25MOL   H35213360   4.545   5.256   7.306 -0.0591 -0.9023  1.1904
   25MOL   C35313361   4.360   4.518   7.348 -0.7782  0.0503 -0.0787
   25MOL   C35413362   4.368   4.665   7.319  0.1051 -0.3589  0.1920
   25MOL   C35513363   4.467   4.729   7.423 -0.4347  0.2296 -0.2512
   25MOL   C35613364   4.501   4.875   7.381  0.1263 -0.4889 -0.2389
   25MOL   C35713365   4.578   4.953   7.495 -1.0244 -0.7624 -0.0008
   25MOL   O35813366   4.635   5.074   7.436  0.1424 -0.9766  0.9876
   25MOL   C35913367   4.681   5.163   7.521  0.3344 -0.0493 -0.2021
   25MOL   O36013368   4.691   5.140   7.642 -0.3914  0.4575  0.3104
   25MOL   C36113369   4.711   5.307   7.448 -0.1410 -0.4068 -0.7618
   25MOL   C36213370   4.741   5.406   7.554 -0.2298  0.5340  0.4078
   25MOL   C36313371   4.824   5.295   7.338  0.2303  0.6166  0.1665
   25MOL   H36413372   4.289   4.478   7.275 -0.2732 -2.2673  0.6484
   25MOL   H36513373   4.313   4.503   7.445  0.2993  0.6030  0.5453
   25MOL   H36613374   4.455   4.467   7.328 -0.1401  0.2601  2.3103
   25MOL   H36713375   4.398   4.677   7.215  0.0706 -1.2174  0.0728
   25MOL   H36813376   4.267   4.706   7.326  0.5593  0.6683  0.8513
   25MOL   H36913377   4.566   4.683   7.427 -0.7538 -0.5220 -0.9017
   25MOL   H37013378   4.416   4.731   7.519  0.2778  1.4871  0.1192
   25MOL   H37113379   4.408   4.926   7.353  1.2629  1.0582 -1.3228
   25MOL   H37213380   4.555   4.866   7.287 -0.5764 -0.9516 -0.6094
   25MOL   H37313381   4.515   4.968   7.583 -0.4010 -0.4982  0.4023
   25MOL   H37413382   4.661   4.896   7.536 -1.1258  1.7281  3.9328
   25MOL   H37513383   4.837   5.396   7.604 -0.0774 -1.5094 -0.2397
   25MOL   H37613384   4.753   5.508   7.515  1.2350 -0.3173 -1.4751
   25MOL   H37713385   4.675   5.411   7.640  0.2287  2.9690  0.6744
   25MOL   H37813386   4.791   5.206   7.284 -0.0329 -0.1515  1.5590
   25MOL   H37913387   4.808   5.375   7.266  0.4653 -0.0020 -0.5836
   25MOL   C38013388   5.455   5.910   7.210 -0.0664 -0.2477 -1.1285
   25MOL   C38113389   5.365   5.789   7.177 -0.3485  0.1353  0.6195
   25MOL   C38213390   5.234   5.792   7.248 -0.2402 -0.0275 -0.5951
   25MOL   C38313391   5.166   5.655   7.233  0.1620  0.4340 -0.6329
   25MOL   C38413392   5.064   5.636   7.348  0.0658 -0.8328 -0.4538
   25MOL   O38513393   5.008   5.513   7.317 -0.0234  0.5249  0.1096
   25MOL   C38613394   5.031   5.409   7.406  0.0367  0.4189 -0.0290
   25MOL   O38713395   5.092   5.422   7.514 -0.0053  0.0121  0.5926
   25MOL   C38813396   4.972   5.273   7.363  0.3552 -0.4220  1.1782
   25MOL   C38913397   4.990   5.161   7.469 -0.1919 -0.2681 -0.9355
   25MOL   C39013398   5.040   5.231   7.227 -0.5369 -1.3267 -0.0339
   25MOL   H39113399   5.533   5.940   7.141  1.5005 -0.1577  0.6262
   25MOL   H39213400   5.398   6.003   7.213  3.3489  1.9522 -0.5830
   25MOL   H39313401   5.497   5.898   7.310  0.3307 -0.1340 -1.2799
   25MOL   H39413402   5.414   5.695   7.202  0.6325  0.8269  1.3738
   25MOL   H39513403   5.349   5.786   7.069  0.4700  1.9835  0.4235
   25MOL   H39613404   5.246   5.811   7.354 -1.4119 -1.1575 -0.2425
   25MOL   H39713405   5.169   5.878   7.230  0.8609  0.9620  0.1272
   25MOL   H39813406   5.130   5.642   7.131  0.9016 -0.8071 -0.7425
   25MOL   H39913407   5.247   5.584   7.249  1.0277  1.9709  2.1705
   25MOL   H40013408   4.996   5.721   7.351  1.1030  0.0051 -0.4864
   25MOL   H40113409   5.119   5.650   7.441 -0.6308 -1.8000  0.1097
   25MOL   H40213410   4.944   5.065   7.447  1.3032 -1.0043 -0.9758
   25MOL   H40313411   4.936   5.190   7.559  1.9958 -0.2883  0.4224
   25MOL   H40413412   5.095   5.141   7.491  0.2395 -1.8175 -4.1000
   25MOL   H40513413   5.017   5.309   7.154 -0.2744 -0.8556  0.3855
   25MOL   H40613414   4.988   5.149   7.179 -0.4419 -1.0961 -0.5438
   25MOL   C40713415   5.552   5.688   6.810 -0.1895  0.5959 -0.6845
   25MOL   C40813416   5.549   5.549   6.745  0.1231 -0.6249 -0.4045
   25MOL   C40913417   5.622   5.431   6.822 -0.1930  0.1180  0.6791
   25MOL   C41013418   5.550   5.388   6.950  0.2411 -0.3890 -0.6445
   25MOL   C41113419   5.427   5.297   6.930  0.7723 -0.2301 -0.0439
   25MOL   O41213420   5.377   5.254   7.056  0.1370  0.4594 -0.3549
   25MOL   C41313421   5.243   5.240   7.068 -0.0257  0.7114 -0.1768
   25MOL   O41413422   5.161   5.247   6.975 -0.4734  0.1173 -0.2443
   25MOL   C41513423   5.195   5.190   7.211  0.0890 -0.6175  0.3353
   25MOL   C41613424   5.289   5.263   7.308 -0.4771 -0.1039 -0.2491
   25MOL   C41713425   5.211   5.036   7.244 -0.1642 -0.2371  0.4614
   25MOL   H41813426   5.479   5.753   6.760 -0.9169 -0.0944 -0.5280
   25MOL   H41913427   5.537   5.692   6.918 -0.0844  1.0005 -0.6848
   25MOL   H42013428   5.643   5.743   6.787  1.9525 -3.1705 -1.5303
   25MOL   H42113429   5.591   5.549   6.645 -1.9618 -0.4192 -1.3109
   25MOL   H42213430   5.445   5.519   6.729  0.0206 -0.4016 -0.1541
   25MOL   H42313431   5.636   5.341   6.762  3.9311  0.3011  1.1740
   25MOL   H42413432   5.721   5.472   6.842  0.4983 -0.1244 -2.1287
   25MOL   H42513433   5.516   5.470   7.013  3.6622 -1.4209  2.7509
   25MOL   H42613434   5.621   5.336   7.014 -0.9326 -1.6482 -0.3395
   25MOL   H42713435   5.346   5.357   6.887 -0.9217 -1.9608  0.6706
   25MOL   H42813436   5.448   5.206   6.873 -2.4510 -0.8139 -0.3676
   25MOL   H42913437   5.271   5.371   7.308 -2.6865 -0.3818  2.6444
   25MOL   H43013438   5.393   5.238   7.288 -0.1938  0.5122  0.3957
   25MOL   H43113439   5.271   5.230   7.411 -1.8401  0.5712 -0.2634
   25MOL   H43213440   5.130   5.011   7.312  0.2198  0.0979  1.0469
   25MOL   H43313441   5.296   5.017   7.310 -0.4050 -0.9714  0.5632
   25MOL   C43413442   5.905   4.732   7.357  0.0553 -0.1202 -0.0456
   25MOL   C43513443   5.752   4.752   7.367  0.1486  0.0701 -0.2524
   25MOL   C43613444   5.702   4.881   7.307  0.3188  0.0838 -0.1634
   25MOL   C43713445   5.698   4.870   7.157  0.5057  0.0428 -0.2114
   25MOL   C43813446   5.596   4.966   7.082 -0.4299 -0.0508 -0.1570
   25MOL   O43913447   5.462   4.939   7.135 -1.1171 -0.1515 -0.2888
   25MOL   C44013448   5.354   4.936   7.055  0.3956 -0.3884  0.3757
   25MOL   O44113449   5.362   4.948   6.932  0.2479  0.1293 -0.4214
   25MOL   C44213450   5.219   4.924   7.131 -0.3357  0.0319 -0.2472
   25MOL   C44313451   5.101   4.930   7.030  0.0890 -0.3371  0.8201
   25MOL   C44413452   5.231   4.786   7.205  0.1030  0.8064 -0.5664
   25MOL   H44513453   5.944   4.650   7.417 -0.3587  0.0269  0.4302
   25MOL   H44613454   5.944   4.705   7.259 -0.2461 -1.8140  0.2972
   25MOL   H44713455   5.950   4.830   7.374  0.7155 -0.2014 -1.2341
   25MOL   H44813456   5.699   4.674   7.312  1.9416 -1.2549 -0.1462
   25MOL   H44913457   5.721   4.751   7.472 -1.2363 -0.8692 -0.6485
   25MOL   H45013458   5.603   4.906   7.344  0.3003  0.3031 -0.3591
   25MOL   H45113459   5.774   4.959   7.336  1.6322 -1.5392  1.0348
   25MOL   H45213460   5.662   4.774   7.121 -2.6517  0.3548  1.9061
   25MOL   H45313461   5.799   4.892   7.122  0.2485  3.4975  1.0271
   25MOL   H45413462   5.607   4.939   6.976 -1.1353  1.6847 -0.6886
   25MOL   H45513463   5.625   5.071   7.075 -0.5512  0.1214  1.8831
   25MOL   H45613464   5.013   4.919   7.093  0.5595  0.0969  1.5616
   25MOL   H45713465   5.092   5.025   6.977 -1.7793 -1.3275 -0.6858
   25MOL   H45813466   5.106   4.853   6.953  2.6222  0.3735  0.2356
   25MOL   H45913467   5.331   4.787   7.249  0.1997  0.7030 -0.7839
   25MOL   H46013468   5.234   4.706   7.131 -0.9171 -2.9854  3.2709
   25MOL   C46113469   4.660   4.382   6.806 -0.4135  0.2740 -0.3440
   25MOL   C46213470   4.596   4.403   6.944 -0.0772 -0.3839  0.0282
   25MOL   C46313471   4.633   4.538   7.014  0.8933 -0.2599  0.1200
   25MOL   C46413472   4.780   4.542   7.064 -0.1069  0.3870 -0.9168
   25MOL   C46513473   4.820   4.675   7.125 -0.5191  0.2417  0.1930
   25MOL   O46613474   4.953   4.673   7.176  0.3614 -0.0749 -0.0998
   25MOL   C46713475   4.988   4.740   7.291 -0.3973 -0.1065 -0.0766
   25MOL   O46813476   4.910   4.811   7.358 -0.7284 -0.3863 -0.2776
   25MOL   C46913477   5.141   4.735   7.325  0.0305 -1.4034  0.0211
   25MOL   C47013478   5.160   4.808   7.468 -0.9629  0.6490 -0.3335
   25MOL   C47113479   5.192   4.587   7.351 -0.3492  0.3453  0.0547
   25MOL   H47213480   4.769   4.375   6.814 -0.1675  2.1466 -1.5612
   25MOL   H47313481   4.637   4.470   6.746 -3.3435  0.9669  1.6749
   25MOL   H47413482   4.618   4.298   6.751 -1.6459 -1.2564  2.8209
   25MOL   H47513483   4.632   4.327   7.014  4.2513 -0.0164 -1.5975
   25MOL   H47613484   4.489   4.392   6.931 -0.7991  2.9649  2.6896
   25MOL   H47713485   4.573   4.542   7.105 -1.6226  1.8113 -1.5464
   25MOL   H47813486   4.607   4.626   6.955  5.7615 -0.6925 -2.9324
   25MOL   H47913487   4.850   4.511   6.985  0.7613  0.6678 -0.2643
   25MOL   H48013488   4.790   4.460   7.135  3.9034  0.1451 -1.5938
   25MOL   H48113489   4.814   4.759   7.056  0.6013 -1.0351 -1.4779
   25MOL   H48213490   4.759   4.683   7.215  1.0154 -1.4839  1.4390
   25MOL   H48313491   5.080   4.811   7.542 -0.5507 -0.9160  0.1827
   25MOL   H48413492   5.190   4.913   7.472 -1.3942  0.7340  0.7008
   25MOL   H48513493   5.251   4.763   7.508 -1.7942 -0.5151  0.2351
   25MOL   H48613494   5.296   4.603   7.381  0.7276 -0.9923 -2.6984
   25MOL   H48713495   5.197   4.531   7.257 -0.8883 -0.6152  0.5858
   25MOL   C48813496   4.435   4.585   7.783 -0.0887  0.0134  0.0514
   25MOL   C48913497   4.570   4.649   0.006 -0.4662 -0.2658  0.2809
   25MOL   C49013498   4.698   4.579   7.777  0.0622 -0.1582  0.2909
   25MOL   C49113499   4.815   4.678   7.776 -0.6136  0.0385  0.0101
   25MOL   C49213500   4.962   4.623   7.765  0.6630  0.5058 -0.4680
   25MOL   O49313501   4.986   4.580   7.627  0.6373 -0.1838 -0.1250
   25MOL   C49413502   5.110   4.534   7.593  0.0094  0.1964 -0.1325
   25MOL   O49513503   5.202   4.538   7.676 -0.4162  0.4442  0.8065
   25MOL   C49613504   5.132   4.480   7.448 -0.6953 -0.2777 -0.7946
   25MOL   C49713505   5.230   4.358   7.448 -0.2212 -0.1839  0.5706
   25MOL   C49813506   4.998   4.421   7.394  0.2194  0.0295  0.1199
   25MOL   H49913507   4.450   4.528   7.691  0.4654 -0.7737  0.6215
   25MOL   H50013508   4.416   4.513   0.049 -1.6878  1.4089  0.9351
   25MOL   H50113509   4.349   4.651   7.780 -1.5854 -1.9074 -0.5951
   25MOL   H50213510   4.581   4.628   0.113  0.1708  1.1575  0.5137
   25MOL   H50313511   4.581   4.757   7.806  0.4633 -0.3985 -0.0690
   25MOL   H50413512   4.723   4.488   0.018 -0.6521  0.3007  1.3827
   25MOL   H50513513   4.683   4.539   7.677  2.5021 -0.4049 -0.0003
   25MOL   H50613514   4.809   4.737   0.053  2.1273 -0.0346  0.2772
   25MOL   H50713515   4.790   4.751   7.699 -2.3155 -1.0777 -0.5133
   25MOL   H50813516   5.039   4.696   7.788 -0.0041  0.4462  2.1106
   25MOL   H50913517   4.983   4.540   0.018  1.9293  0.3638 -1.0061
   25MOL   H51013518   5.334   4.390   7.457 -0.9963  2.5469  0.3898
   25MOL   H51113519   5.223   4.308   7.352 -3.5986 -0.7939  1.0746
   25MOL   H51213520   5.217   4.290   7.532 -0.6964 -0.9735 -0.1433
   25MOL   H51313521   5.018   4.423   7.286  1.5486  1.9245  0.3679
   25MOL   H51413522   4.920   4.495   7.406  1.6050  1.5198  0.1961
   25MOL   C51513523   4.691   4.012   6.915  0.2226  0.4842  0.1788
   25MOL   C51613524   4.837   4.053   6.912 -0.1872 -0.5421  0.4446
   25MOL   C51713525   4.903   4.028   7.043  0.3611 -0.4667  0.6055
   25MOL   C51813526   5.049   4.068   7.050 -0.0598  0.3360 -0.5132
   25MOL   C51913527   5.118   4.066   7.194  0.2387  0.3099 -0.8075
   25MOL   O52013528   5.056   4.169   7.266 -0.2973 -0.4255  0.0594
   25MOL   C52113529   5.014   4.160   7.391  0.6515  0.0491  0.5309
   25MOL   O52213530   5.045   4.067   7.465  0.3028 -0.7021 -0.5265
   25MOL   C52313531   4.934   4.280   7.443 -0.3573 -0.0051 -0.0757
   25MOL   C52413532   4.783   4.263   7.385 -0.0011  0.5655  0.5349
   25MOL   C52513533   4.919   4.273   7.593  0.4407  0.1137 -0.6166
   25MOL   H52613534   4.644   4.056   7.003  0.0041 -0.3910  0.5139
   25MOL   H52713535   4.650   4.065   6.829  1.8213 -0.1086 -0.9622
   25MOL   H52813536   4.682   3.903   6.918  1.0939  0.4427  1.7886
   25MOL   H52913537   4.892   3.993   6.839 -0.7059 -2.6678  1.7828
   25MOL   H53013538   4.839   4.153   6.867 -2.3984 -0.7013 -0.1158
   25MOL   H53113539   4.851   4.072   7.128 -0.4892  0.9251 -0.6235
   25MOL   H53213540   4.895   3.924   7.078 -1.8169 -1.1495 -1.7358
   25MOL   H53313541   5.069   4.169   7.015  0.2571 -0.2007 -1.9574
   25MOL   H53413542   5.120   4.004   6.997 -1.2307  0.2321 -2.0210
   25MOL   H53513543   5.110   3.971   7.246 -3.3611  2.2467  2.4965
   25MOL   H53613544   5.222   4.094   7.181  0.7652 -2.2586 -2.4127
   25MOL   H53713545   4.780   4.249   7.277  2.8606 -0.6065  0.5582
   25MOL   H53813546   4.724   4.346   7.425 -2.1095 -0.4402 -0.4187
   25MOL   H53913547   4.736   4.170   7.417  1.5680 -0.2012  0.6736
   25MOL   H54013548   5.009   4.246   7.649  0.3111 -0.3831 -0.6371
   25MOL   H54113549   4.843   4.194   7.597 -0.0454  0.5428 -1.4378
   25MOL   H54213550   4.868   4.360   7.635  0.0211 -0.2894 -0.2681
   26MOL     C113551   7.316   1.209   0.174 -0.7491  0.4233  0.3761
   26MOL     C213552   7.195   1.306   0.193 -0.5098  0.2503  0.3569
   26MOL     C313553   7.086   1.287   0.087 -0.2246  0.6150 -0.3721
   26MOL     C413554   7.005   1.422   0.071 -0.2804 -0.1053  0.1434
   26MOL     C513555   6.919   1.420   7.758  0.0434  0.7738  0.3762
   26MOL     O613556   6.994   1.423   7.643  0.1831 -0.4814 -0.9887
   26MOL     C713557   7.003   1.319   7.562  0.3952 -0.0073 -0.2547
   26MOL     O813558   6.945   1.211   7.569  0.5355  0.4247  0.5954
   26MOL     C913559   7.116   1.344   7.458  0.0395 -0.3158  0.3199
   26MOL    C1013560   7.087   1.470   7.373 -0.1547  0.5402  0.3705
   26MOL    C1113561   7.152   1.226   7.361  0.3415  0.0729  0.1897
   26MOL    H1213562   7.393   1.234   0.248  1.4477 -1.2958 -1.2381
   26MOL    H1313563   7.363   1.219   0.076 -1.7638  0.3074 -0.1283
   26MOL    H1413564   7.289   1.107   0.202  2.8049 -0.9899 -1.0291
   26MOL    H1513565   7.152   1.296   0.293  1.8660 -1.1363  1.2717
   26MOL    H1613566   7.232   1.408   0.185 -3.3593  1.1611 -2.0984
   26MOL    H1713567   7.144   1.272   7.810  1.2221  0.5194  0.5547
   26MOL    H1813568   7.019   1.201   0.093  0.6484 -0.1990 -2.0927
   26MOL    H1913569   7.072   1.507   0.070 -0.6184  0.1625 -0.4262
   26MOL    H2013570   6.946   1.439   0.161 -0.2315 -4.4411  1.1286
   26MOL    H2113571   6.854   1.332   7.763  2.0060 -0.6821  1.1143
   26MOL    H2213572   6.847   1.502   7.757  0.4946  1.1675  0.0568
   26MOL    H2313573   7.100   1.563   7.428  3.6876  0.4459 -0.2395
   26MOL    H2413574   6.987   1.464   7.330  0.1121 -0.9615 -0.0612
   26MOL    H2513575   7.163   1.498   7.299  0.0336  0.0143  0.3602
   26MOL    H2613576   7.134   1.266   7.261 -0.5742 -2.2819 -0.6422
   26MOL    H2713577   7.083   1.146   7.389 -0.0764  0.3097 -0.1481
   26MOL    H2813578   7.203   1.366   7.520  0.0026  3.0405 -0.6808
   26MOL    C2913579   7.399   0.556   7.798  0.2345  0.0916  0.7247
   26MOL    C3013580   7.245   0.577   7.801 -0.4196  0.0488 -0.4168
   26MOL    C3113581   7.214   0.733   7.802  0.9241  0.6512  0.3237
   26MOL    C3213582   7.260   0.815   7.675 -0.1555  0.1070  0.2016
   26MOL    C3313583   7.226   0.966   7.695 -0.2486  0.2870 -0.1563
   26MOL    O3413584   7.233   1.025   7.563  0.5648  0.5455 -0.1559
   26MOL    C3513585   7.299   1.143   7.534  0.1282  0.3787 -0.3830
   26MOL    O3613586   7.374   1.209   7.607  0.7526  0.5708 -0.8029
   26MOL    C3713587   7.296   1.173   7.381  0.8327 -0.6221 -0.4875
   26MOL    C3813588   7.400   1.284   7.341 -0.0056  0.4569 -0.0038
   26MOL    C3913589   7.318   1.043   7.293 -0.3974  0.0137 -0.1326
   26MOL    H4013590   7.444   0.600   7.709 -0.2868 -0.7580  0.0311
   26MOL    H4113591   7.433   0.599   0.078  0.9158 -0.5886  0.7979
   26MOL    H4213592   7.442   0.456   7.790  1.4060  0.4728  1.9831
   26MOL    H4313593   7.202   0.529   0.075 -1.7398  2.9265  0.5760
   26MOL    H4413594   7.206   0.532   7.710  0.0109 -1.5210  0.1689
   26MOL    H4513595   7.268   0.773   0.074  2.8101  0.3715 -0.6984
   26MOL    H4613596   7.108   0.746   0.008  0.9863  1.0023  0.4233
   26MOL    H4713597   7.367   0.820   7.659 -0.2178 -0.1097 -0.2913
   26MOL    H4813598   7.205   0.782   7.587 -2.7560 -0.2533  1.9002
   26MOL    H4913599   7.282   1.015   7.774  1.0894 -3.0690  1.0530
   26MOL    H5013600   7.120   0.978   7.717 -0.5694  1.7509 -2.2878
   26MOL    H5113601   7.501   1.270   7.379  0.8200  3.8520 -0.8249
   26MOL    H5213602   7.364   1.383   7.369 -1.0981 -0.2629  1.2409
   26MOL    H5313603   7.413   1.280   7.233  0.3434  1.6101 -0.0068
   26MOL    H5413604   7.264   1.068   7.202 -2.5320 -0.6118  0.9358
   26MOL    H5513605   7.250   0.964   7.325 -0.6304  0.2089 -0.1520
   26MOL    C5613606   0.134   0.620   7.068  0.2145  0.0821  0.7863
   26MOL    C5713607   7.792   0.611   7.074 -0.3095 -0.8745 -0.5727
   26MOL    C5813608   7.753   0.569   7.213 -0.1079 -0.4478  0.1111
   26MOL    C5913609   7.611   0.520   7.215  0.0240 -0.3593 -0.0070
   26MOL    C6013610   7.506   0.613   7.144  0.2387 -0.1523  0.0814
   26MOL    O6113611   7.528   0.744   7.199  0.3052 -0.5809  0.7515
   26MOL    C6213612   7.427   0.829   7.202  0.0268  0.2141  0.1568
   26MOL    O6313613   7.313   0.802   7.152 -0.4861 -0.0028  0.2047
   26MOL    C6413614   7.455   0.971   7.258 -0.2223 -0.0599  0.1127
   26MOL    C6513615   7.515   0.952   7.399 -0.5656  0.5467 -0.0368
   26MOL    C6613616   7.549   1.045   7.155 -1.1101 -0.0272  0.6973
   26MOL    H6713617   0.152   0.693   7.147 -1.5362 -0.3219  1.5653
   26MOL    H6813618   0.172   0.663   6.975  0.0806  1.6280  1.4369
   26MOL    H6913619   0.191   0.528   7.085 -0.8991 -0.4149  1.8639
   26MOL    H7013620   7.762   0.713   7.051  1.9673 -0.1496 -0.4481
   26MOL    H7113621   7.756   0.540   7.000 -0.7904 -0.2235 -0.9694
   26MOL    H7213622   0.002   0.489   7.253 -2.3599 -1.9029  0.8366
   26MOL    H7313623   7.753   0.659   7.274  1.7365  0.9666 -1.9053
   26MOL    H7413624   7.592   0.518   7.322 -0.6974  2.2057 -0.0560
   26MOL    H7513625   7.587   0.418   7.186 -1.4309 -0.5643  1.8445
   26MOL    H7613626   7.526   0.595   7.038  1.8296 -0.7964  0.4879
   26MOL    H7713627   7.403   0.577   7.143 -0.7794  2.6558 -1.4653
   26MOL    H7813628   7.606   0.893   7.411 -2.2455 -1.9221  0.9874
   26MOL    H7913629   7.443   0.897   7.460  1.3929  0.4533  2.2318
   26MOL    H8013630   7.534   1.044   7.454  1.5020 -0.6484  1.2869
   26MOL    H8113631   7.643   0.992   7.168 -0.9504  0.3877  1.1982
   26MOL    H8213632   7.571   1.147   7.187 -0.6814  0.0605  0.1308
   26MOL    C8313633   6.819   0.920   7.280 -0.2564  0.1973 -0.2063
   26MOL    C8413634   6.867   1.020   7.178 -0.1587 -0.0983 -0.3499
   26MOL    C8513635   6.992   0.973   7.106 -0.6582  0.5223 -0.1148
   26MOL    C8613636   7.041   1.079   7.008 -0.1801 -0.5219  0.0342
   26MOL    C8713637   7.142   1.034   6.905 -0.2596  0.3101 -0.4363
   26MOL    O8813638   7.277   1.016   6.961  0.0304  0.2007 -0.1001
   26MOL    C8913639   7.371   1.116   6.974  0.0042  0.0447  0.6293
   26MOL    O9013640   7.338   1.232   6.968  0.0173  0.1270 -0.2111
   26MOL    C9113641   7.514   1.068   6.996  0.0902  0.3170 -0.1675
   26MOL    C9213642   7.610   1.184   6.956  0.1758 -0.6471 -0.1018
   26MOL    C9313643   7.556   0.940   6.912 -0.0625  0.5709  0.5198
   26MOL    H9413644   6.796   0.826   7.230  1.1565  0.0596 -0.6105
   26MOL    H9513645   6.899   0.890   7.348 -0.8696 -0.7646  0.1059
   26MOL    H9613646   6.730   0.954   7.333 -0.7714 -0.8745 -0.3776
   26MOL    H9713647   6.890   1.116   7.224 -0.1096 -0.6785  0.8613
   26MOL    H9813648   6.791   1.047   7.104  0.3375 -0.9174 -1.1822
   26MOL    H9913649   6.970   0.883   7.050  2.2462  0.0553 -0.5961
   26MOL   H10013650   7.075   0.938   7.168 -0.1205  0.2739 -0.9678
   26MOL   H10113651   7.085   1.160   7.065  0.3308 -0.3480 -0.5995
   26MOL   H10213652   6.957   1.129   6.959  1.8629  3.1224  0.0853
   26MOL   H10313653   7.156   1.116   6.835 -1.0849  0.2541 -0.6629
   26MOL   H10413654   7.104   0.952   6.844  1.7461 -1.2570  0.3446
   26MOL   H10513655   7.597   1.256   7.037 -0.3620 -1.4528  0.5320
   26MOL   H10613656   7.598   1.237   6.861 -1.8438 -2.4951 -0.9126
   26MOL   H10713657   7.717   1.164   6.965  0.0950 -0.5516  1.1999
   26MOL   H10813658   7.643   0.896   6.960 -0.0133  1.3609  1.1623
   26MOL   H10913659   7.476   0.868   6.930 -1.9753  2.7909  1.1829
   26MOL   C11013660   0.484   0.758   6.877 -1.0213 -0.1265  0.3419
   26MOL   C11113661   0.488   0.835   6.753 -0.2034 -0.0608  0.5643
   26MOL   C11213662   0.376   0.940   6.738 -0.5522  0.1597 -0.7612
   26MOL   C11313663   0.231   0.891   6.741 -0.1430  0.0721  0.1706
   26MOL   C11413664   0.136   1.011   6.745  0.0208 -0.4782  0.3197
   26MOL   O11513665   0.012   0.945   6.768 -0.5396 -0.6506  0.0769
   26MOL   C11613666   7.719   1.001   6.712 -0.1128 -0.1107 -0.3867
   26MOL   O11713667   7.733   1.108   6.650 -0.6886 -0.0130  0.2704
   26MOL   C11813668   7.577   0.939   6.750  0.4166  0.1359 -0.1297
   26MOL   C11913669   7.470   1.021   6.672  0.0537 -0.0539  0.0247
   26MOL   C12013670   7.580   0.787   6.714 -0.5332 -0.5060  0.2567
   26MOL   H12113671   0.410   0.679   6.870 -2.9216  1.6555 -0.0739
   26MOL   H12213672   0.574   0.696   6.884 -0.6919  0.4732  1.6426
   26MOL   H12313673   0.467   0.829   6.957 -0.5145  1.3016 -0.7976
   26MOL   H12413674   0.586   0.882   6.743 -0.3108 -0.0393 -0.4306
   26MOL   H12513675   0.490   0.764   6.670 -0.0901  1.6063 -0.9048
   26MOL   H12613676   0.395   1.014   6.816 -0.2609 -1.1006  0.3734
   26MOL   H12713677   0.390   0.995   6.645 -1.1846 -1.3298 -1.7662
   26MOL   H12813678   0.220   0.821   6.824 -1.8103 -1.4668 -1.3023
   26MOL   H12913679   0.206   0.824   6.659 -0.2089 -2.2906  2.0609
   26MOL   H13013680   0.150   1.069   6.837 -1.0018  0.7511 -0.2852
   26MOL   H13113681   0.151   1.070   6.655  2.0320 -1.5814 -0.0907
   26MOL   H13213682   7.479   1.117   6.723  1.8717 -1.1013  1.7542
   26MOL   H13313683   7.489   1.047   6.568 -1.8702  0.0316 -0.3269
   26MOL   H13413684   7.372   0.974   6.685  1.2934 -2.5923  0.3727
   26MOL   H13513685   7.667   0.739   6.759 -1.0959 -1.5122  0.2981
   26MOL   H13613686   7.491   0.742   6.758 -0.8862  0.7265  0.8207
   26MOL   C13713687   7.046   1.205   6.541 -0.8753  0.2383  0.0828
   26MOL   C13813688   6.969   1.073   6.553  0.3587 -0.1583  0.3267
   26MOL   C13913689   7.038   0.958   6.487  0.5574  0.5260 -0.2033
   26MOL   C14013690   7.176   0.925   6.535  0.0775  0.2377  0.0933
   26MOL   C14113691   7.223   0.784   6.482 -1.0068  0.0328 -0.6786
   26MOL   O14213692   7.347   0.742   6.544 -0.1540  0.5512  0.4314
   26MOL   C14313693   7.461   0.779   6.483  0.8082 -0.4112  0.1247
   26MOL   O14413694   7.471   0.825   6.371  0.1439 -0.0103  0.4404
   26MOL   C14513695   7.585   0.730   6.568 -0.7192  0.9427  0.4603
   26MOL   C14613696   7.717   0.766   6.489 -0.3903 -0.0961 -0.3946
   26MOL   C14713697   7.573   0.576   6.581 -0.0648  0.2730 -0.5938
   26MOL   H14813698   7.073   1.223   6.437  0.5831  0.3340  0.4624
   26MOL   H14913699   7.145   1.206   6.587 -0.3346 -0.0145 -1.0626
   26MOL   H15013700   6.993   1.297   6.563 -0.1728  0.8548 -0.7543
   26MOL   H15113701   6.862   1.082   6.537  0.3083 -0.2944  0.5907
   26MOL   H15213702   6.959   1.059   6.661  1.0621  3.8374  1.0031
   26MOL   H15313703   6.972   0.872   6.499  0.9461  0.4769  1.6336
   26MOL   H15413704   7.043   0.990   6.383  1.7951  2.4886  0.4334
   26MOL   H15513705   7.239   1.005   6.494 -0.3416 -1.1564 -3.4869
   26MOL   H15613706   7.166   0.920   6.643  0.8908  1.0070  0.2171
   26MOL   H15713707   7.233   0.804   6.375  0.3400 -1.6396 -0.8710
   26MOL   H15813708   7.157   0.700   6.503 -2.5391  1.3585  0.0059
   26MOL   H15913709   7.807   0.753   6.550 -0.0721 -1.9752 -1.2397
   26MOL   H16013710   7.728   0.870   6.458 -1.7091 -0.1679 -1.1031
   26MOL   H16113711   7.724   0.724   6.389 -0.5466  1.7010 -1.1710
   26MOL   H16213712   7.621   0.546   6.675 -3.5877 -4.0547  0.0164
   26MOL   H16313713   7.471   0.547   6.608 -0.5301  2.3665 -0.0525
   26MOL   C16413714   0.464   0.754   6.341  0.7595  0.2806  0.2630
   26MOL   C16513715   0.308   0.792   6.349  0.0929 -0.7172 -0.1759
   26MOL   C16613716   0.225   0.668   6.379 -0.6289  0.3036 -0.4391
   26MOL   C16713717   0.198   0.561   6.264 -0.7649 -0.7520  0.0025
   26MOL   C16813718   0.137   0.434   6.308  0.1978  0.5841 -0.5042
   26MOL   O16913719   7.809   0.441   6.333 -0.0601  0.9120  0.0947
   26MOL   C17013720   7.762   0.473   6.454  0.7287  0.5194 -0.6291
   26MOL   O17113721   0.026   0.495   6.548 -0.1221  0.1441 -0.4231
   26MOL   C17213722   7.610   0.468   6.475 -0.2988 -0.3583 -0.4697
   26MOL   C17313723   7.549   0.498   6.343 -0.0608  0.0943 -0.2456
   26MOL   C17413724   7.550   0.331   6.535 -0.0056 -0.5709 -0.1360
   26MOL   H17513725   0.492   0.712   6.245  4.0951  2.4427  0.2250
   26MOL   H17613726   0.477   0.684   6.424 -1.6947  0.4271  0.8205
   26MOL   H17713727   0.521   0.845   6.358  1.0942 -0.2726  2.2496
   26MOL   H17813728   0.280   0.832   6.252  0.0685  4.2674  1.7448
   26MOL   H17913729   0.301   0.864   6.430  0.0710  1.3929 -2.0102
   26MOL   H18013730   0.255   0.625   6.474 -2.2894 -1.3390 -0.6042
   26MOL   H18113731   0.127   0.706   6.408 -0.5563 -1.0927  1.7548
   26MOL   H18213732   0.300   0.554   6.227 -1.1476  0.6141 -1.3562
   26MOL   H18313733   0.145   0.605   6.179  1.1376  1.4865 -0.0388
   26MOL   H18413734   0.191   0.413   6.400 -1.1004  1.2260  0.4184
   26MOL   H18513735   0.159   0.353   6.239 -1.2624  0.0437 -0.3618
   26MOL   H18613736   7.440   0.507   6.344  0.0448  2.0089 -2.2873
   26MOL   H18713737   7.568   0.419   6.270 -1.5637 -0.6326  0.1190
   26MOL   H18813738   7.591   0.582   6.288 -1.4154  1.1436  0.2961
   26MOL   H18913739   7.554   0.338   6.644 -0.1750 -2.3416  0.0003
   26MOL   H19013740   7.444   0.324   6.513 -0.0732  0.9683 -0.3799
   26MOL   C19113741   0.272   0.200   7.233  0.1419 -0.1552 -1.3465
   26MOL   C19213742   0.147   0.196   7.146 -0.3682  0.6013 -0.1456
   26MOL   C19313743   0.165   0.195   6.994  0.0340 -0.4500  1.0528
   26MOL   C19413744   0.033   0.176   6.914 -0.8208 -0.0661 -0.7301
   26MOL   C19513745   0.054   0.157   6.770 -0.6752  0.4290 -0.0566
   26MOL   O19613746   7.750   0.192   6.697  0.2227  0.1758  0.6093
   26MOL   C19713747   7.746   0.161   6.565  0.1013  0.5760  0.0924
   26MOL   O19813748   0.023   0.105   6.501  0.0356  0.5857 -0.7537
   26MOL   C19913749   7.601   0.189   6.505 -0.5966  0.1875 -0.2161
   26MOL   C20013750   7.610   0.171   6.354 -0.5244  0.7680 -0.4900
   26MOL   C20113751   7.496   0.076   6.551  0.1198  0.8408 -0.4845
   26MOL   H20213752   0.249   0.207   7.339  0.9915 -1.3524 -1.0708
   26MOL   H20313753   0.328   0.108   7.214 -0.2953 -0.4970 -0.9874
   26MOL   H20413754   0.331   0.289   7.210 -2.6680  1.4358 -2.7656
   26MOL   H20513755   0.082   0.280   7.171 -2.1492 -0.1804 -2.0885
   26MOL   H20613756   0.100   0.103   7.176 -0.1217 -0.9587 -4.3566
   26MOL   H20713757   0.231   0.115   6.962 -0.7113 -0.5772 -0.2213
   26MOL   H20813758   0.213   0.287   6.960  0.6082 -1.8130 -1.8931
   26MOL   H20913759   7.782   0.096   6.952 -3.1429  2.4486  0.7572
   26MOL   H21013760   7.789   0.266   6.932 -1.9597 -1.2761  2.0715
   26MOL   H21113761   0.142   0.211   6.735  0.5433 -1.5188 -0.0637
   26MOL   H21213762   0.072   0.050   6.764 -0.3164  0.3653  1.9068
   26MOL   H21313763   7.598   0.066   6.326  1.7885 -0.0695  1.4884
   26MOL   H21413764   7.696   0.216   6.304 -0.7036  0.0540 -1.4457
   26MOL   H21513765   7.511   0.208   6.327 -0.2567  1.1269 -1.0031
   26MOL   H21613766   7.516   7.801   6.491 -1.6520  0.7768 -1.0134
   26MOL   H21713767   7.396   0.106   6.517  0.4886  0.7857 -1.6580
   26MOL   C21813768   6.969   0.574   6.887  0.1664  0.1079 -0.2704
   26MOL   C21913769   7.105   0.647   6.850 -0.0729 -0.8924 -1.1562
   26MOL   C22013770   7.218   0.559   6.900  0.3374 -0.5776 -0.0047
   26MOL   C22113771   7.242   0.434   6.811 -0.3571 -0.9997 -0.3817
   26MOL   C22213772   7.368   0.354   6.860 -0.4714 -0.5829 -0.3957
   26MOL   O22313773   7.360   0.237   6.782  0.4482 -0.1026 -0.1083
   26MOL   C22413774   7.459   0.146   6.806  0.1958 -0.4778  0.2118
   26MOL   O22513775   7.542   0.159   6.895  0.1925  0.0892  0.3490
   26MOL   C22613776   7.463   0.034   6.697  0.2802 -0.4510 -0.5674
   26MOL   C22713777   7.563   7.741   6.737 -0.3769 -0.1937 -0.3284
   26MOL   C22813778   7.316   7.787   6.692 -0.0024  1.4425  0.2768
   26MOL   H22913779   6.902   0.612   6.810  0.3871 -1.2612 -1.1378
   26MOL   H23013780   6.970   0.466   6.875 -1.0477 -0.1037  1.3801
   26MOL   H23113781   6.941   0.596   6.990  0.6216 -3.1404  0.5740
   26MOL   H23213782   7.102   0.743   6.901  2.5333  0.2297 -3.0324
   26MOL   H23313783   7.115   0.670   6.744  4.0502  2.0830 -0.2315
   26MOL   H23413784   7.198   0.533   7.004 -1.8723 -2.5824 -0.8732
   26MOL   H23513785   7.306   0.623   6.902 -0.7296  0.8979  3.0193
   26MOL   H23613786   7.158   0.364   6.805 -1.1378 -0.1726  0.6328
   26MOL   H23713787   7.257   0.461   6.707 -0.8026  2.5333  0.4339
   26MOL   H23813788   7.354   0.327   6.965 -0.7373  0.5609 -0.1251
   26MOL   H23913789   7.459   0.411   6.844  0.6844 -1.7615  1.7669
   26MOL   H24013790   7.669   7.766   6.740 -0.4134 -0.1066  0.7569
   26MOL   H24113791   7.554   7.648   6.680 -0.5858  1.3914 -2.9136
   26MOL   H24213792   7.543   7.721   6.843 -1.5573  1.9267 -0.1407
   26MOL   H24313793   7.314   7.721   6.606 -0.3419  0.5115  0.9884
   26MOL   H24413794   7.254   0.056   6.661 -0.8078  1.6365  2.2792
   26MOL   C24513795   7.562   6.944   7.000 -0.3809  0.1808 -0.4571
   26MOL   C24613796   7.563   7.096   7.013 -0.0781 -0.4090  0.0027
   26MOL   C24713797   7.426   7.158   7.044  0.0036 -0.1878 -0.8414
   26MOL   C24813798   7.430   7.314   7.034 -0.6094  0.0424  0.2408
   26MOL   C24913799   7.417   7.364   6.887  0.0541  0.2610  0.3413
   26MOL   O25013800   7.388   7.503   6.888  0.2981  0.5733 -0.1728
   26MOL   C25113801   7.291   7.550   6.791 -0.9656 -0.0797 -0.8492
   26MOL   O25213802   7.233   7.471   6.712  0.9339  0.8276 -0.0103
   26MOL   C25313803   7.245   7.696   6.806 -0.9197 -0.2779  0.1563
   26MOL   C25413804   7.094   7.705   6.768  0.0372 -0.0129 -0.0576
   26MOL   C25513805   7.272   7.770   6.945 -0.6247  0.3062 -0.6836
   26MOL   H25613806   7.497   6.906   6.921 -0.6843  1.4297 -0.8143
   26MOL   H25713807   7.663   6.914   6.971 -0.3459  0.3457 -0.5026
   26MOL   H25813808   7.551   6.876   7.084  0.9156 -2.4197 -2.3179
   26MOL   H25913809   7.634   7.117   7.093 -1.9341  2.0335  1.0760
   26MOL   H26013810   7.590   7.142   6.918  0.2729 -1.9956 -0.6824
   26MOL   H26113811   7.388   7.125   7.141 -0.2971  1.2109 -0.4787
   26MOL   H26213812   7.352   7.122   6.973 -0.4838 -2.0226  0.5381
   26MOL   H26313813   7.346   7.351   7.093 -0.5417  1.5867 -0.5890
   26MOL   H26413814   7.513   7.363   7.084 -0.9043 -1.2586  2.0457
   26MOL   H26513815   7.508   7.347   6.829 -0.9660  2.2302 -1.9187
   26MOL   H26613816   7.349   7.301   6.829 -1.9175  1.7903  0.9308
   26MOL   H26713817   7.092   7.678   6.663 -0.1846  2.3193 -0.6757
   26MOL   H26813818   7.032   7.634   6.823 -2.7779  2.9739  0.8378
   26MOL   H26913819   7.046   7.803   6.770 -1.5633 -0.7643 -1.1240
   26MOL   H27013820   7.378   7.770   6.969 -0.6195  2.4813 -0.5915
   26MOL   H27113821   7.238   0.058   6.922 -1.9749  0.4555  1.7009
   26MOL   C27213822   6.523   0.475   6.925  0.7366 -0.4663 -0.0232
   26MOL   C27313823   6.673   0.438   6.933 -0.4207  0.1083 -0.0713
   26MOL   C27413824   6.700   0.290   6.974 -0.0838 -0.9864 -0.1565
   26MOL   C27513825   6.847   0.246   6.989  0.1195  0.0188  0.1045
   26MOL   C27613826   6.859   0.095   7.025 -0.4806 -0.4323 -0.0337
   26MOL   O27713827   7.001   0.063   7.030 -0.1452 -0.2750 -0.4730
   26MOL   C27813828   7.039   7.753   7.072 -0.1238 -0.3672 -0.1562
   26MOL   O27913829   6.960   7.666   7.111  0.3107  0.5943 -0.1924
   26MOL   C28013830   7.192   7.742   7.089 -0.0339  0.2137  0.3927
   26MOL   C28113831   7.219   7.592   7.120 -0.5634 -0.1380  0.4307
   26MOL   C28213832   7.257   0.025   7.186 -0.7945  0.0996  0.0942
   26MOL   H28313833   6.467   0.410   6.859  1.4174  0.2132 -1.2807
   26MOL   H28413834   6.500   0.469   7.032  0.9643  0.5940  0.1014
   26MOL   H28513835   6.510   0.572   6.877  1.0116 -0.4733 -0.1127
   26MOL   H28613836   6.717   0.447   6.834  1.4421 -0.7613  0.6482
   26MOL   H28713837   6.724   0.505   7.002  1.3031 -1.1521 -0.1088
   26MOL   H28813838   6.647   0.266   7.067 -0.4165 -1.1426 -0.3854
   26MOL   H28913839   6.657   0.217   6.906  0.2857 -0.1330 -1.3190
   26MOL   H29013840   6.905   0.261   6.898  1.3498 -0.0255  0.8632
   26MOL   H29113841   6.897   0.293   7.073 -0.6128 -2.1646  1.8112
   26MOL   H29213842   6.823   0.029   6.946 -1.8878  0.5407 -0.2272
   26MOL   H29313843   6.807   0.072   7.118  0.6612  0.7352  0.9144
   26MOL   H29413844   7.180   7.554   7.214  0.1699 -0.4578  0.6080
   26MOL   H29513845   7.182   7.521   7.046  0.4237 -0.5722  0.3382
   26MOL   H29613846   7.327   7.581   7.125 -0.7494 -1.6685  1.2880
   26MOL   H29713847   7.362   0.024   7.157 -0.1118 -2.6880  2.4078
   26MOL   H29813848   7.219   0.125   7.167  1.4539  1.1175  0.7658
   26MOL   C29913849   0.005   7.493   6.976  0.4823 -0.9518  0.1108
   26MOL   C30013850   0.024   7.440   7.122  0.8028 -0.0130 -0.1612
   26MOL   C30113851   0.003   7.550   7.223  0.1048 -0.1855  0.0433
   26MOL   C30213852   7.670   7.614   7.226  0.2969 -0.3291  0.2005
   26MOL   C30313853   7.623   7.674   7.369  0.1013 -0.4161  0.2366
   26MOL   O30413854   7.514   7.758   7.352  0.1898  0.6263  0.2113
   26MOL   C30513855   7.385   7.714   7.369 -0.5524  0.1428 -0.3263
   26MOL   O30613856   7.363   7.597   7.387 -0.1825 -1.0318 -0.0032
   26MOL   C30713857   7.269   0.006   7.347 -0.2922 -0.2720 -0.2910
   26MOL   C30813858   7.320   0.142   7.392 -0.7697 -0.1251 -0.2663
   26MOL   C30913859   7.128   7.781   7.414  0.7080  0.4755  0.2690
   26MOL   H31013860   0.056   7.588   6.957 -1.4769 -0.3244 -2.2864
   26MOL   H31113861   7.714   7.514   6.957  0.0292 -0.1970  3.1868
   26MOL   H31213862   0.023   7.424   6.894  1.5917 -0.4491 -0.0823
   26MOL   H31313863   0.125   7.399   7.124  0.6637 -0.3636 -0.3861
   26MOL   H31413864   7.777   7.351   7.137 -0.0750  0.4907 -0.6615
   26MOL   H31513865   0.077   7.625   7.195  0.1478  0.2262  1.2516
   26MOL   H31613866   0.030   7.508   7.320 -0.6979 -4.3121 -1.4241
   26MOL   H31713867   7.595   7.538   7.203  0.5556 -0.6028  0.2616
   26MOL   H31813868   7.660   7.690   7.148 -0.6156  0.7321  1.3285
   26MOL   H31913869   7.599   7.594   7.439 -0.5287 -1.3890 -1.0667
   26MOL   H32013870   7.710   7.728   7.407 -0.0337  0.4016 -0.6017
   26MOL   H32113871   7.363   0.141   7.492 -0.8446  0.8315 -0.2236
   26MOL   H32213872   7.401   0.187   7.334 -1.7881  0.8072 -0.9889
   26MOL   H32313873   7.238   0.212   7.379 -1.5074 -0.7493  0.9432
   26MOL   H32413874   7.090   7.700   7.352 -0.2149 -2.4065  4.3501
   26MOL   H32513875   7.074   0.061   7.398  0.9648  1.1132  2.8720
   26MOL   C32613876   6.916   7.167   7.138  0.2980 -0.6653 -0.1056
   26MOL   C32713877   6.873   7.288   7.211 -0.2983 -0.1553 -0.2266
   26MOL   C32813878   6.933   7.313   7.352  0.2998  0.5177 -0.0038
   26MOL   C32913879   7.087   7.317   7.355  0.3311  0.9953 -0.1026
   26MOL   C33013880   7.146   7.386   7.478  0.1258  0.3429 -0.4112
   26MOL   O33113881   7.097   7.517   7.497 -0.0747 -0.2879  0.7337
   26MOL   C33213882   7.155   7.601   7.589 -0.1726  0.1845  0.6367
   26MOL   O33313883   7.232   7.561   7.673  0.1358  0.3886 -0.1174
   26MOL   C33413884   7.111   7.745   7.571  0.7052 -0.7790  0.4947
   26MOL   C33513885   7.208   0.016   7.656  0.2271  0.2694  0.1631
   26MOL   C33613886   6.959   7.751   7.600  0.2051 -0.5940  0.6709
   26MOL   H33713887   7.024   7.167   7.118  0.4441  0.8373  0.6639
   26MOL   H33813888   6.863   7.150   7.044  0.7015 -2.1061 -0.0957
   26MOL   H33913889   6.895   7.079   7.199  0.3682  0.0522  0.9551
   26MOL   H34013890   6.764   7.292   7.214 -0.4283 -2.2909 -1.2651
   26MOL   H34113891   6.899   7.377   7.154 -0.8794  1.1113  1.4321
   26MOL   H34213892   6.896   7.226   7.407  0.8703  0.9669  1.0947
   26MOL   H34313893   6.889   7.403   7.394 -1.7236 -0.6206  0.3792
   26MOL   H34413894   7.124   7.370   7.268 -2.3674  1.9336 -0.7142
   26MOL   H34513895   7.144   7.224   7.351  0.9560  1.3090  1.2805
   26MOL   H34613896   7.253   7.378   7.460 -0.0787  0.5721 -1.8119
   26MOL   H34713897   7.123   7.330   7.568 -3.5532  2.0495 -0.1916
   26MOL   H34813898   7.185   0.119   7.629 -2.2375  0.1733  1.7378
   26MOL   H34913899   7.311   7.798   7.642 -1.1249 -3.0270 -3.3063
   26MOL   H35013900   7.179   0.012   7.761 -0.1891  0.3024  0.0514
   26MOL   H35113901   6.903   7.678   7.541 -2.1906  0.5709  1.4196
   26MOL   H35213902   6.931   0.018   7.533  2.4430 -1.1380 -0.9957
   26MOL   C35313903   7.103   0.456   7.271 -0.0050  0.2597 -0.1494
   26MOL   C35413904   7.022   0.510   7.387  0.2252  0.0643 -0.2027
   26MOL   C35513905   7.019   0.402   7.501  0.5596  0.0198 -0.0498
   26MOL   C35613906   6.926   0.432   7.623 -0.1876 -0.3594  0.2441
   26MOL   C35713907   6.947   0.328   7.740 -1.7113  0.2169  0.1627
   26MOL   O35813908   6.932   0.193   7.698 -0.1883  0.3766  0.3153
   26MOL   C35913909   6.943   0.100   7.793 -0.3930  0.8050 -0.3172
   26MOL   O36013910   6.971   0.126   0.092 -0.5144 -0.3265  0.0401
   26MOL   C36113911   6.901   7.775   7.742 -0.1206 -0.3274 -0.2540
   26MOL   C36213912   6.936   7.653   0.015  0.4148 -1.4851  0.4721
   26MOL   C36313913   6.747   7.777   7.707 -0.1012 -0.3362  0.5425
   26MOL   H36413914   7.076   0.353   7.246  0.3049  0.1897 -0.1952
   26MOL   H36513915   7.211   0.448   7.284  0.3098  2.7839 -0.9756
   26MOL   H36613916   7.099   0.519   7.182  1.9119 -0.0234 -0.4486
   26MOL   H36713917   7.069   0.605   7.412 -1.0323  0.5621  0.3220
   26MOL   H36813918   6.920   0.532   7.357 -0.4170  0.5838  2.2802
   26MOL   H36913919   7.122   0.389   7.534 -0.0895 -2.0892  1.2226
   26MOL   H37013920   6.986   0.309   7.456  0.8942  0.8103 -1.9487
   26MOL   H37113921   6.825   0.412   7.588 -1.3355 -0.3041  3.4281
   26MOL   H37213922   6.940   0.538   7.644  3.2444 -0.8829  0.9063
   26MOL   H37313923   7.045   0.354   7.778 -1.2747  0.0797 -0.8325
   26MOL   H37413924   6.878   0.342   0.009 -1.7586  1.9642 -0.1550
   26MOL   H37513925   6.894   7.560   7.791  0.7173 -0.6306 -2.0998
   26MOL   H37613926   7.045   7.644   0.010  0.6553  1.2020 -0.0641
   26MOL   H37713927   6.920   7.672   0.121 -1.5768  2.1155 -0.3874
   26MOL   H37813928   6.734   0.025   7.618 -0.8402 -0.0064  0.8803
   26MOL   H37913929   6.724   7.672   7.690  0.8693 -0.7091  1.5264
   26MOL   C38013930   6.614   7.238   0.570  0.8284 -0.6834 -0.3516
   26MOL   C38113931   6.596   7.316   0.443  0.2111 -0.4601  0.1620
   26MOL   C38213932   6.729   7.353   0.384 -0.1605  0.5738 -0.9223
   26MOL   C38313933   6.709   7.422   0.244 -0.5146 -0.6942 -0.3022
   26MOL   C38413934   6.653   7.558   0.265 -0.0303 -0.3336 -0.2929
   26MOL   O38513935   6.639   7.628   0.141  0.2388 -0.3052  0.5507
   26MOL   C38613936   6.663   7.762   0.136  0.1966 -0.4942  0.7413
   26MOL   O38713937   6.705   0.013   0.231  0.2713  0.0669  0.4559
   26MOL   C38813938   6.639   0.011   7.807  0.0029  0.0540 -0.0949
   26MOL   C38913939   6.648   0.162   0.019  0.8517 -0.3883 -0.7571
   26MOL   C39013940   6.501   7.782   7.753 -0.2244  0.2096  0.8476
   26MOL   H39113941   6.513   7.231   0.610  0.8361 -1.2065 -0.4147
   26MOL   H39213942   6.650   7.136   0.551 -2.8604 -1.9404 -0.9148
   26MOL   H39313943   6.682   7.287   0.640 -3.3640  2.3738  1.7254
   26MOL   H39413944   6.537   7.406   0.458  1.9372  0.9543 -1.2919
   26MOL   H39513945   6.540   7.257   0.371 -2.2596  0.4325  1.2947
   26MOL   H39613946   6.784   7.413   0.455  1.4399 -1.8071 -0.0787
   26MOL   H39713947   6.795   7.267   0.370 -0.9244 -0.0699 -0.6243
   26MOL   H39813948   6.808   7.444   0.206 -0.4579 -0.6786 -0.1461
   26MOL   H39913949   6.661   7.356   0.171 -1.0894  0.5225 -1.0391
   26MOL   H40013950   6.707   7.616   0.340 -1.9820  0.4549  0.5358
   26MOL   H40113951   6.556   7.550   0.313  0.0196 -0.6618 -0.2457
   26MOL   H40213952   6.646   0.224   7.743  2.0564 -2.0718 -1.9772
   26MOL   H40313953   6.732   0.205   0.073 -1.5805  1.7992  1.3927
   26MOL   H40413954   6.563   0.195   0.078 -1.0923 -3.2984 -1.7929
   26MOL   H40513955   6.496   7.673   7.749 -0.6000  0.2573 -0.1358
   26MOL   H40613956   6.504   7.801   7.646  2.3117 -1.1103  0.6646
   26MOL   C40713957   6.675   0.383   7.306 -0.0600 -0.4661 -0.1916
   26MOL   C40813958   6.656   0.250   7.374 -0.3170  1.1367  0.4440
   26MOL   C40913959   6.509   0.227   7.399  0.4751  0.1448  0.3698
   26MOL   C41013960   6.446   0.324   7.497  0.1323  1.2161  0.1490
   26MOL   C41113961   6.305   0.288   7.527 -0.1709  0.2860 -0.1830
   26MOL   O41213962   6.304   0.163   7.605 -0.1826 -0.4148 -0.0510
   26MOL   C41313963   6.332   0.163   7.739  0.7678  0.1907  0.1159
   26MOL   O41413964   6.337   0.261   0.000 -0.0519  0.0498  0.2780
   26MOL   C41513965   6.354   0.018   7.804  0.0222  0.6629 -0.7497
   26MOL   C41613966   6.252   7.737   7.734  0.1214  0.1448  0.4490
   26MOL   C41713967   6.347   0.007   0.145  0.1097 -0.0300  0.4665
   26MOL   H41813968   6.775   0.384   7.263 -1.2223  2.4297 -3.1027
   26MOL   H41913969   6.614   0.396   7.216  2.0270 -1.6124 -1.8149
   26MOL   H42013970   6.656   0.468   7.371  1.0350  0.6489 -1.3065
   26MOL   H42113971   6.717   0.248   7.464  1.0679 -0.9609 -0.4980
   26MOL   H42213972   6.684   0.168   7.307  0.7745  1.1730  0.8529
   26MOL   H42313973   6.469   0.230   7.298  3.4696  2.4402 -0.8294
   26MOL   H42413974   6.489   0.126   7.436  0.6793  0.5314  1.5732
   26MOL   H42513975   6.457   0.429   7.468  0.7896  1.3061  0.7361
   26MOL   H42613976   6.505   0.304   7.586 -0.6832 -0.4112  0.3346
   26MOL   H42713977   6.276   0.367   7.597 -0.3769  2.4789 -2.6715
   26MOL   H42813978   6.241   0.284   7.439 -1.8987  0.9340  1.0114
   26MOL   H42913979   6.238   7.642   7.786 -0.1795  0.2970  0.6463
   26MOL   H43013980   6.270   7.713   7.629  0.4778  1.0840  0.2937
   26MOL   H43113981   6.163   7.799   7.723  0.7609  1.0821  0.5129
   26MOL   H43213982   6.421   0.072   0.192  0.4456  0.2728 -0.4697
   26MOL   H43313983   6.368   7.716   0.166  0.9031 -0.2614 -1.3427
   26MOL   C43413984   6.228   7.089   0.409 -0.3250  0.3164  0.3296
   26MOL   C43513985   6.268   7.127   0.269  0.0548  0.2924 -0.7331
   26MOL   C43613986   6.170   7.230   0.212 -0.2659 -0.9658  0.1813
   26MOL   C43713987   6.209   7.371   0.254 -0.5887 -0.1076  0.3000
   26MOL   C43813988   6.122   7.488   0.201 -0.1529 -0.0183 -0.0884
   26MOL   O43913989   6.164   7.614   0.246 -0.1048  0.0994 -0.0884
   26MOL   C44013990   6.112   7.716   0.198  0.3158 -0.5956 -0.4758
   26MOL   O44113991   6.009   7.724   0.132 -0.6063 -0.8894 -0.0411
   26MOL   C44213992   6.208   0.026   0.228 -0.5626 -0.2019  0.6733
   26MOL   C44313993   6.130   0.150   0.194 -0.3491 -0.0984 -0.0245
   26MOL   C44413994   6.257   0.028   0.375 -0.4527 -0.0297 -0.5410
   26MOL   H44513995   6.278   7.010   0.464 -1.5069  0.3503  1.4634
   26MOL   H44613996   6.244   7.176   0.473 -1.2350  0.7900 -0.0660
   26MOL   H44713997   6.121   7.068   0.399 -0.6569  2.1042 -0.0876
   26MOL   H44813998   6.366   7.174   0.267 -0.7540  2.1485  0.9147
   26MOL   H44913999   6.269   7.043   0.199  1.2537  0.8262 -1.3725
   26MOL   H45014000   6.185   7.212   0.106 -0.6959  0.4349 -0.1254
   26MOL   H45114001   6.065   7.209   0.232 -0.8529  0.3465 -1.4543
   26MOL   H45214002   6.308   7.388   0.210 -0.7592 -1.0963 -0.4933
   26MOL   H45314003   6.208   7.374   0.363  0.1428  2.9070  0.2665
   26MOL   H45414004   6.019   7.466   0.229  0.8532 -2.3192  2.0526
   26MOL   H45514005   6.132   7.477   0.093 -1.3341 -0.8486 -0.1216
   26MOL   H45614006   6.113   0.158   0.086  2.3589 -3.0489 -0.7688
   26MOL   H45714007   6.029   0.157   0.234 -0.9926 -0.6478 -1.5029
   26MOL   H45814008   6.176   0.243   0.227 -2.1481  1.4413 -1.7555
   26MOL   H45914009   6.320   0.117   0.372  0.9939 -0.9197  1.8858
   26MOL   H46014010   6.334   7.764   0.380 -0.8535 -0.3993 -0.0514
   26MOL   C46114011   5.850   7.094   0.666 -0.1031 -0.4307 -1.0401
   26MOL   C46214012   5.949   7.207   0.632  0.0632 -0.0503  0.0491
   26MOL   C46314013   5.888   7.346   0.616  0.3405 -0.5775 -0.4057
   26MOL   C46414014   5.992   7.453   0.582  0.5787 -0.0756  0.1274
   26MOL   C46514015   5.941   7.587   0.547 -0.3074  0.0276  0.3297
   26MOL   O46614016   6.062   7.669   0.523  0.0677 -0.1345 -0.1374
   26MOL   C46714017   6.056   7.802   0.515  0.1527  0.7543  0.2662
   26MOL   O46814018   5.950   0.049   0.528 -0.2115 -0.0922 -0.7969
   26MOL   C46914019   6.183   0.068   0.502 -0.2093 -1.1471  0.4503
   26MOL   C47014020   6.144   0.216   0.501 -0.0894 -0.2695  0.0450
   26MOL   C47114021   6.276   0.054   0.628  0.4408 -0.3179 -0.5714
   26MOL   H47214022   5.757   7.104   0.610 -1.5100 -0.8050  1.1567
   26MOL   H47314023   5.827   7.107   0.772  0.8568  0.4737 -0.9332
   26MOL   H47414024   5.898   6.997   0.656  1.1415  0.0290  0.3138
   26MOL   H47514025   6.009   7.176   0.546 -0.4382  2.8788 -1.4283
   26MOL   H47614026   6.016   7.205   0.717 -0.9310 -1.4929  0.8345
   26MOL   H47714027   5.822   7.379   0.696 -0.8644  0.6804 -1.8896
   26MOL   H47814028   5.824   7.343   0.528  0.5309  0.0707 -0.5714
   26MOL   H47914029   6.053   7.425   0.496  2.3672  2.2317  0.5929
   26MOL   H48014030   6.066   7.471   0.660 -1.0773  1.1282  1.4713
   26MOL   H48114031   5.874   7.580   0.462 -1.0934  0.1085  0.9426
   26MOL   H48214032   5.882   7.616   0.634  0.0709  0.2146  0.5248
   26MOL   H48314033   6.231   0.278   0.479 -0.5173  0.4563  0.4141
   26MOL   H48414034   6.099   0.254   0.592  0.0893 -0.9771  0.4351
   26MOL   H48514035   6.074   0.243   0.422 -0.5645  0.6201  0.7684
   26MOL   H48614036   6.201   0.061   0.707  0.6826  0.7628 -0.4389
   26MOL   H48714037   6.329   0.147   0.644  0.7645 -0.4060 -1.1550
   26MOL   C48814038   6.777   0.473   0.297  0.1021  0.0202  0.2702
   26MOL   C48914039   6.651   0.437   0.379  0.6348 -0.0784 -0.3896
   26MOL   C49014040   6.625   0.284   0.400  0.0816 -0.4221  0.6796
   26MOL   C49114041   6.712   0.231   0.517 -0.2958  0.8493  0.3523
   26MOL   C49214042   6.685   0.083   0.544  0.7038  0.5543  0.1144
   26MOL   O49314043   6.558   0.074   0.595 -0.3080 -0.1104  0.7031
   26MOL   C49414044   6.500   7.766   0.583 -0.5820  0.0952 -0.8856
   26MOL   O49514045   6.535   7.675   0.512  0.2750 -0.5526  0.6766
   26MOL   C49614046   6.373   7.751   0.671  0.2596 -0.3836 -0.1071
   26MOL   C49714047   6.321   7.615   0.663  1.0030  0.0050  0.2708
   26MOL   C49814048   6.412   7.782   0.822  0.2119 -0.0730  0.1696
   26MOL   H49914049   6.787   0.581   0.291 -0.3295 -0.0153 -1.5734
   26MOL   H50014050   6.873   0.433   0.331 -0.5014 -1.5127  0.2367
   26MOL   H50114051   6.767   0.433   0.196  1.4826  0.3383  0.0031
   26MOL   H50214052   6.562   0.479   0.334 -0.4172 -1.3592  0.4566
   26MOL   H50314053   6.654   0.488   0.475  1.1581  1.8026 -1.3962
   26MOL   H50414054   6.526   0.249   0.426  0.4161 -1.2951  0.7986
   26MOL   H50514055   6.658   0.235   0.309 -0.5065  0.2259  0.1117
   26MOL   H50614056   6.704   0.291   0.608  0.4651  0.6174  0.5764
   26MOL   H50714057   6.817   0.239   0.491 -0.0856 -2.8069 -0.1649
   26MOL   H50814058   6.690   0.020   0.455 -1.6122  2.4426 -1.4230
   26MOL   H50914059   6.753   0.049   0.622 -1.3874  0.3361  1.9103
   26MOL   H51014060   6.284   7.599   0.562 -3.2883  1.5185  1.5079
   26MOL   H51114061   6.238   7.613   0.734 -1.5365 -0.3416 -2.6078
   26MOL   H51214062   6.404   7.546   0.678 -0.0210 -0.9603  1.7176
   26MOL   H51314063   6.316   7.801   0.869  0.0350  0.9853 -0.6318
   26MOL   H51414064   6.455   0.068   0.821  0.1963 -0.0727 -0.1746
   26MOL   C51514065   5.844   0.028   0.901  0.0401 -0.1767 -0.3913
   26MOL   C51614066   5.891   7.725   0.990 -0.2349  0.5515  0.1747
   26MOL   C51714067   6.037   7.688   0.963  0.3062 -0.5532 -0.0376
   26MOL   C51814068   6.085   7.597   1.076  0.6216  0.1016 -0.3623
   26MOL   C51914069   6.212   7.516   1.053 -0.7071  0.7220  0.4943
   26MOL   O52014070   6.313   7.608   1.024 -0.0907 -0.0990 -0.0890
   26MOL   C52114071   6.431   7.573   0.970  0.9106  0.9180  0.0299
   26MOL   O52214072   6.469   7.460   0.954  0.2537  0.4195  0.0831
   26MOL   C52314073   6.508   7.695   0.918  0.1744  0.0698 -0.2735
   26MOL   C52414074   6.553   7.776   1.040 -0.8837 -0.0099 -0.4087
   26MOL   C52514075   6.641   7.652   0.842 -0.0819 -0.6929  0.0818
   26MOL   H52614076   5.885   0.124   0.931  0.1379 -0.0857 -0.8174
   26MOL   H52714077   5.861   0.002   0.797  2.3652  1.0819 -0.3433
   26MOL   H52814078   5.738   0.038   0.926 -0.0397 -0.0941 -0.7656
   26MOL   H52914079   5.886   7.762   1.092  1.5513 -0.7044  0.7478
   26MOL   H53014080   5.822   7.641   0.976  0.2917 -0.2621  2.2617
   26MOL   H53114081   6.039   7.643   0.864  2.0202  0.6995 -0.5940
   26MOL   H53214082   6.097   7.779   0.956  2.4473 -1.6055  3.2074
   26MOL   H53314083   6.016   7.513   1.088  0.9254 -0.6217 -3.3672
   26MOL   H53414084   6.084   7.648   1.173 -3.8483 -0.0453 -0.2142
   26MOL   H53514085   6.235   7.471   1.150  0.4403  0.3898  0.0697
   26MOL   H53614086   6.209   7.440   0.975 -0.4843  0.1867  1.0038
   26MOL   H53714087   6.628   7.723   1.099  1.6426  2.4652 -1.2488
   26MOL   H53814088   6.468   7.798   1.104 -0.8973 -2.6041  0.5040
   26MOL   H53914089   6.607   0.051   1.008  0.4965 -0.3424  0.9235
   26MOL   H54014090   6.709   7.607   0.914  1.6454  1.1796 -0.3282
   26MOL   H54114091   6.689   7.736   0.793 -0.5515 -1.0664 -1.0461
   26MOL   H54214092   6.626   7.583   0.758  0.2414  0.8838 -1.3023
   27MOL     C114093   6.874   5.543   4.059 -0.0152  0.3416 -0.1299
   27MOL     C214094   6.830   5.663   3.978 -0.3219 -0.6432  0.2085
   27MOL     C314095   6.927   5.710   3.866 -0.4363  0.5546  1.0252
   27MOL     C414096   6.896   5.848   3.806  0.2831 -0.2654  0.2412
   27MOL     C514097   6.925   5.960   3.895  0.4691 -0.5632 -0.0870
   27MOL     O614098   6.899   6.083   3.838 -0.2414 -0.0858  0.0140
   27MOL     C714099   6.775   6.139   3.830  0.3671  0.4355 -0.6249
   27MOL     O814100   6.671   6.084   3.873 -0.3799 -1.0681 -0.3106
   27MOL     C914101   6.771   6.282   3.767  0.3658  0.0458  0.7076
   27MOL    C1014102   6.619   6.332   3.768  0.6963  0.3091  0.1018
   27MOL    C1114103   6.824   6.297   3.623  0.5957  0.4801 -0.5081
   27MOL    H1214104   6.914   5.468   3.990  1.1155 -0.3752  1.2713
   27MOL    H1314105   6.790   5.506   4.118  0.5749  1.0504  1.1912
   27MOL    H1414106   6.952   5.572   4.129 -0.7032 -2.1112  1.7369
   27MOL    H1514107   6.733   5.643   3.931  1.2395 -2.1041 -2.5262
   27MOL    H1614108   6.818   5.753   4.038  2.2884 -0.3272  0.2951
   27MOL    H1714109   7.030   5.708   3.902  0.1699 -0.8348 -0.7066
   27MOL    H1814110   6.934   5.646   3.778  1.3340 -0.7689  2.0632
   27MOL    H1914111   6.798   5.867   3.763  0.2251  0.2791  0.6041
   27MOL    H2014112   6.969   5.855   3.724 -0.3486  2.7199 -0.1459
   27MOL    H2114113   6.859   5.957   3.982 -0.4785 -0.1921 -0.7744
   27MOL    H2214114   7.030   5.953   3.922 -0.2851 -1.7640  2.7822
   27MOL    H2314115   6.582   6.355   3.868 -1.3981  0.0092 -0.5857
   27MOL    H2414116   6.546   6.261   3.730 -1.0979  1.2198  1.7546
   27MOL    H2514117   6.595   6.428   3.722 -0.3484  0.6008  1.2252
   27MOL    H2614118   6.745   6.271   3.553  0.7028 -0.7974 -0.1704
   27MOL    H2714119   6.889   6.210   3.617  0.2118  0.0924  0.6263
   27MOL    H2814120   6.837   6.345   3.827  0.2505  1.4952 -0.6452
   27MOL    C2914121   6.904   6.309   4.184 -0.5490  0.1932 -0.1599
   27MOL    C3014122   7.047   6.280   4.135 -0.4785  0.3644 -0.1563
   27MOL    C3114123   7.106   6.362   4.014  0.3645  0.8558 -0.4594
   27MOL    C3214124   7.201   6.277   3.919  0.4513  0.5011 -0.0055
   27MOL    C3314125   7.226   6.336   3.776 -0.2168  0.3392 -0.1039
   27MOL    O3414126   7.100   6.328   3.707 -0.1182 -0.2965  0.1003
   27MOL    C3514127   7.031   6.439   3.676 -0.7118  0.0050 -0.5743
   27MOL    O3614128   7.076   6.553   3.694 -0.5471  0.0114 -0.1685
   27MOL    C3714129   6.908   6.421   3.591 -0.2854 -0.4758  0.7162
   27MOL    C3814130   6.823   6.549   3.610  0.1576  0.0842  0.0473
   27MOL    C3914131   6.944   6.430   3.434 -0.0703 -0.7369  0.5295
   27MOL    H4014132   6.827   6.283   4.112 -1.1334  0.0198  0.5196
   27MOL    H4114133   6.892   6.248   4.273 -0.6038 -1.6245 -1.3922
   27MOL    H4214134   6.893   6.411   4.220  0.0272  0.3711 -0.4815
   27MOL    H4314135   7.054   6.176   4.103  0.1571  0.2974  0.1947
   27MOL    H4414136   7.114   6.305   4.217  0.5751 -3.7187  0.3256
   27MOL    H4514137   7.157   6.450   4.053 -0.1853  1.8128 -1.8538
   27MOL    H4614138   7.022   6.396   3.954  0.2427  2.3251  0.5145
   27MOL    H4714139   7.297   6.269   3.969  0.7104 -1.2991 -0.7671
   27MOL    H4814140   7.166   6.174   3.913  0.3821  0.4842  0.6923
   27MOL    H4914141   7.300   6.279   3.721  0.9627 -0.0104  1.7906
   27MOL    H5014142   7.277   6.432   3.780  1.8538 -0.5947 -2.5804
   27MOL    H5114143   6.796   6.557   3.715 -3.8427  1.3315 -0.9875
   27MOL    H5214144   6.729   6.545   3.555  0.2183 -2.0020  0.0646
   27MOL    H5314145   6.870   6.640   3.575  2.0432  0.3480  3.0551
   27MOL    H5414146   6.973   6.533   3.414  1.8469 -1.3186  0.2813
   27MOL    H5514147   6.857   6.404   3.374  1.6697  1.2700 -2.9896
   27MOL    C5614148   7.514   6.566   2.928 -0.2495  0.5747  0.3284
   27MOL    C5714149   7.538   6.597   3.081  0.1177  0.4132  0.5417
   27MOL    C5814150   7.410   6.598   3.165  0.9005 -0.0457 -0.5851
   27MOL    C5914151   7.441   6.586   3.317  0.2321  0.5711 -0.2302
   27MOL    C6014152   7.313   6.621   3.388 -0.4770  0.4272 -0.2576
   27MOL    O6114153   7.207   6.531   3.360  0.8487  0.5070  0.1533
   27MOL    C6214154   7.191   6.403   3.405 -0.3117  0.9794 -0.5084
   27MOL    O6314155   7.276   6.335   3.461  0.1574 -0.2601  0.0711
   27MOL    C6414156   7.054   6.347   3.358 -0.2869 -0.3795 -0.1760
   27MOL    C6514157   7.039   6.383   3.206 -0.4128 -0.2478 -0.4475
   27MOL    C6614158   7.034   6.191   3.391 -0.0261  0.3827 -0.2454
   27MOL    H6714159   7.474   6.464   2.926  3.6813 -1.1172  3.0700
   27MOL    H6814160   7.604   6.570   2.867  1.5322 -2.3392  2.6665
   27MOL    H6914161   7.445   6.638   2.883 -0.2100  0.5288  0.1933
   27MOL    H7014162   7.602   6.520   3.124 -1.8916 -2.1029 -0.7977
   27MOL    H7114163   7.593   6.690   3.092  2.0390 -0.9342  3.0118
   27MOL    H7214164   7.358   6.693   3.160 -0.8506 -0.9790 -0.4916
   27MOL    H7314165   7.341   6.521   3.129 -1.6434  2.4336 -1.2168
   27MOL    H7414166   7.520   6.645   3.363  0.3968  0.4351 -0.3382
   27MOL    H7514167   7.454   6.480   3.342  0.3809  0.6689  0.1111
   27MOL    H7614168   7.328   6.608   3.495  0.1778  0.1804 -0.3792
   27MOL    H7714169   7.281   6.724   3.376 -0.3434  0.9297  3.1702
   27MOL    H7814170   7.125   6.349   3.148  1.1818 -0.4768  1.9779
   27MOL    H7914171   7.052   6.489   3.186 -1.8274 -0.0922 -0.5820
   27MOL    H8014172   6.946   6.340   3.169 -0.6734 -0.6849  0.6959
   27MOL    H8114173   6.928   6.164   3.395  0.4628 -1.4453  0.6683
   27MOL    H8214174   7.065   6.183   3.495 -0.7923 -1.9430 -0.1797
   27MOL    C8314175   6.461   6.357   2.798 -0.0488  0.0990 -0.4541
   27MOL    C8414176   6.536   6.309   2.922  0.7496 -0.0746  0.0684
   27MOL    C8514177   6.626   6.180   2.912  0.2718 -0.0141  0.4735
   27MOL    C8614178   6.705   6.162   3.045 -0.1948  0.1383  0.0050
   27MOL    C8714179   6.820   6.059   3.037 -0.4935  0.2418  0.0350
   27MOL    O8814180   6.890   6.065   3.159 -0.2246 -0.2819 -0.2990
   27MOL    C8914181   7.027   6.077   3.160  0.7300  0.3733 -0.0093
   27MOL    O9014182   7.095   6.095   3.060 -0.1735 -0.1375 -0.5323
   27MOL    C9114183   7.089   6.073   3.304  0.8498 -0.2097 -0.2683
   27MOL    C9214184   7.239   6.083   3.302  0.4199 -0.3128 -0.6951
   27MOL    C9314185   7.047   5.939   3.382  0.4063  0.1098  0.6016
   27MOL    H9414186   6.397   6.277   2.763 -2.8932  1.7533  0.8487
   27MOL    H9514187   6.403   6.447   2.821  0.9224  0.3419  1.1143
   27MOL    H9614188   6.531   6.380   2.717  1.3300  0.7164  0.8709
   27MOL    H9714189   6.455   6.281   2.989  0.4531 -0.2239 -0.3447
   27MOL    H9814190   6.579   6.399   2.966  0.2513  0.4116 -0.4241
   27MOL    H9914191   6.699   6.180   2.831 -0.4672 -2.5051 -0.2345
   27MOL   H10014192   6.575   6.086   2.891  0.3549  0.3199 -1.2446
   27MOL   H10114193   6.641   6.135   3.129 -0.1556  1.7707  0.5715
   27MOL   H10214194   6.747   6.259   3.071  1.2989 -0.0475 -1.6222
   27MOL   H10314195   6.881   6.076   2.948  1.1866 -0.8737  0.9597
   27MOL   H10414196   6.772   5.961   3.029 -1.6007  0.8147 -0.6286
   27MOL   H10514197   7.276   6.019   3.222  1.5654 -0.0170 -0.4153
   27MOL   H10614198   7.281   6.055   3.398 -0.4394  0.4995 -0.0793
   27MOL   H10714199   7.270   6.182   3.270 -0.8375  0.9943  1.9631
   27MOL   H10814200   7.061   5.960   3.488  3.0153  3.5972 -0.3543
   27MOL   H10914201   6.938   5.936   3.374  0.4124 -1.0132  0.8269
   27MOL   C11014202   7.373   5.649   4.044 -0.5432  0.0834 -0.3955
   27MOL   C11114203   7.382   5.771   3.959  0.0133  0.0095 -0.8607
   27MOL   C11214204   7.385   5.737   3.810 -0.2104  0.6432  0.2451
   27MOL   C11314205   7.411   5.852   3.716  0.0515 -0.4828  0.0081
   27MOL   C11414206   7.390   5.819   3.569 -0.1882  0.0722  0.4462
   27MOL   O11514207   7.252   5.806   3.528 -0.7120  0.8541  0.2894
   27MOL   C11614208   7.229   5.766   3.405 -0.2045  0.0546  0.8497
   27MOL   O11714209   7.319   5.723   3.335  0.1770  0.5779  1.1278
   27MOL   C11814210   7.088   5.796   3.348  0.2886  0.0478 -0.8322
   27MOL   C11914211   7.091   5.773   3.197  0.4699 -0.4577 -0.2334
   27MOL   C12014212   6.992   5.693   3.425 -0.2527  0.1716 -0.6986
   27MOL   H12114213   7.273   5.610   4.023 -1.2287  0.6992  1.5867
   27MOL   H12214214   7.454   5.583   4.013  0.8606  0.4572  2.3477
   27MOL   H12314215   7.392   5.669   4.149 -0.0668 -1.3279 -0.2040
   27MOL   H12414216   7.311   5.845   3.996 -1.1033 -1.4437 -0.0562
   27MOL   H12514217   7.475   5.821   3.987  0.3664 -1.1754  0.1252
   27MOL   H12614218   7.447   5.651   3.787  0.2504  0.9077  0.4800
   27MOL   H12714219   7.284   5.704   3.789 -0.2012  0.6230  0.2340
   27MOL   H12814220   7.517   5.878   3.722 -0.1751  0.4363  0.1236
   27MOL   H12914221   7.366   5.947   3.747 -0.7105 -0.7347 -0.3082
   27MOL   H13014222   7.426   5.901   3.507  1.3536 -0.8350  0.1269
   27MOL   H13114223   7.444   5.732   3.533  0.7617  0.9083 -0.1921
   27MOL   H13214224   6.987   5.782   3.165  0.2829  0.6525  0.6468
   27MOL   H13314225   7.140   5.845   3.132 -0.4209 -1.2025 -1.7659
   27MOL   H13414226   7.122   5.676   3.158  2.6698 -0.2969  1.0419
   27MOL   H13514227   7.044   5.600   3.444  1.1344  0.4847 -2.8018
   27MOL   H13614228   6.986   5.727   3.528  0.4754 -1.9146  0.0420
   27MOL   C13714229   6.265   5.849   3.717 -0.3437  0.6022 -1.0774
   27MOL   C13814230   6.389   5.942   3.688 -0.7315 -0.6827  0.0007
   27MOL   C13914231   6.470   5.902   3.569  0.2374  0.2919  0.5429
   27MOL   C14014232   6.576   6.004   3.520  1.1090  0.0351  0.7885
   27MOL   C14114233   6.650   5.947   3.395  0.0224  0.9724  0.6112
   27MOL   O14214234   6.740   5.847   3.420  0.2539  0.3279  0.5777
   27MOL   C14314235   6.764   5.763   3.317 -0.4423  0.2481  0.1735
   27MOL   O14414236   6.727   5.767   3.200  0.8538  0.3485 -0.6337
   27MOL   C14514237   6.855   5.645   3.370  0.5667  0.1844  0.2821
   27MOL   C14614238   6.882   5.534   3.265  0.2019 -0.1097 -0.0650
   27MOL   C14714239   6.789   5.561   3.496  0.0368 -0.0602 -0.4736
   27MOL   H14814240   6.296   5.751   3.754  1.7315  0.9004 -1.9117
   27MOL   H14914241   6.193   5.835   3.636 -0.7481  0.7179 -0.7374
   27MOL   H15014242   6.223   5.894   3.807  0.4397 -0.7080 -0.0360
   27MOL   H15114243   6.451   5.954   3.776  2.1071 -0.1509 -1.9966
   27MOL   H15214244   6.336   6.036   3.669 -0.5221 -0.1004  2.1910
   27MOL   H15314245   6.528   5.814   3.594 -0.8511 -0.5858  0.0538
   27MOL   H15414246   6.407   5.872   3.485 -0.1276  0.3079  0.8075
   27MOL   H15514247   6.526   6.096   3.488  1.2451  0.3732  1.5559
   27MOL   H15614248   6.652   6.041   3.588 -0.7894  1.3725  2.2570
   27MOL   H15714249   6.693   6.033   3.345  1.0581 -0.5289 -1.1195
   27MOL   H15814250   6.566   5.922   3.329 -0.1528 -0.7316  1.4471
   27MOL   H15914251   6.784   5.496   3.236 -0.2665  0.4383  0.8235
   27MOL   H16014252   6.948   5.459   3.308 -2.0394 -1.9706  0.2150
   27MOL   H16114253   6.933   5.574   3.176  1.4204 -3.6319 -1.0429
   27MOL   H16214254   6.869   5.497   3.533  0.1166 -0.3032 -1.0487
   27MOL   H16314255   6.775   5.633   3.576 -0.8136 -1.1750  0.3979
   27MOL   C16414256   6.081   5.214   3.113 -0.0500  0.0297  0.3998
   27MOL   C16514257   6.220   5.155   3.104  0.1845  0.0362  0.4944
   27MOL   C16614258   6.310   5.169   3.226  0.0478  0.5883 -0.1729
   27MOL   C16714259   6.461   5.141   3.199  0.7176  0.0700  0.3643
   27MOL   C16814260   6.555   5.166   3.313 -0.1910  0.2238  0.1659
   27MOL   O16914261   6.568   5.306   3.357  0.3233 -0.1341 -0.1515
   27MOL   C17014262   6.675   5.342   3.433  0.4745 -0.5114 -0.4216
   27MOL   O17114263   6.766   5.268   3.462  0.2835  0.3563  0.0949
   27MOL   C17214264   6.650   5.479   3.494 -0.1478 -0.2587 -0.1481
   27MOL   C17314265   6.547   5.567   3.408 -0.0523  0.2139 -0.1911
   27MOL   C17414266   6.619   5.475   3.643 -0.3734  0.1908  0.0742
   27MOL   H17514267   6.035   5.187   3.207 -2.1473 -1.5175 -1.0162
   27MOL   H17614268   6.020   5.205   3.023  1.2244  1.5969 -0.6559
   27MOL   H17714269   6.097   5.321   3.114 -0.5488  0.1020  2.2201
   27MOL   H17814270   6.265   5.184   3.009  1.8376 -0.4242  1.1271
   27MOL   H17914271   6.198   5.049   3.095 -1.3412  0.4276 -0.5927
   27MOL   H18014272   6.311   5.271   3.263 -1.9246  1.0266 -1.2853
   27MOL   H18114273   6.277   5.115   3.314 -1.1822  3.3212  1.0842
   27MOL   H18214274   6.505   5.189   3.112  1.7077 -0.6344  0.4714
   27MOL   H18314275   6.461   5.034   3.181 -1.6996  0.1448 -0.3152
   27MOL   H18414276   6.650   5.130   3.271 -1.9228 -2.5304 -1.5516
   27MOL   H18514277   6.536   5.102   3.399  2.1519  1.3245  1.5575
   27MOL   H18614278   6.514   5.658   3.458 -0.0647  1.8318 -3.0264
   27MOL   H18714279   6.454   5.511   3.396  0.2773 -0.6080  0.9936
   27MOL   H18814280   6.578   5.593   3.307 -1.7455 -0.2703 -0.8634
   27MOL   H18914281   6.709   5.436   3.690 -0.8878 -0.2165  0.7281
   27MOL   H19014282   6.603   5.576   3.680  1.5673  0.8715 -0.8950
   27MOL   C19114283   6.982   4.704   3.729 -0.4838 -0.2258  0.7946
   27MOL   C19214284   6.947   4.860   3.691 -0.0476 -0.2376  0.1511
   27MOL   C19314285   6.840   4.917   3.786 -0.0874  0.3969 -0.7030
   27MOL   C19414286   6.807   5.063   3.751  0.0125  0.3147 -0.3076
   27MOL   C19514287   6.696   5.112   3.842  0.3110  0.0090  0.7716
   27MOL   O19614288   6.645   5.242   3.814  0.2071 -0.3796 -0.4038
   27MOL   C19714289   6.534   5.257   3.733  0.5381 -0.3043  0.1692
   27MOL   O19814290   6.479   5.165   3.677 -0.2535 -0.4169  0.3991
   27MOL   C19914291   6.497   5.404   3.713  0.3267 -0.1555 -0.0813
   27MOL   C20014292   6.366   5.405   3.631  1.0104 -0.7052 -0.8873
   27MOL   C20114293   6.469   5.477   3.852  0.1558  0.1300  1.1415
   27MOL   H20214294   7.063   4.669   3.666  0.7456  2.9835  0.4753
   27MOL   H20314295   7.024   4.705   3.829  1.9298  0.4681 -0.2060
   27MOL   H20414296   6.898   4.640   3.701  1.2349 -1.7394 -1.0810
   27MOL   H20514297   6.903   4.870   3.591 -2.0603  1.0540  1.1108
   27MOL   H20614298   7.039   4.919   3.693  1.1094 -2.0396  0.2632
   27MOL   H20714299   6.881   4.923   3.887 -0.6845  0.0767 -0.4378
   27MOL   H20814300   6.747   4.859   3.785  0.2034 -0.0896 -0.0737
   27MOL   H20914301   6.896   5.126   3.758  0.2034 -0.1844  2.1562
   27MOL   H21014302   6.761   5.073   3.653  2.3560  1.5557 -1.3359
   27MOL   H21114303   6.616   5.038   3.845 -0.3382  0.6742 -0.1283
   27MOL   H21214304   6.735   5.123   3.943 -0.6355 -1.4392  1.3083
   27MOL   H21314305   6.288   5.348   3.681  0.9923  0.2092  0.1585
   27MOL   H21414306   6.371   5.364   3.530  1.9141 -1.5544 -0.4957
   27MOL   H21514307   6.313   5.500   3.621 -1.2518 -1.9174 -0.8258
   27MOL   H21614308   6.461   5.582   3.826  1.1931  0.0064  0.3029
   27MOL   H21714309   6.570   5.481   3.892  0.0233  1.0136  1.3785
   27MOL   C21814310   5.805   5.056   4.211 -0.0189 -0.8394 -0.0141
   27MOL   C21914311   5.853   5.035   4.064  0.0590 -0.4896  0.4889
   27MOL   C22014312   6.004   5.078   4.050  0.6614  0.2641 -0.6549
   27MOL   C22114313   6.077   5.039   3.915 -0.8517  0.0273  0.2405
   27MOL   C22214314   6.226   5.094   3.915 -0.5009  0.8307 -0.1630
   27MOL   O22314315   6.236   5.232   3.924 -0.6683  0.3683 -0.8185
   27MOL   C22414316   6.347   5.289   3.981  0.1125  0.0579 -0.0828
   27MOL   O22514317   6.436   5.233   4.043 -0.3351  0.5806  0.0653
   27MOL   C22614318   6.357   5.439   3.960  0.5698 -0.8174 -0.0322
   27MOL   C22714319   6.217   5.502   3.919  1.1717 -0.0610 -0.0487
   27MOL   C22814320   6.415   5.512   4.090  0.1852  0.8414 -0.0060
   27MOL   H22914321   5.826   5.153   4.255 -0.0357 -0.9398  0.2176
   27MOL   H23014322   5.699   5.036   4.228 -0.6898  2.1406 -0.5149
   27MOL   H23114323   5.845   4.982   4.281 -2.2514 -1.3081  0.8172
   27MOL   H23214324   5.800   5.101   3.996  0.1219  1.0176  1.8544
   27MOL   H23314325   5.851   4.933   4.024  1.5945 -0.0096 -0.8532
   27MOL   H23414326   6.055   5.049   4.142 -0.3063  1.5409  0.3052
   27MOL   H23514327   6.002   5.187   4.061 -1.5329 -0.1698  5.3498
   27MOL   H23614328   6.069   4.932   3.898 -0.5131  0.4145 -2.6001
   27MOL   H23714329   6.032   5.089   3.829  0.4860  2.3548  0.8427
   27MOL   H23814330   6.269   5.079   3.816  2.0865 -2.8823  1.4379
   27MOL   H23914331   6.291   5.041   3.985  0.4026  0.3114 -1.3764
   27MOL   H24014332   6.224   5.610   3.907 -3.9540  0.2429 -1.7399
   27MOL   H24114333   6.153   5.476   4.003 -0.2842 -0.5777 -1.2795
   27MOL   H24214334   6.172   5.459   3.829  1.2605 -0.4967  0.1179
   27MOL   H24314335   6.453   5.605   4.047  4.4633 -1.5427 -1.7321
   27MOL   H24414336   6.512   5.466   4.111 -0.1920 -1.4701 -3.0838
   27MOL   C24514337   6.264   6.338   3.904  0.4324  0.0185  0.0655
   27MOL   C24614338   6.327   6.218   3.967  0.3118 -0.0999  0.0370
   27MOL   C24714339   6.220   6.116   4.019  0.2031 -0.2815  0.4868
   27MOL   C24814340   6.290   5.988   4.062 -0.2318 -0.5517  0.1442
   27MOL   C24914341   6.201   5.878   4.118  0.1441  0.0418  1.1121
   27MOL   O25014342   6.287   5.774   4.174 -0.2365  0.5890  0.0854
   27MOL   C25114343   6.236   5.652   4.195 -0.3316 -0.0945  0.2587
   27MOL   O25214344   6.116   5.624   4.197 -0.4393 -0.1193 -0.2723
   27MOL   C25314345   6.343   5.545   4.227 -0.5246  0.2079 -0.7061
   27MOL   C25414346   6.447   5.605   4.323  0.4232 -0.0000 -0.5421
   27MOL   C25514347   6.284   5.416   4.286  0.1505  0.6323  0.5571
   27MOL   H25614348   6.198   6.311   3.823 -1.9739  0.9441  1.6666
   27MOL   H25714349   6.210   6.386   3.986  0.0718  1.1957 -0.8656
   27MOL   H25814350   6.338   6.404   3.859  0.3529  0.2751  0.3065
   27MOL   H25914351   6.396   6.171   3.898  1.1842  1.3423 -0.0828
   27MOL   H26014352   6.389   6.254   4.049  1.2869 -2.5448  0.4233
   27MOL   H26114353   6.154   6.091   3.936  2.6641 -1.8463 -1.0875
   27MOL   H26214354   6.163   6.152   4.104  0.6918  0.6191  0.4400
   27MOL   H26314355   6.341   5.956   3.971  0.7632  0.4392  0.3619
   27MOL   H26414356   6.367   6.013   4.134  0.8829 -5.1618  0.7387
   27MOL   H26514357   6.135   5.903   4.201 -1.0996  0.3589  0.0463
   27MOL   H26614358   6.133   5.839   4.042  1.7268  2.0847 -1.4510
   27MOL   H26714359   6.531   5.539   4.345  1.1929  0.2771 -2.5201
   27MOL   H26814360   6.507   5.688   4.287  0.1871 -0.4371 -1.9727
   27MOL   H26914361   6.411   5.655   4.413 -0.9266  0.2078 -1.1830
   27MOL   H27014362   6.200   5.387   4.223  1.1252  1.5111 -1.1810
   27MOL   H27114363   6.364   5.343   4.271 -1.1243 -0.6379 -0.2079
   27MOL   C27214364   6.845   5.558   4.639  0.1919 -0.0093 -0.4063
   27MOL   C27314365   6.900   5.441   4.547 -0.2455 -0.4189  0.2232
   27MOL   C27414366   6.786   5.367   4.481  0.1875 -0.1610 -0.1261
   27MOL   C27514367   6.684   5.279   4.562 -0.0726 -0.5879 -0.5566
   27MOL   C27614368   6.560   5.354   4.609  0.6043  0.4510 -0.4710
   27MOL   O27714369   6.455   5.348   4.507 -0.0110  0.3417 -0.1190
   27MOL   C27814370   6.339   5.410   4.538 -0.5954 -0.7828  0.2728
   27MOL   O27914371   6.327   5.478   4.637  0.0842  0.1381  0.5710
   27MOL   C28014372   6.231   5.401   4.431  0.6771 -0.7203 -0.0719
   27MOL   C28114373   6.115   5.502   4.470 -0.1781 -0.0789 -0.0611
   27MOL   C28214374   6.172   5.254   4.435  0.1531  0.0308 -0.0779
   27MOL   H28314375   6.784   5.510   4.716 -0.9050  1.5444 -0.2907
   27MOL   H28414376   6.927   5.615   4.681  1.1058 -0.5986 -1.3597
   27MOL   H28514377   6.793   5.633   4.579 -0.3685  0.5000  0.7189
   27MOL   H28614378   6.965   5.483   4.470 -1.5300  2.0202  0.4039
   27MOL   H28714379   6.968   5.372   4.597  0.4852  2.0729  2.8519
   27MOL   H28814380   6.731   5.432   4.413  0.4873  1.7430  1.4134
   27MOL   H28914381   6.834   5.304   4.406 -0.1756 -0.3248 -0.2201
   27MOL   H29014382   6.640   5.197   4.504 -0.1502 -1.2132  0.3713
   27MOL   H29114383   6.736   5.236   4.648  0.6090 -2.8681 -2.0378
   27MOL   H29214384   6.575   5.458   4.639 -0.7958 -0.8292  5.1529
   27MOL   H29314385   6.538   5.311   4.706  2.8379  2.3688  0.9349
   27MOL   H29414386   6.031   5.481   4.404 -0.0305 -1.2984  0.1338
   27MOL   H29514387   6.083   5.471   4.569  1.2044 -1.0205  0.1145
   27MOL   H29614388   6.152   5.604   4.465 -1.3961  0.2798 -2.5779
   27MOL   H29714389   6.074   5.261   4.388 -0.3769 -0.0599  0.9879
   27MOL   H29814390   6.227   5.193   4.363 -0.5059  0.7477 -1.2043
   27MOL   C29914391   6.828   4.674   4.572 -0.3880  0.0376 -0.3413
   27MOL   C30014392   6.679   4.729   4.585 -0.4145 -0.3100  0.3069
   27MOL   C30114393   6.628   4.756   4.442  0.1858 -0.2133  0.0421
   27MOL   C30214394   6.497   4.825   4.440  0.2216  0.0996  0.3284
   27MOL   C30314395   6.475   4.947   4.531 -0.4165 -1.3487 -0.7257
   27MOL   O30414396   6.348   5.011   4.504  0.8283 -0.1005  0.6606
   27MOL   C30514397   6.289   5.099   4.594  0.6195 -0.7423  0.7407
   27MOL   O30614398   6.348   5.132   4.696  0.2100  0.1032 -0.0659
   27MOL   C30714399   6.154   5.159   4.566 -0.1553 -0.4603  0.4592
   27MOL   C30814400   6.096   5.244   4.686 -0.3565  0.1566  1.1251
   27MOL   C30914401   6.037   5.056   4.521 -0.3355 -0.7062 -0.7524
   27MOL   H31014402   6.844   4.616   4.663  0.3666  0.8065  0.0284
   27MOL   H31114403   6.908   4.749   4.575 -0.9002  0.5375  0.8332
   27MOL   H31214404   6.840   4.604   4.489 -0.1388 -0.7385  0.3433
   27MOL   H31314405   6.675   4.812   4.655 -2.7309  0.6428 -0.9151
   27MOL   H31414406   6.614   4.651   4.625  0.2594 -1.5158 -0.9181
   27MOL   H31514407   6.636   4.662   4.389 -0.4756  0.3984 -1.1535
   27MOL   H31614408   6.699   4.816   4.385 -1.2918  0.5007 -1.0644
   27MOL   H31714409   6.413   4.761   4.469  0.1405 -0.8097 -1.8742
   27MOL   H31814410   6.475   4.854   4.337  0.1940 -0.4142  0.1883
   27MOL   H31914411   6.483   4.923   4.637 -0.1585 -1.3488 -0.7454
   27MOL   H32014412   6.557   5.018   4.522 -2.2146  0.6353 -2.1754
   27MOL   H32114413   6.105   5.176   4.771  1.2940  1.5796  2.1127
   27MOL   H32214414   6.144   5.334   4.723 -0.8949  0.1556  1.8309
   27MOL   H32314415   5.990   5.268   4.677 -0.3862 -0.1097  0.7190
   27MOL   H32414416   6.078   5.001   4.436  0.9421  1.0783 -1.3126
   27MOL   H32514417   5.957   5.112   4.475  0.0638  1.5156  1.1315
   27MOL   C32614418   5.806   5.512   4.745 -0.0805 -0.2583 -0.0497
   27MOL   C32714419   5.704   5.482   4.635  0.3916  0.3480 -1.0059
   27MOL   C32814420   5.677   5.331   4.607 -0.8420 -0.3316 -0.5789
   27MOL   C32914421   5.625   5.244   4.725  0.4990 -0.0758 -0.1699
   27MOL   C33014422   5.627   5.094   4.695  0.6215 -0.5109  0.6524
   27MOL   O33114423   5.747   5.049   4.636 -0.2618  0.2079 -0.1279
   27MOL   C33214424   5.859   5.027   4.703  0.7285 -0.1499  0.0526
   27MOL   O33314425   5.864   5.056   4.825  0.0770 -0.0595 -0.2078
   27MOL   C33414426   5.967   4.952   4.625 -0.1823 -0.0003 -0.0578
   27MOL   C33514427   5.911   4.838   4.541 -0.3498  0.0325 -0.6114
   27MOL   C33614428   6.083   4.890   4.714  0.4063 -0.5381  0.3565
   27MOL   H33714429   5.801   5.621   4.749 -0.9919 -0.0844 -3.9869
   27MOL   H33814430   5.904   5.474   4.715  0.4778  1.3397 -0.2579
   27MOL   H33914431   5.774   5.469   4.840  0.3343  0.1405  0.2722
   27MOL   H34014432   5.736   5.541   4.549 -1.2043  0.4505 -1.5545
   27MOL   H34114433   5.611   5.529   4.666  0.4054 -0.9233  1.0440
   27MOL   H34214434   5.775   5.296   4.575  0.2231  1.6647  0.3425
   27MOL   H34314435   5.613   5.318   4.520 -0.2366  3.1665 -1.6452
   27MOL   H34414436   5.525   5.281   4.749  0.4755  0.4082 -0.9735
   27MOL   H34514437   5.673   5.267   4.820 -0.5496 -1.4262  0.7149
   27MOL   H34614438   5.548   5.064   4.626 -0.0286 -0.2561  1.2756
   27MOL   H34714439   5.595   5.046   4.787 -2.0229  1.5447  0.8704
   27MOL   H34814440   5.999   4.783   4.508 -0.3684 -2.0718  2.5918
   27MOL   H34914441   5.850   4.863   4.454  0.1367  0.8873 -0.7148
   27MOL   H35014442   5.858   4.765   4.602  1.1251 -1.7362 -1.4123
   27MOL   H35114443   6.100   4.970   4.786 -3.4416  0.8841 -0.1978
   27MOL   H35214444   6.177   4.885   4.658 -0.0175 -1.9185 -0.2555
   27MOL   C35314445   6.726   4.876   4.973 -0.6927  0.3210  0.1995
   27MOL   C35414446   6.592   4.886   5.045 -0.7916 -0.2755 -0.0757
   27MOL   C35514447   6.487   4.953   4.962 -0.6385 -0.0412  0.0596
   27MOL   C35614448   6.358   5.010   5.033 -0.4515  0.7155  0.3234
   27MOL   C35714449   6.268   4.902   5.089  0.4519 -0.1376 -0.3554
   27MOL   O35814450   6.177   4.868   4.988 -0.2471  0.4061 -0.0563
   27MOL   C35914451   6.197   4.762   4.905  0.2769 -0.6950  0.4085
   27MOL   O36014452   6.294   4.688   4.908 -0.0409 -0.1383  0.0477
   27MOL   C36114453   6.074   4.752   4.803 -0.0122  0.3481 -0.4495
   27MOL   C36214454   6.103   4.627   4.715  0.2048 -0.0751  0.4467
   27MOL   C36314455   5.934   4.734   4.879  0.0557 -0.3273  0.2334
   27MOL   H36414456   6.756   4.969   4.925 -2.2195  0.1797 -1.0875
   27MOL   H36514457   6.733   4.797   4.898  2.4985 -0.9173  1.7030
   27MOL   H36614458   6.798   4.835   5.043 -2.5179 -1.9546  0.8287
   27MOL   H36714459   6.567   4.781   5.061  1.1834 -0.9268 -1.1027
   27MOL   H36814460   6.601   4.946   5.136 -0.6181 -0.5775  0.1066
   27MOL   H36914461   6.454   4.888   4.880 -0.8164  0.1814 -0.0468
   27MOL   H37014462   6.530   5.044   4.920  0.9651  0.0207  1.8231
   27MOL   H37114463   6.299   5.081   4.975  0.2731  0.7628 -0.3640
   27MOL   H37214464   6.392   5.073   5.115  2.7299 -1.5669  0.8737
   27MOL   H37314465   6.328   4.818   5.123 -1.8640 -1.5138  0.4245
   27MOL   H37414466   6.208   4.945   5.169  2.5022 -0.5467  1.4385
   27MOL   H37514467   6.207   4.622   4.683 -0.0014  0.8472 -0.3908
   27MOL   H37614468   6.100   4.537   4.776  1.4487 -0.2578  0.2520
   27MOL   H37714469   6.039   4.630   4.627 -1.0067  2.5850  1.3718
   27MOL   H37814470   5.924   4.829   4.931 -0.5388 -0.0737 -0.3441
   27MOL   H37914471   5.856   4.741   4.803  0.2649 -0.8961 -0.0407
   27MOL   C38014472   5.769   3.877   5.158 -0.1703 -0.3878  0.4553
   27MOL   C38114473   5.840   3.886   5.022  0.1122 -0.4761 -0.7511
   27MOL   C38214474   5.819   4.014   4.945 -0.4328  0.0891  0.3108
   27MOL   C38314475   5.834   4.149   5.020  0.5149 -0.4800 -0.2372
   27MOL   C38414476   5.804   4.261   4.925  0.3823  0.4823 -0.0385
   27MOL   O38514477   5.853   4.382   4.981 -0.0614  0.2901 -1.0424
   27MOL   C38614478   5.858   4.490   4.903  0.1236 -0.0633  0.5889
   27MOL   O38714479   5.845   4.489   4.782  0.6826 -0.6913 -0.4394
   27MOL   C38814480   5.897   4.619   4.978 -1.1497  0.1246  0.3098
   27MOL   C38914481   6.016   4.581   5.071  0.0749  0.2255  0.0858
   27MOL   C39014482   5.784   4.673   5.083 -0.5363 -0.1395 -0.0220
   27MOL   H39114483   5.802   3.953   5.229  0.9652 -0.8203  0.4013
   27MOL   H39214484   5.661   3.877   5.145 -0.0579 -1.7148 -0.6149
   27MOL   H39314485   5.796   3.782   5.205 -1.4904 -0.1698  1.6552
   27MOL   H39414486   5.799   3.809   4.957  1.3812 -0.9105 -1.0590
   27MOL   H39514487   5.947   3.869   5.034 -0.1962 -2.2480 -0.3359
   27MOL   H39614488   5.878   3.999   4.855 -0.6837  3.7089 -0.5534
   27MOL   H39714489   5.719   4.018   4.900 -0.3354 -3.2015 -0.3145
   27MOL   H39814490   5.767   4.135   5.105  1.1703  1.2287  0.5660
   27MOL   H39914491   5.939   4.155   5.049  1.2695 -0.4029 -2.9248
   27MOL   H40014492   5.699   4.289   4.909  0.6017  0.2909 -1.8644
   27MOL   H40114493   5.849   4.230   4.831 -0.5590 -2.6236  0.4668
   27MOL   H40214494   6.094   4.531   5.013  0.6471  0.4440  0.6667
   27MOL   H40314495   5.998   4.503   5.146  1.7452 -0.1967  0.0709
   27MOL   H40414496   6.070   4.665   5.113  0.3252  0.1281 -0.0410
   27MOL   H40514497   5.836   4.749   5.142  1.3596 -0.3425 -1.3736
   27MOL   H40614498   5.767   4.591   5.153 -0.8500  0.2511  0.3591
   27MOL   C40714499   5.082   4.510   5.316  0.1418  0.1932  0.1333
   27MOL   C40814500   5.119   4.618   5.417 -0.1793 -0.4287  0.2205
   27MOL   C40914501   5.260   4.678   5.379 -0.4075  0.6749  0.0838
   27MOL   C41014502   5.378   4.581   5.420 -0.1444  0.4783 -0.3623
   27MOL   C41114503   5.525   4.636   5.400  0.1309 -0.7225  0.5813
   27MOL   O41214504   5.563   4.632   5.269 -0.0892  0.5424  0.4923
   27MOL   C41314505   5.567   4.740   5.187  0.1222 -0.5686  0.2250
   27MOL   O41414506   5.532   4.854   5.221 -0.3609 -0.0820  0.3917
   27MOL   C41514507   5.638   4.713   5.048 -0.1838  0.3944  1.2791
   27MOL   C41614508   5.644   4.845   4.966 -0.1953 -0.0357  0.1155
   27MOL   C41714509   5.573   4.595   4.963  0.7562  0.2688 -0.4778
   27MOL   H41814510   5.092   4.537   5.211 -0.7984 -1.5871 -0.4272
   27MOL   H41914511   5.145   4.422   5.328 -0.3380 -0.3177 -1.0045
   27MOL   H42014512   4.984   4.467   5.337 -0.0526  1.3364  1.7021
   27MOL   H42114513   5.120   4.575   5.517  2.4426 -2.0132 -0.4302
   27MOL   H42214514   5.036   4.688   5.424  0.8425  0.9684 -1.1441
   27MOL   H42314515   5.276   4.696   5.273  1.0902  1.0063  0.3486
   27MOL   H42414516   5.278   4.772   5.432  0.9120  0.5010 -0.0321
   27MOL   H42514517   5.359   4.493   5.359 -0.6552  0.8525 -0.7479
   27MOL   H42614518   5.369   4.560   5.526 -0.4824 -1.1570 -0.6999
   27MOL   H42714519   5.521   4.734   5.449 -2.3493 -0.7267  0.4987
   27MOL   H42814520   5.587   4.566   5.456  0.2826  0.0960  1.4637
   27MOL   H42914521   5.685   4.828   4.866 -0.8636 -1.0989  0.0097
   27MOL   H43014522   5.700   4.925   5.013 -1.2221  1.0113 -0.4173
   27MOL   H43114523   5.544   4.888   4.960 -0.3063 -0.2213  0.5761
   27MOL   H43214524   5.600   4.505   5.018  0.6082  0.1389 -0.6167
   27MOL   H43314525   5.622   4.574   4.867  0.5985 -1.4006 -0.2056
   27MOL   C43414526   5.237   4.761   4.214  0.2002  0.4754 -0.3180
   27MOL   C43514527   5.274   4.888   4.295  0.1518  0.8066  0.4857
   27MOL   C43614528   5.404   4.885   4.379  0.9169 -0.4110  0.4832
   27MOL   C43714529   5.401   4.779   4.489 -0.0939 -0.7290  0.5207
   27MOL   C43814530   5.505   4.801   4.600  0.2069  0.2164 -0.3330
   27MOL   O43914531   5.501   4.707   4.705 -0.0595  0.1479  0.3181
   27MOL   C44014532   5.410   4.712   4.802 -0.1336  0.3651  0.0256
   27MOL   O44114533   5.329   4.804   4.820 -0.6239  0.5057 -0.3476
   27MOL   C44214534   5.424   4.599   4.905  0.3626 -0.1639 -0.0694
   27MOL   C44314535   5.314   4.617   5.012  0.0872  0.0260 -0.5622
   27MOL   C44414536   5.404   4.458   4.831 -0.4051  0.3881  0.3747
   27MOL   H44514537   5.237   4.667   4.269 -1.2027 -1.4179 -3.4413
   27MOL   H44614538   5.143   4.783   4.165  0.4760  2.2925 -0.0678
   27MOL   H44714539   5.319   4.743   4.144 -0.4018  1.5062 -1.2942
   27MOL   H44814540   5.295   4.965   4.222  1.0757  0.0746 -0.0212
   27MOL   H44914541   5.183   4.930   4.339 -0.4159 -0.1242  0.2198
   27MOL   H45014542   5.497   4.877   4.324  1.1415 -1.8407  1.0636
   27MOL   H45114543   5.414   4.983   4.426 -2.8159  1.3431 -2.1163
   27MOL   H45214544   5.399   4.680   4.442 -1.8816 -1.7603  2.6832
   27MOL   H45314545   5.307   4.778   4.543 -0.6225  0.4943 -0.3736
   27MOL   H45414546   5.476   4.890   4.655  0.8412  1.0298 -1.3117
   27MOL   H45514547   5.605   4.802   4.556  0.2279  0.1470 -0.2870
   27MOL   H45614548   5.319   4.713   5.064  0.5703 -0.2487 -0.1093
   27MOL   H45714549   5.210   4.623   4.978 -0.9564  0.2864  2.5185
   27MOL   H45814550   5.316   4.547   5.095  1.4673 -0.4905 -1.0178
   27MOL   H45914551   5.460   4.395   4.899  2.3333  0.8816 -1.3273
   27MOL   H46014552   5.470   4.454   4.744  0.1264 -0.2359  0.8069
   27MOL   C46114553   5.571   4.244   5.398  0.0759  0.4184  0.3384
   27MOL   C46214554   5.463   4.148   5.349  0.6128  0.3246 -0.5125
   27MOL   C46314555   5.378   4.219   5.246  0.8294 -0.4059 -0.0258
   27MOL   C46414556   5.288   4.121   5.184  0.7420 -0.2567 -0.0884
   27MOL   C46514557   5.185   4.178   5.087 -0.1802  0.0946  0.3960
   27MOL   O46614558   5.247   4.252   4.988 -0.0400 -0.5305 -0.2125
   27MOL   C46714559   5.190   4.353   4.925  0.8746 -0.0366  0.7380
   27MOL   O46814560   5.085   4.408   4.960 -0.4538  0.5143  0.0366
   27MOL   C46914561   5.259   4.395   4.792  0.0448  0.3205 -0.7245
   27MOL   C47014562   5.303   4.266   4.715  0.6437 -0.5726  0.0193
   27MOL   C47114563   5.174   4.490   4.695  0.0080 -0.6180 -0.3039
   27MOL   H47214564   5.524   4.319   5.462  0.0594 -1.4740  2.6483
   27MOL   H47314565   5.629   4.282   5.314  4.4046 -1.4699  2.3247
   27MOL   H47414566   5.636   4.189   5.466  1.4604 -0.4469 -1.6366
   27MOL   H47514567   5.391   4.127   5.429  0.9099 -2.5199 -0.9356
   27MOL   H47614568   5.515   4.056   5.323  1.1108  0.0288  1.4547
   27MOL   H47714569   5.433   4.268   5.166  1.4473 -0.9297  0.0758
   27MOL   H47814570   5.309   4.295   5.283 -2.4826 -2.3178 -1.9763
   27MOL   H47914571   5.232   4.062   5.257 -0.9829 -0.0163 -1.1918
   27MOL   H48014572   5.349   4.052   5.126 -0.6009 -1.2961 -0.2959
   27MOL   H48114573   5.124   4.103   5.037 -1.2371  1.2833 -0.1357
   27MOL   H48214574   5.122   4.240   5.151  1.1804  1.5382  0.3849
   27MOL   H48314575   5.328   4.278   4.610 -0.4083 -0.1028 -0.1870
   27MOL   H48414576   5.224   4.191   4.716 -0.2542  0.3670  0.4853
   27MOL   H48514577   5.389   4.220   4.763 -0.7653 -1.5778  1.6580
   27MOL   H48614578   5.240   4.532   4.620 -0.2472 -1.5138 -1.0451
   27MOL   H48714579   5.136   4.576   4.749 -3.1788 -1.6936 -0.7442
   27MOL   C48814580   5.391   4.066   3.984  0.1583  1.0638  0.3131
   27MOL   C48914581   5.370   4.192   4.066  0.1904  0.2012  0.0873
   27MOL   C49014582   5.391   4.182   4.222  0.0872 -0.0782 -0.4025
   27MOL   C49114583   5.324   4.295   4.300  0.4438 -0.2249  0.5745
   27MOL   C49214584   5.175   4.309   4.301 -0.2689  0.3073  0.2413
   27MOL   O49314585   5.139   4.397   4.402 -0.1963  0.1994 -0.1113
   27MOL   C49414586   5.070   4.338   4.514  0.2204 -0.8108  0.3624
   27MOL   O49514587   5.059   4.217   4.538  0.6284  0.3093 -0.0745
   27MOL   C49614588   5.037   4.452   4.615 -0.2533  0.7047 -0.4494
   27MOL   C49714589   4.998   4.579   4.531  0.2418 -0.2145 -0.5920
   27MOL   C49814590   4.917   4.403   4.705 -0.4972 -0.8723 -0.0513
   27MOL   H49914591   5.331   3.983   4.023 -2.0393  2.4233 -0.0926
   27MOL   H50014592   5.362   4.083   3.881  1.4615  1.1035 -0.0562
   27MOL   H50114593   5.495   4.032   3.983 -0.4895 -0.9335 -0.7552
   27MOL   H50214594   5.265   4.210   4.046  0.3029  0.2777 -0.4478
   27MOL   H50314595   5.434   4.269   4.022 -1.1670  1.9212  1.0583
   27MOL   H50414596   5.356   4.086   4.259 -0.3431  0.8501  1.7011
   27MOL   H50514597   5.498   4.197   4.236 -0.4842  2.0052  2.3134
   27MOL   H50614598   5.370   4.388   4.265  1.6775  0.2266  3.2586
   27MOL   H50714599   5.363   4.295   4.402 -1.8732 -0.6290  1.5028
   27MOL   H50814600   5.148   4.352   4.204  0.1789  0.3482  0.1317
   27MOL   H50914601   5.117   4.216   4.303 -1.3606  0.9682 -0.1674
   27MOL   H51014602   5.081   4.634   4.488 -1.2599  1.5026 -1.3638
   27MOL   H51114603   4.937   4.648   4.589 -0.6120 -0.0848 -1.6217
   27MOL   H51214604   4.935   4.549   4.447 -0.9493 -0.6956  0.4596
   27MOL   H51314605   4.906   4.473   4.787 -0.7232  0.1365 -0.9405
   27MOL   H51414606   4.962   4.318   4.757  5.4501  1.7097 -0.5378
   27MOL   C51514607   4.288   5.033   4.899 -0.1412  0.4978  0.3857
   27MOL   C51614608   4.363   4.903   4.908 -0.3323  0.6678  0.0688
   27MOL   C51714609   4.472   4.878   4.805 -0.1333 -0.1279  0.0222
   27MOL   C51814610   4.553   4.750   4.824  0.0504  0.5824  0.3732
   27MOL   C51914611   4.648   4.730   4.704  0.1163 -0.4169  0.6247
   27MOL   O52014612   4.692   4.598   4.720  0.1203  0.1317  0.1560
   27MOL   C52114613   4.696   4.510   4.617  0.1269 -0.9700 -0.3326
   27MOL   O52214614   4.638   4.523   4.503  0.0648 -0.7715  0.5421
   27MOL   C52314615   4.771   4.382   4.656  0.4472 -0.9230  0.1146
   27MOL   C52414616   4.686   4.329   4.776  0.2293  0.5085  0.3217
   27MOL   C52514617   4.755   4.278   4.541 -0.0525  0.6147  0.4526
   27MOL   H52614618   4.357   5.117   4.892  0.9226 -0.4575 -0.7534
   27MOL   H52714619   4.234   5.029   4.804 -0.2312  0.1643  0.4503
   27MOL   H52814620   4.221   5.040   4.985  1.5645  0.0945  1.7694
   27MOL   H52914621   4.413   4.885   5.003  0.1272  2.0354  0.0994
   27MOL   H53014622   4.279   4.834   4.898  2.5935 -3.0790  0.5222
   27MOL   H53114623   4.417   4.877   4.711 -0.8097  1.3539  0.3847
   27MOL   H53214624   4.533   4.969   4.801 -2.1759  1.3554  1.5160
   27MOL   H53314625   4.480   4.669   4.833  0.5466  0.1003  0.0691
   27MOL   H53414626   4.609   4.739   4.916 -0.5747 -0.9560  0.5943
   27MOL   H53514627   4.595   4.742   4.610 -2.5916  1.1163  2.2941
   27MOL   H53614628   4.735   4.795   4.699  0.2874 -0.7665 -1.4216
   27MOL   H53714629   4.705   4.223   4.790 -1.9655  0.3340  2.1950
   27MOL   H53814630   4.578   4.339   4.762 -0.0900 -2.8983  0.0778
   27MOL   H53914631   4.712   4.365   4.876  0.9938  0.4419  0.1528
   27MOL   H54014632   4.790   4.311   4.443  1.1003 -0.6090  0.4270
   27MOL   H54114633   4.649   4.265   4.522  0.4412 -1.6643 -0.9595
   27MOL   H54214634   4.798   4.181   4.566  1.0589  0.6533 -1.1673
   28MOL     C114635   1.613   4.857   5.858 -0.1184  0.2630 -0.2939
   28MOL     C214636   1.480   4.862   5.771  0.2005 -0.1759  0.1493
   28MOL     C314637   1.364   4.944   5.833 -0.2240  0.4150 -0.0070
   28MOL     C414638   1.240   4.955   5.740  0.1352  0.4122 -0.0119
   28MOL     C514639   1.152   5.080   5.772 -0.0158  1.0845 -0.4935
   28MOL     O614640   1.214   5.201   5.729  0.0354  0.1020  0.4871
   28MOL     C714641   1.181   5.242   5.609 -0.1589 -0.3558  0.3412
   28MOL     O814642   1.098   5.193   5.535  0.5295 -0.0385 -0.6559
   28MOL     C914643   1.263   5.361   5.564  0.3473  0.0742  1.0688
   28MOL    C1014644   1.237   5.488   5.653 -0.7715 -0.2096 -0.0759
   28MOL    C1114645   1.253   5.395   5.406 -0.3165 -0.1358 -0.4647
   28MOL    H1214646   1.687   4.812   5.792  0.0153  1.4506 -0.9770
   28MOL    H1314647   1.580   4.791   5.938  1.2115 -0.8474 -0.6529
   28MOL    H1414648   1.636   4.955   5.899  1.3190  0.7262 -2.1499
   28MOL    H1514649   1.514   4.921   5.685 -0.6588  0.3383  0.1618
   28MOL    H1614650   1.455   4.761   5.740 -0.0377  0.4451 -1.7850
   28MOL    H1714651   1.341   4.909   5.934 -0.6201  1.7462  0.3709
   28MOL    H1814652   1.399   5.047   5.833  0.2854  0.2821 -2.7710
   28MOL    H1914653   1.187   4.861   5.760  1.3538  0.1667  2.2439
   28MOL    H2014654   1.270   4.961   5.636 -0.6406  0.6156 -0.2270
   28MOL    H2114655   1.056   5.069   5.722 -0.3704  1.0484  0.1881
   28MOL    H2214656   1.124   5.080   5.877  2.3020 -0.6090  0.1589
   28MOL    H2314657   1.247   5.459   5.758  0.7708  0.5026 -0.0167
   28MOL    H2414658   1.143   5.543   5.650  0.1620  1.4643  1.2024
   28MOL    H2514659   1.317   5.560   5.642 -0.6800 -0.5257 -1.6183
   28MOL    H2614660   1.218   5.498   5.394  0.6140  0.5517  2.2976
   28MOL    H2714661   1.166   5.350   5.358 -1.1462  1.4295 -0.4651
   28MOL    H2814662   1.365   5.328   5.581  1.3789  1.0364 -2.6979
   28MOL    C2914663   1.961   5.849   5.207 -0.7488  0.1438  0.1166
   28MOL    C3014664   1.861   5.857   5.313  0.5243  0.4140  0.4019
   28MOL    C3114665   1.848   5.738   5.404  0.3840  0.2768 -0.0188
   28MOL    C3214666   1.735   5.647   5.353 -0.7322  0.6062  0.3031
   28MOL    C3314667   1.593   5.682   5.395 -0.0037  0.3255 -0.6019
   28MOL    O3414668   1.497   5.595   5.339  0.5286  0.0569 -0.1239
   28MOL    C3514669   1.488   5.460   5.378 -0.1161 -0.2905 -0.7198
   28MOL    O3614670   1.564   5.407   5.456 -0.1489 -0.4588  0.6447
   28MOL    C3714671   1.375   5.376   5.312 -0.2824 -0.1927 -0.7655
   28MOL    C3814672   1.339   5.431   5.171 -0.2333  0.4520  0.2762
   28MOL    C3914673   1.406   5.221   5.322  0.4787 -0.8954 -0.1807
   28MOL    H4014674   1.973   5.750   5.163  1.0148  0.2416  0.3193
   28MOL    H4114675   1.955   5.934   5.139 -0.7507  2.4128  2.8509
   28MOL    H4214676   2.059   5.873   5.249 -0.6481  1.2451 -0.6963
   28MOL    H4314677   1.760   5.887   5.283  0.2382 -1.7394 -0.9016
   28MOL    H4414678   1.898   5.942   5.370  1.2209 -0.1196  0.7457
   28MOL    H4514679   1.841   5.768   5.509 -0.0425 -0.2245  0.0992
   28MOL    H4614680   1.943   5.685   5.406  1.5253  2.2818  1.9931
   28MOL    H4714681   1.738   5.642   5.244  0.0856  1.4115  0.2926
   28MOL    H4814682   1.765   5.547   5.384  5.4247  1.8376 -1.1148
   28MOL    H4914683   1.574   5.783   5.359  0.5667  0.1263 -1.4759
   28MOL    H5014684   1.599   5.684   5.504  1.9238 -3.7351 -0.5186
   28MOL    H5114685   1.418   5.433   5.097  0.3278 -1.5614  0.8112
   28MOL    H5214686   1.300   5.533   5.170 -2.1357 -0.2433  0.4020
   28MOL    H5314687   1.250   5.384   5.128  1.0525 -0.2887 -1.6100
   28MOL    H5414688   1.315   5.163   5.311 -0.9316  1.4181 -1.0301
   28MOL    H5514689   1.430   5.199   5.426 -1.6028  1.2359  0.8024
   28MOL    C5614690   2.086   4.683   5.248  0.4300 -0.0690  0.4075
   28MOL    C5714691   1.971   4.613   5.321 -0.0044 -0.6893  0.1121
   28MOL    C5814692   1.876   4.697   5.408 -0.1506  0.7435  0.1526
   28MOL    C5914693   1.831   4.820   5.341 -0.2621 -0.4879 -0.0116
   28MOL    C6014694   1.724   4.890   5.413  0.4443 -0.2059 -0.0457
   28MOL    O6114695   1.677   5.001   5.341 -0.9061 -0.1176  0.3334
   28MOL    C6214696   1.549   5.008   5.302 -0.0827 -0.4411 -0.4173
   28MOL    O6314697   1.470   4.921   5.331 -0.5086  0.0239 -0.0859
   28MOL    C6414698   1.509   5.144   5.228 -0.0310 -0.6705 -0.4459
   28MOL    C6514699   1.640   5.227   5.197 -0.1243 -0.2160 -0.4982
   28MOL    C6614700   1.422   5.108   5.101 -0.2841  0.1543  0.2182
   28MOL    H6714701   2.145   4.602   5.206 -0.4868  0.2685 -1.6082
   28MOL    H6814702   2.153   4.731   5.319 -0.5342  0.4227  0.9915
   28MOL    H6914703   2.049   4.746   5.167  0.9946  1.4881  1.3446
   28MOL    H7014704   1.909   4.576   5.239 -0.9716 -0.6797  0.8284
   28MOL    H7114705   2.014   4.534   5.383 -1.6318 -1.0764  0.7756
   28MOL    H7214706   1.790   4.640   5.443  0.5063 -0.4491 -0.1530
   28MOL    H7314707   1.931   4.731   5.496  0.5216  1.6191 -0.5945
   28MOL    H7414708   1.809   4.791   5.238 -2.4890 -1.1905  0.6259
   28MOL    H7514709   1.912   4.892   5.331 -1.8358  1.2025 -0.9694
   28MOL    H7614710   1.645   4.817   5.429 -2.0554  2.7036  1.5763
   28MOL    H7714711   1.758   4.933   5.507  1.4322  2.1876 -1.4309
   28MOL    H7814712   1.699   5.259   5.283  1.1851 -0.2650 -1.3657
   28MOL    H7914713   1.617   5.323   5.151  0.6172  0.1275 -0.1512
   28MOL    H8014714   1.705   5.178   5.124 -0.5949 -0.9473 -0.4366
   28MOL    H8114715   1.371   5.200   5.073  0.6227  0.8997  0.9894
   28MOL    H8214716   1.343   5.040   5.134 -0.2431 -0.4582 -0.9096
   28MOL    C8314717   2.020   4.975   4.422  0.1780  0.1170  0.5091
   28MOL    C8414718   1.902   5.065   4.377  0.6082 -0.1616  0.3172
   28MOL    C8514719   1.865   5.158   4.491 -0.0736 -0.1636 -0.5313
   28MOL    C8614720   1.792   5.092   4.617 -0.0200 -0.1106 -0.3165
   28MOL    C8714721   1.714   5.190   4.703  0.1586  0.3086 -0.2649
   28MOL    O8814722   1.638   5.103   4.789 -0.4037  0.6351  0.3057
   28MOL    C8914723   1.566   5.149   4.888 -0.3306  0.0904  0.3977
   28MOL    O9014724   1.558   5.270   4.916 -0.3780 -0.2849  0.6020
   28MOL    C9114725   1.489   5.039   4.975 -0.3562 -0.0973  0.2479
   28MOL    C9214726   1.586   4.920   5.009 -0.1198 -0.4980  0.2931
   28MOL    C9314727   1.376   4.983   4.883  0.1629 -0.2718 -0.6062
   28MOL    H9414728   2.037   4.900   4.345 -0.4471 -0.4716  0.9465
   28MOL    H9514729   2.106   5.039   4.443 -0.6021  0.2525  3.5678
   28MOL    H9614730   2.000   4.923   4.516  0.7206 -2.9486 -1.0200
   28MOL    H9714731   1.821   5.000   4.342 -0.2937  2.3207 -2.4251
   28MOL    H9814732   1.925   5.129   4.291  0.5906 -2.8561 -1.7759
   28MOL    H9914733   1.812   5.244   4.449  0.3381  1.6628  2.4972
   28MOL   H10014734   1.951   5.216   4.526 -0.3608  0.8845 -1.5408
   28MOL   H10114735   1.867   5.037   4.674 -0.2143 -0.1556 -0.1018
   28MOL   H10214736   1.719   5.021   4.578 -1.2912  1.0713 -0.1127
   28MOL   H10314737   1.640   5.255   4.657 -1.8382 -0.2806  1.9469
   28MOL   H10414738   1.774   5.242   4.778 -1.0021 -1.7723  2.2011
   28MOL   H10514739   1.531   4.851   5.075  0.0070 -0.5941  0.2978
   28MOL   H10614740   1.680   4.952   5.054  0.4787  1.0233 -1.9894
   28MOL   H10714741   1.608   4.868   4.916 -0.3236 -1.8362  0.9720
   28MOL   H10814742   1.422   4.915   4.811 -1.6413 -1.5420 -0.5957
   28MOL   H10914743   1.322   4.908   4.941 -0.6296 -1.2466 -2.5473
   28MOL   C11014744   0.659   4.844   5.191 -0.4644 -0.1132  0.7212
   28MOL   C11114745   0.803   4.870   5.232 -0.4377  0.6394 -0.6099
   28MOL   C11214746   0.872   4.978   5.150 -0.3556 -0.3250  0.2040
   28MOL   C11314747   0.990   5.035   5.219  0.1814  0.0993  0.4788
   28MOL   C11414748   1.050   5.132   5.122 -0.0239  0.1174 -0.2446
   28MOL   O11514749   1.121   5.071   5.016  0.1211 -0.2493 -0.2082
   28MOL   C11614750   1.173   5.148   4.920  0.0007  0.8105 -0.5273
   28MOL   O11714751   1.156   5.268   4.910  0.0077 -0.8309  0.3004
   28MOL   C11814752   1.259   5.071   4.814 -0.2341 -0.1643  0.1571
   28MOL   C11914753   1.168   4.961   4.754  0.0849 -0.0861 -0.2279
   28MOL   C12014754   1.320   5.162   4.707  0.3373 -0.3440 -0.4549
   28MOL   H12114755   0.598   4.934   5.194  2.3636  1.8436  2.5252
   28MOL   H12214756   0.654   4.799   5.092 -0.7712  2.9467 -0.6925
   28MOL   H12314757   0.611   4.773   5.259 -0.5570 -0.9467 -0.2062
   28MOL   H12414758   0.801   4.907   5.334  5.6379 -1.7035  0.5753
   28MOL   H12514759   0.857   4.776   5.243 -2.5780 -0.7930 -1.9719
   28MOL   H12614760   0.908   4.935   5.057 -2.0918 -0.1887 -0.5632
   28MOL   H12714761   0.803   5.060   5.128  2.2445  1.8570  0.0035
   28MOL   H12814762   1.052   4.951   5.251 -0.9979  0.7551  4.7973
   28MOL   H12914763   0.954   5.091   5.305 -1.7519  1.2436 -1.0441
   28MOL   H13014764   0.976   5.198   5.076 -0.7401 -0.1788  0.4913
   28MOL   H13114765   1.121   5.185   5.186 -0.2857 -0.8127  0.8301
   28MOL   H13214766   1.071   5.003   4.728 -0.2126  1.1577  2.7702
   28MOL   H13314767   1.211   4.904   4.671  0.3204 -1.4549  0.8308
   28MOL   H13414768   1.151   4.880   4.824  1.5274 -0.1791  0.0443
   28MOL   H13514769   1.368   5.245   4.758 -0.7509 -2.1080  3.6385
   28MOL   H13614770   1.402   5.101   4.668 -1.0480 -3.1885  0.9086
   28MOL   C13714771   1.543   4.757   4.073 -0.0901 -0.7212  0.0337
   28MOL   C13814772   1.439   4.692   4.168  0.5988 -0.0358  0.1089
   28MOL   C13914773   1.315   4.777   4.192 -0.0121 -1.0444  0.3602
   28MOL   C14014774   1.337   4.843   4.328 -0.1236  0.4136  0.2418
   28MOL   C14114775   1.220   4.946   4.354 -0.2021  0.1954  0.1571
   28MOL   O14214776   1.266   5.034   4.456 -0.8253 -0.4221 -0.1433
   28MOL   C14314777   1.180   5.127   4.498 -0.0684  0.2046  0.6392
   28MOL   O14414778   1.060   5.141   4.465 -0.0818 -0.0358 -0.2336
   28MOL   C14514779   1.255   5.229   4.584 -0.2312  0.0110 -0.6938
   28MOL   C14614780   1.159   5.343   4.622 -0.4212  0.1045  0.4195
   28MOL   C14714781   1.380   5.298   4.503  0.0689 -0.0238  0.4602
   28MOL   H14814782   1.586   4.849   4.112 -2.3972 -0.2090  1.4337
   28MOL   H14914783   1.494   4.798   3.985  0.5906 -0.8029 -0.3882
   28MOL   H15014784   1.631   4.695   4.055 -1.4635 -2.2721 -1.3792
   28MOL   H15114785   1.487   4.668   4.263  0.5127  2.4590  0.8133
   28MOL   H15214786   1.408   4.595   4.131 -0.0209 -0.0924  0.7629
   28MOL   H15314787   1.293   4.843   4.108 -0.6973 -1.6960  0.0197
   28MOL   H15414788   1.235   4.703   4.194 -0.9262 -0.0848 -0.2987
   28MOL   H15514789   1.333   4.761   4.401 -2.7556  0.7042  0.4794
   28MOL   H15614790   1.433   4.894   4.326 -1.1475  2.2978 -1.2154
   28MOL   H15714791   1.127   4.894   4.377 -1.0387  1.2559 -0.7434
   28MOL   H15814792   1.198   5.008   4.266  0.8356  1.0811  0.5120
   28MOL   H15914793   1.071   5.312   4.679 -1.3071  2.5722  0.4545
   28MOL   H16014794   1.126   5.395   4.531  1.9147 -3.2518 -2.4653
   28MOL   H16114795   1.220   5.413   4.679 -3.2103  1.1477  2.2329
   28MOL   H16214796   1.439   5.348   4.579  1.0655  0.9646 -0.9439
   28MOL   H16314797   1.457   5.223   4.483  0.1075 -0.3622  1.8249
   28MOL   C16414798   1.737   5.644   4.957  0.4825 -0.1876  0.1762
   28MOL   C16514799   1.593   5.674   4.916 -0.3096  0.0404  0.3399
   28MOL   C16614800   1.548   5.639   4.777 -0.2972 -0.5203  0.3823
   28MOL   C16714801   1.409   5.696   4.738 -0.5917 -0.5149 -0.1138
   28MOL   C16814802   1.387   5.710   4.587  0.0268  0.3540 -0.2545
   28MOL   O16914803   1.405   5.580   4.525 -0.2131  1.0864  0.3796
   28MOL   C17014804   1.329   5.540   4.432 -0.7441  0.2546  0.1887
   28MOL   O17114805   1.239   5.603   4.384  0.1445  0.2148  0.6899
   28MOL   C17214806   1.370   5.394   4.375 -0.0846 -0.0556 -0.6570
   28MOL   C17314807   1.246   5.355   4.286  0.7518  0.1577  0.6706
   28MOL   C17414808   1.507   5.419   4.304  0.1077  0.2312 -0.2495
   28MOL   H17514809   1.767   5.693   5.050  0.1126  0.0735  0.1614
   28MOL   H17614810   1.807   5.677   4.880  0.1359 -1.3964 -0.6671
   28MOL   H17714811   1.745   5.535   4.955  1.1461 -0.1667  1.1606
   28MOL   H17814812   1.564   5.777   4.938  0.1544  0.3606 -0.5726
   28MOL   H17914813   1.533   5.621   4.991 -1.8244 -1.3749 -1.8146
   28MOL   H18014814   1.613   5.674   4.697 -2.0612  0.0259 -0.8305
   28MOL   H18114815   1.539   5.531   4.774  1.0345 -0.5836 -2.3558
   28MOL   H18214816   1.389   5.794   4.783  1.9331  0.4122 -0.9583
   28MOL   H18314817   1.331   5.630   4.776 -0.0558 -0.3544  1.3029
   28MOL   H18414818   1.467   5.771   4.544  1.8178 -1.6026  0.2216
   28MOL   H18514819   1.297   5.766   4.561  1.0574  1.3288 -1.8471
   28MOL   H18614820   1.255   5.256   4.240  1.8352  0.2977  0.5738
   28MOL   H18714821   1.228   5.426   4.206 -0.0629  0.2962  0.9775
   28MOL   H18814822   1.149   5.354   4.336  0.9002  1.0673  0.9847
   28MOL   H18914823   1.522   5.526   4.294  1.3577  0.2001  1.1696
   28MOL   H19014824   1.586   5.400   4.376 -1.8106  2.9058  2.6864
   28MOL   C19114825   1.352   5.991   4.238  0.0952  0.3328  0.3149
   28MOL   C19214826   1.246   5.941   4.141 -0.0195  0.0686  0.2185
   28MOL   C19314827   1.283   5.799   4.079  0.0356 -0.0105  0.2497
   28MOL   C19414828   1.401   5.779   3.979 -0.4732  0.1549  0.9375
   28MOL   C19514829   1.413   5.628   3.933  1.5287  0.6513 -0.5947
   28MOL   O19614830   1.494   5.552   4.023 -0.4079 -0.0044  0.3854
   28MOL   C19714831   1.473   5.414   4.041 -0.3863  0.0885 -0.0468
   28MOL   O19814832   1.414   5.342   3.956 -0.9377  0.1030 -0.6605
   28MOL   C19914833   1.550   5.353   4.166  0.3285 -0.7053  0.0013
   28MOL   C20014834   1.531   5.198   4.178  0.1677  0.3614 -0.4822
   28MOL   C20114835   1.706   5.396   4.141  0.0218  0.2166 -0.5819
   28MOL   H20214836   1.345   5.927   4.326 -1.4503  0.8555  0.5822
   28MOL   H20314837   1.453   5.991   4.196 -0.1922  1.4725 -0.3874
   28MOL   H20414838   1.322   6.092   4.262 -0.2048  0.6220 -1.2681
   28MOL   H20514839   1.223   6.013   4.062 -1.1531 -1.4149 -0.8200
   28MOL   H20614840   1.154   5.932   4.199  0.9653 -1.7910  1.5310
   28MOL   H20714841   1.194   5.780   4.018  0.6512  1.4047 -1.1155
   28MOL   H20814842   1.292   5.726   4.160 -0.9820 -1.9684 -1.3405
   28MOL   H20914843   1.375   5.841   3.892 -1.4993 -2.1050 -0.4094
   28MOL   H21014844   1.499   5.799   4.022 -0.8159  0.4686  1.5677
   28MOL   H21114845   1.328   5.571   3.896  0.4942  1.0198  1.1400
   28MOL   H21214846   1.475   5.643   3.845  0.4955  1.0198 -1.2751
   28MOL   H21314847   1.432   5.161   4.207  1.1875 -2.3532 -0.3245
   28MOL   H21414848   1.595   5.157   4.256  0.3891  1.0435 -0.3019
   28MOL   H21514849   1.549   5.149   4.083 -0.7898  1.5860 -1.3136
   28MOL   H21614850   1.753   5.365   4.234 -1.3991 -0.2229  0.0055
   28MOL   H21714851   1.723   5.503   4.151  1.6745 -0.0385 -0.5174
   28MOL   C21814852   1.177   5.068   3.788 -0.0104 -1.1075  0.2725
   28MOL   C21914853   1.301   5.070   3.698 -0.0394 -0.5405 -1.0965
   28MOL   C22014854   1.422   5.024   3.786 -0.2283  0.5870  0.4826
   28MOL   C22114855   1.562   5.044   3.723  0.7804  0.1329  0.2452
   28MOL   C22214856   1.678   5.040   3.825 -0.8207 -0.1056 -0.3798
   28MOL   O22314857   1.681   5.164   3.896  0.2318  0.1082 -0.0611
   28MOL   C22414858   1.784   5.201   3.974 -0.2856 -0.3605  0.2551
   28MOL   O22514859   1.875   5.121   4.005 -0.2217  0.8186  0.1396
   28MOL   C22614860   1.793   5.349   4.015 -0.0381 -0.3298  0.0362
   28MOL   C22714861   1.936   5.379   4.062  0.5212 -0.1748  0.1499
   28MOL   C22814862   1.769   5.439   3.893  0.6084  0.5072 -0.0200
   28MOL   H22914863   1.162   4.979   3.850 -0.0579 -0.7173  0.8189
   28MOL   H23014864   1.170   5.153   3.856 -1.4323 -0.6069 -0.4779
   28MOL   H23114865   1.086   5.070   3.727  1.5419  1.2779 -2.0721
   28MOL   H23214866   1.299   5.169   3.652 -1.9896  0.5516  1.1700
   28MOL   H23314867   1.285   5.011   3.608 -2.4067 -0.9704 -0.4376
   28MOL   H23414868   1.415   4.919   3.811  1.6468  0.1965 -0.5540
   28MOL   H23514869   1.435   5.080   3.879  1.0261 -0.4797  0.9598
   28MOL   H23614870   1.580   4.961   3.654  2.8595 -0.6758  1.7197
   28MOL   H23714871   1.558   5.134   3.661 -0.0072  0.9197  1.4313
   28MOL   H23814872   1.779   5.047   3.784 -0.7138 -1.3668 -0.3404
   28MOL   H23914873   1.677   4.958   3.897  1.1985  0.5185  0.3978
   28MOL   H24014874   1.970   5.321   4.147 -2.2917 -0.3603  1.1885
   28MOL   H24114875   1.956   5.484   4.083 -1.5113  0.4348 -0.7427
   28MOL   H24214876   2.010   5.365   3.984  0.1124  0.4508 -0.3656
   28MOL   H24314877   1.756   5.537   3.938 -1.8925  0.6290 -0.9233
   28MOL   H24414878   1.668   5.406   3.868  1.5475 -1.2660 -1.6640
   28MOL   C24514879   1.176   5.538   3.290 -0.0123 -0.2226  0.1756
   28MOL   C24614880   1.292   5.446   3.344 -0.2465  0.8086 -0.5721
   28MOL   C24714881   1.307   5.491   3.497 -0.2539  0.1067  0.5926
   28MOL   C24814882   1.423   5.419   3.556  0.2669 -0.2566  0.4543
   28MOL   C24914883   1.550   5.487   3.513 -0.1734 -0.3090 -0.2241
   28MOL   O25014884   1.667   5.433   3.581  0.5070  0.0152  0.4723
   28MOL   C25114885   1.736   5.523   3.669 -0.3630  0.4428 -0.4796
   28MOL   O25214886   1.699   5.638   3.683  0.1304 -0.1057 -0.0913
   28MOL   C25314887   1.845   5.456   3.755 -0.5795  0.3818 -0.3172
   28MOL   C25414888   1.895   5.325   3.699 -0.0443  0.0464  0.6647
   28MOL   C25514889   1.960   5.563   3.781 -0.0846  0.7168  0.0714
   28MOL   H25614890   1.084   5.521   3.345  0.8251 -0.1499  1.6437
   28MOL   H25714891   1.193   5.643   3.314 -0.0214  0.1341 -1.3263
   28MOL   H25814892   1.163   5.519   3.184 -4.7293 -0.2093  0.6782
   28MOL   H25914893   1.266   5.340   3.335  1.4920  0.2888  0.4187
   28MOL   H26014894   1.370   5.467   3.272  0.6947 -0.7366 -0.0389
   28MOL   H26114895   1.215   5.460   3.546 -0.1059 -2.6679 -0.7316
   28MOL   H26214896   1.305   5.599   3.509 -1.1246  0.3951 -1.8985
   28MOL   H26314897   1.420   5.425   3.665  2.8982 -1.2613  0.6351
   28MOL   H26414898   1.424   5.314   3.529  0.0766 -1.0327  3.3418
   28MOL   H26514899   1.561   5.472   3.406  0.3460  0.0678 -0.2290
   28MOL   H26614900   1.553   5.596   3.524 -0.1036 -0.2782 -0.5533
   28MOL   H26714901   1.974   5.279   3.759  0.2522  0.3099  0.4721
   28MOL   H26814902   1.818   5.247   3.695 -0.7913  0.8698 -1.3569
   28MOL   H26914903   1.929   5.343   3.597  0.8010  0.2775  0.9776
   28MOL   H27014904   1.913   5.655   3.816 -1.1167  0.5016 -0.7210
   28MOL   H27114905   2.018   5.534   3.869  1.4672  1.4293 -0.6879
   28MOL   C27214906   2.129   5.634   3.038 -0.4891  0.2265  0.1262
   28MOL   C27314907   2.262   5.635   3.123  0.2552 -0.2410  0.3418
   28MOL   C27414908   2.270   5.526   3.223  0.4637  0.3211  0.4271
   28MOL   C27514909   2.388   5.530   3.333  0.9408  0.2592 -0.4878
   28MOL   C27614910   2.347   5.462   3.469 -0.3159 -0.1059  0.1624
   28MOL   O27714911   2.242   5.541   3.528 -0.6211 -0.0521  0.2209
   28MOL   C27814912   2.175   5.498   3.629  0.1919  0.9544  0.0885
   28MOL   O27914913   2.195   5.404   3.708 -0.2781  0.3116 -0.2690
   28MOL   C28014914   2.075   5.607   3.675  0.6642  0.3260  0.0982
   28MOL   C28114915   1.997   5.644   3.544 -0.6602  0.2027  0.6107
   28MOL   C28214916   2.151   5.738   3.728  0.8942 -0.1506 -0.3575
   28MOL   H28314917   2.140   5.563   2.956 -0.3995 -0.7640  0.9828
   28MOL   H28414918   2.043   5.608   3.099 -0.8461  0.2574 -0.3605
   28MOL   H28514919   2.112   5.735   3.001  0.9724  0.6662  0.6520
   28MOL   H28614920   2.348   5.631   3.057 -0.1261  1.1189 -0.2396
   28MOL   H28714921   2.275   5.731   3.173  2.2592 -1.3358  2.0338
   28MOL   H28814922   2.178   5.527   3.281 -0.8338  0.2095 -1.5972
   28MOL   H28914923   2.261   5.427   3.178  2.2460 -1.1188  3.0355
   28MOL   H29014924   2.473   5.478   3.288 -0.5656 -3.4631  0.8581
   28MOL   H29114925   2.423   5.632   3.352  1.2495 -0.0222  0.4665
   28MOL   H29214926   2.428   5.459   3.541  0.8348  0.8789 -1.0697
   28MOL   H29314927   2.317   5.361   3.444  2.1700 -0.6509 -0.7733
   28MOL   H29414928   1.958   5.554   3.496  0.1860  0.4958 -0.6492
   28MOL   H29514929   1.917   5.709   3.578 -0.5139  0.2077  0.9482
   28MOL   H29614930   2.055   5.696   3.468  0.5900 -1.1276  0.6178
   28MOL   H29714931   2.222   5.752   3.646 -0.6774  1.5576 -1.4777
   28MOL   H29814932   2.104   5.834   3.708  0.7582  0.1898  1.4757
   28MOL   C29914933   1.916   6.281   3.975 -0.1610  0.1688 -0.6623
   28MOL   C30014934   1.908   6.128   3.935 -0.2005 -0.6998  0.7497
   28MOL   C30114935   1.846   6.048   4.059  0.4398 -0.6507 -0.2662
   28MOL   C30214936   1.825   5.891   4.034 -0.4186 -0.1144 -0.0641
   28MOL   C30314937   1.945   5.814   4.083  0.5827 -1.3569 -0.4611
   28MOL   O30414938   2.040   5.821   3.981  0.2141 -0.3705 -0.2508
   28MOL   C30514939   2.149   5.738   3.983  0.1166  0.1930 -0.3950
   28MOL   O30614940   2.176   5.657   4.068 -0.7606  0.1501  0.1174
   28MOL   C30714941   2.243   5.757   3.856  0.4157  0.0055 -0.6175
   28MOL   C30814942   2.359   5.652   3.859  0.1078 -0.8876  0.1408
   28MOL   C30914943   2.297   5.903   3.854  0.2998  0.3010 -0.4095
   28MOL   H31014944   2.006   6.297   4.036  0.9547 -1.5714 -1.8043
   28MOL   H31114945   1.835   6.309   4.043  0.2906  0.8888 -0.4090
   28MOL   H31214946   1.920   6.341   3.884  1.6641  0.7675 -0.2242
   28MOL   H31314947   2.007   6.091   3.909 -1.9053 -2.1183 -4.2431
   28MOL   H31414948   1.835   6.114   3.855  1.6354  0.0424 -1.0960
   28MOL   H31514949   1.748   6.090   4.081  0.8157  0.3854 -0.5628
   28MOL   H31614950   1.901   6.066   4.152  1.1724 -1.6135 -0.5009
   28MOL   H31714951   1.805   5.864   3.930 -1.9360 -3.0814  0.9359
   28MOL   H31814952   1.741   5.859   4.095 -0.3351 -0.7655 -0.2809
   28MOL   H31914953   1.983   5.852   4.177 -0.5349  2.0735 -1.3461
   28MOL   H32014954   1.910   5.714   4.109 -0.9906 -0.4758  0.8908
   28MOL   H32114955   2.307   5.556   3.863  0.0359 -0.7903  1.9768
   28MOL   H32214956   2.427   5.651   3.774 -2.2863 -0.8821 -1.8338
   28MOL   H32314957   2.414   5.660   3.953 -0.0035  1.6283  0.0156
   28MOL   H32414958   2.205   5.962   3.853 -2.1936 -3.4016  0.2248
   28MOL   H32514959   2.341   5.907   3.755  4.4369  0.6749  1.3589
   28MOL   C32614960   3.107   5.654   3.584 -0.0754 -0.3508 -0.9688
   28MOL   C32714961   2.959   5.646   3.640 -0.6246  0.3697 -0.4821
   28MOL   C32814962   2.921   5.776   3.704  0.2147 -0.2136  0.1989
   28MOL   C32914963   2.771   5.807   3.738  0.0776 -0.1250 -0.1839
   28MOL   C33014964   2.748   5.936   3.820  0.1380  1.0459  0.2510
   28MOL   O33114965   2.606   5.961   3.840  0.0811 -0.0302  0.8892
   28MOL   C33214966   2.536   5.927   3.954  0.4041  0.2414 -0.1873
   28MOL   O33314967   2.575   5.852   4.044 -0.3689  0.1995 -0.8844
   28MOL   C33414968   2.390   5.981   3.957  0.3988  0.3576  0.4875
   28MOL   C33514969   2.393   6.130   3.902  0.1783 -0.0029 -0.4062
   28MOL   C33614970   2.332   5.970   4.109  0.0733  0.3068  0.2178
   28MOL   H33714971   3.176   5.627   3.664  0.3729 -1.4406 -1.7043
   28MOL   H33814972   3.127   5.747   3.531 -0.2561  0.3620  0.2074
   28MOL   H33914973   3.121   5.575   3.510  1.9695 -2.7924  1.9340
   28MOL   H34014974   2.950   5.575   3.722 -0.0356  1.6041  0.6758
   28MOL   H34114975   2.887   5.601   3.571 -0.2045 -2.1564  0.6879
   28MOL   H34214976   2.951   5.860   3.641 -0.1203 -0.8988 -0.8887
   28MOL   H34314977   2.972   5.788   3.799 -0.0162 -2.4103  0.6285
   28MOL   H34414978   2.713   5.727   3.783  0.5867 -0.3281  0.1188
   28MOL   H34514979   2.738   5.828   3.636 -0.1996 -2.0132 -0.4975
   28MOL   H34614980   2.793   6.025   3.776 -0.9461  0.5490 -1.9400
   28MOL   H34714981   2.807   5.929   3.912  1.1692  1.4436 -0.3745
   28MOL   H34814982   2.486   6.184   3.922  0.0910 -0.4656  1.3090
   28MOL   H34914983   2.303   6.188   3.919 -0.0142  0.0710 -1.6082
   28MOL   H35014984   2.396   6.125   3.793 -1.9685 -0.7886 -0.4524
   28MOL   H35114985   2.344   5.870   4.151  2.4756  0.4885  0.0296
   28MOL   H35214986   2.224   5.976   4.102  0.0616 -1.5471 -1.8968
   28MOL   C35314987   3.140   5.800   4.445  0.5118 -0.5912  0.3451
   28MOL   C35414988   2.991   5.805   4.413  0.5422  0.6534  0.0884
   28MOL   C35514989   2.917   5.928   4.470  0.2697 -0.3209  0.0846
   28MOL   C35614990   2.764   5.914   4.463 -0.3187  0.6096 -0.3204
   28MOL   C35714991   2.723   5.962   4.330 -0.0061 -0.3162 -0.8600
   28MOL   O35814992   2.584   5.972   4.312  0.7114 -0.6007 -0.3701
   28MOL   C35914993   2.529   6.073   4.241  0.3928  0.2397 -0.7882
   28MOL   O36014994   2.593   6.152   4.179  0.2445 -0.2485  1.2513
   28MOL   C36114995   2.379   6.061   4.231  0.1511 -0.7414 -0.4273
   28MOL   C36214996   2.316   6.009   4.364 -0.2419  0.8461  0.4187
   28MOL   C36314997   2.310   6.197   4.216 -0.2493 -0.1669 -0.4042
   28MOL   H36414998   3.207   5.728   4.398  0.7054  0.3070 -0.7752
   28MOL   H36514999   3.144   5.778   4.552  3.3564  1.1729  0.6760
   28MOL   H36615000   3.188   5.897   4.432 -1.6433  0.5485  0.7932
   28MOL   H36715001   2.975   5.797   4.305 -0.4597 -0.3841  0.2939
   28MOL   H36815002   2.946   5.712   4.449 -0.1478  0.3489 -1.4875
   28MOL   H36915003   2.950   6.019   4.420 -1.0119  0.3901  0.4839
   28MOL   H37015004   2.941   5.934   4.576 -1.3334  0.0989  0.4470
   28MOL   H37115005   2.720   5.985   4.532 -0.1930  0.7122 -0.3449
   28MOL   H37215006   2.731   5.813   4.488 -0.7030  0.3602 -1.7925
   28MOL   H37315007   2.759   6.063   4.311  0.1678 -0.1815  0.1430
   28MOL   H37415008   2.773   5.901   4.254  0.1612 -0.0021 -1.0058
   28MOL   H37515009   2.333   5.901   4.369 -1.2902  0.7192  1.3547
   28MOL   H37615010   2.360   6.051   4.454  0.1451  1.7112 -0.1580
   28MOL   H37715011   2.208   6.014   4.363 -0.2656  0.3508 -0.0618
   28MOL   H37815012   2.361   6.232   4.126  0.7033  0.4301  0.3571
   28MOL   H37915013   2.208   6.176   4.186 -0.7679 -0.1332  1.3143
   28MOL   C38015014   1.658   5.957   4.431 -0.0943 -0.1367  0.5591
   28MOL   C38115015   1.624   6.104   4.437  1.2171  0.0020 -0.3238
   28MOL   C38215016   1.736   6.198   4.482  0.6743  0.5951 -0.2089
   28MOL   C38315017   1.864   6.200   4.405 -0.3538 -0.7410 -0.5488
   28MOL   C38415018   1.977   6.283   4.468 -0.8478 -0.3015  0.7779
   28MOL   O38515019   2.089   6.282   4.374 -0.0959  0.5972  0.3762
   28MOL   C38615020   2.209   6.302   4.427 -0.7287 -0.4203 -0.1404
   28MOL   O38715021   2.234   6.315   4.542  0.0576 -0.1134 -0.0663
   28MOL   C38815022   2.313   6.320   4.312 -0.1565 -0.2940  0.0921
   28MOL   C38915023   2.454   6.357   4.365  0.2934 -0.5419  0.4877
   28MOL   C39015024   2.264   6.440   4.218  0.2890 -0.3841  0.1982
   28MOL   H39115025   1.707   5.936   4.526  0.7364 -1.0051 -0.0455
   28MOL   H39215026   1.572   5.894   4.411  1.7023 -1.9104 -1.9547
   28MOL   H39315027   1.736   5.941   4.357 -2.6627  2.0715 -2.7728
   28MOL   H39415028   1.533   6.116   4.496  0.0738 -2.5290 -1.4838
   28MOL   H39515029   1.608   6.131   4.332  2.1439  1.8561  0.0012
   28MOL   H39615030   1.694   6.298   4.487  2.1200  1.1978 -0.0967
   28MOL   H39715031   1.759   6.164   4.584 -2.4480 -0.0646  0.3503
   28MOL   H39815032   1.901   6.098   4.394 -2.0146 -1.3232 -0.8938
   28MOL   H39915033   1.848   6.239   4.304  1.6684 -0.8686 -0.9281
   28MOL   H40015034   1.988   6.255   4.573  1.2387 -2.8108 -0.0876
   28MOL   H40115035   1.950   6.389   4.473 -2.3732 -0.5257 -1.8848
   28MOL   H40215036   2.500   6.269   4.411  2.6732 -0.9624 -2.5666
   28MOL   H40315037   2.445   6.441   4.434  1.6698  3.4808 -4.0338
   28MOL   H40415038   2.521   6.383   4.284 -2.1554  3.0571 -0.5072
   28MOL   H40515039   2.162   6.415   4.187 -0.4291  0.5555  1.7302
   28MOL   H40615040   2.313   6.434   4.121 -0.5645 -1.5499 -0.1749
   28MOL   C40715041   2.327   6.418   3.581  0.3540  0.0064  0.1124
   28MOL   C40815042   2.276   6.545   3.641 -0.1387  0.0684 -0.3574
   28MOL   C40915043   2.161   6.530   3.738  0.3709  0.4871  0.0383
   28MOL   C41015044   2.104   6.661   3.794 -0.3365  0.1452 -0.1868
   28MOL   C41115045   2.046   6.652   3.938  0.0029 -0.4067  0.1752
   28MOL   O41215046   2.147   6.612   4.023  0.5694  0.0304 -0.3262
   28MOL   C41315047   2.130   6.643   4.157  0.0551  0.1962 -0.0490
   28MOL   O41415048   2.029   6.707   4.198  0.2606 -0.0377 -0.8115
   28MOL   C41515049   2.243   6.593   4.255  0.1434  0.5187  0.0787
   28MOL   C41615050   2.200   6.616   4.401  0.2996  0.6206  0.1264
   28MOL   C41715051   2.377   6.668   4.217 -0.2431  0.1063  0.4957
   28MOL   H41815052   2.375   6.347   3.649  1.1208 -0.3299 -0.7611
   28MOL   H41915053   2.254   6.364   3.522  1.6086 -0.9138 -0.6289
   28MOL   H42015054   2.394   6.449   3.501  0.2213 -2.2203 -0.8880
   28MOL   H42115055   2.247   6.603   3.553 -0.5521  0.0965 -0.2046
   28MOL   H42215056   2.354   6.600   3.695 -0.2274 -1.2576  1.1495
   28MOL   H42315057   2.083   6.477   3.683 -0.2770  1.1958  0.2467
   28MOL   H42415058   2.190   6.469   3.823 -0.9140  0.9742  0.8426
   28MOL   H42515059   2.023   6.696   3.730  0.7552  0.0416 -1.6591
   28MOL   H42615060   2.177   6.742   3.791 -0.6310  0.4782  1.5782
   28MOL   H42715061   2.010   6.754   3.956  0.7934 -0.1350  0.2874
   28MOL   H42815062   1.973   6.572   3.941  2.6447 -2.9389 -0.8055
   28MOL   H42915063   2.283   6.590   4.468  0.5845  1.6120  0.1641
   28MOL   H43015064   2.110   6.565   4.436  0.0329 -0.2062 -1.7418
   28MOL   H43115065   2.195   6.723   4.421  1.6853  0.8979 -0.8999
   28MOL   H43215066   2.398   6.659   4.111  0.2030  0.4128  0.5590
   28MOL   H43315067   2.452   6.611   4.272 -0.2242 -0.8091 -0.4613
   28MOL   C43415068   2.431   7.438   4.341 -0.0017  0.4187  0.4392
   28MOL   C43515069   2.409   7.289   4.378  0.5581  0.5255 -0.5602
   28MOL   C43615070   2.351   7.275   4.519 -0.2512 -0.1244  0.4770
   28MOL   C43715071   2.292   7.138   4.552  0.2245  0.5702  0.1455
   28MOL   C43815072   2.395   7.027   4.543 -0.2056  0.9521  0.3986
   28MOL   O43915073   2.396   6.982   4.407 -0.6892 -0.1644  0.0666
   28MOL   C44015074   2.430   6.858   4.382 -0.7505  0.4947  1.2405
   28MOL   O44115075   2.471   6.781   4.468  0.4066  0.7752  0.0251
   28MOL   C44215076   2.411   6.819   4.234 -0.3827  0.0747  0.9493
   28MOL   C44315077   2.303   6.913   4.169 -0.1138  0.2065  0.2360
   28MOL   C44415078   2.539   6.860   4.147 -0.6331 -0.5275  0.1882
   28MOL   H44515079   2.333   7.477   4.315  1.2798  3.2198 -0.4106
   28MOL   H44615080   2.459   7.495   4.429  1.8994 -0.2744  0.3070
   28MOL   H44715081   2.492   7.449   4.251 -0.4459 -2.0809 -0.1834
   28MOL   H44815082   2.348   7.246   4.298  0.2356  1.3592 -0.7718
   28MOL   H44915083   2.508   7.246   4.386 -0.1673 -0.9498  0.8183
   28MOL   H45015084   2.436   7.293   4.586 -0.0422  0.1559  0.1414
   28MOL   H45115085   2.278   7.351   4.545  0.1369 -0.0773  1.4587
   28MOL   H45215086   2.207   7.110   4.490  2.2510 -0.7946 -2.0994
   28MOL   H45315087   2.258   7.145   4.655 -1.9283  1.3388 -0.6064
   28MOL   H45415088   2.362   6.955   4.618  1.0457 -1.9646 -1.7401
   28MOL   H45515089   2.494   7.063   4.572  0.8155  1.1823 -3.1941
   28MOL   H45615090   2.203   6.912   4.213  0.3001  0.0614  1.1795
   28MOL   H45715091   2.320   7.021   4.173 -0.1183  0.3969 -3.1460
   28MOL   H45815092   2.289   6.886   4.064  1.1953 -0.9733  0.3547
   28MOL   H45915093   2.560   6.964   4.172 -0.3991 -0.4602 -0.2777
   28MOL   H46015094   2.510   6.866   4.042 -1.7312  1.0171  0.5553
   28MOL   C46115095   3.195   6.413   4.378  0.1633 -0.1603 -0.2367
   28MOL   C46215096   3.080   6.336   4.318  0.5900 -1.1676 -0.4941
   28MOL   C46315097   2.976   6.431   4.251 -0.6172 -0.5978  0.0651
   28MOL   C46415098   2.847   6.359   4.211  0.7093  0.3630 -0.4366
   28MOL   C46515099   2.764   6.426   4.105 -0.7097 -0.4682 -0.4834
   28MOL   O46615100   2.738   6.549   4.169 -0.1935  0.4824  0.0943
   28MOL   C46715101   2.668   6.643   4.100  0.0415  0.5014  0.3344
   28MOL   O46815102   2.619   6.622   3.993  0.2096  0.1388  0.3883
   28MOL   C46915103   2.681   6.788   4.153  0.4372 -0.0737 -0.3347
   28MOL   C47015104   2.735   6.779   4.306 -0.2955  0.0843 -1.0056
   28MOL   C47115105   2.790   6.858   4.049  0.1192 -0.4850 -0.1588
   28MOL   H47215106   3.148   6.495   4.433 -0.7335 -0.6828 -0.2195
   28MOL   H47315107   3.256   6.450   4.296  0.3619 -0.5523 -0.2662
   28MOL   H47415108   3.248   6.347   4.446  0.1551 -0.6143 -0.6703
   28MOL   H47515109   3.036   6.275   4.397  0.2186  0.2826  0.4475
   28MOL   H47615110   3.117   6.273   4.238  0.4881 -1.3865 -0.3662
   28MOL   H47715111   3.015   6.473   4.158 -2.5311 -0.8884 -0.8775
   28MOL   H47815112   2.956   6.520   4.311 -1.0922  2.7824 -4.8340
   28MOL   H47915113   2.783   6.333   4.295  0.3292  0.8471 -0.5724
   28MOL   H48015114   2.876   6.263   4.169  0.7732  0.6683 -1.0885
   28MOL   H48115115   2.830   6.446   4.021 -0.2016 -3.1884 -0.7628
   28MOL   H48215116   2.672   6.376   4.075 -0.6239 -0.9269  0.0225
   28MOL   H48315117   2.685   6.700   4.363  2.1610 -1.5353 -0.9858
   28MOL   H48415118   2.718   6.871   4.362  0.6480 -0.3840  0.0728
   28MOL   H48515119   2.840   6.758   4.326 -0.0207  2.0280 -0.2893
   28MOL   H48615120   2.741   6.885   3.955  0.9884  1.3034 -0.1240
   28MOL   H48715121   2.861   6.780   4.023 -1.7302 -1.8937 -1.1540
   28MOL   C48815122   2.752   7.564   3.657  0.3273 -0.0888  0.2325
   28MOL   C48915123   2.728   7.531   3.807 -0.2321 -0.6022 -0.4355
   28MOL   C49015124   2.692   7.383   3.842  0.4850  0.3656  0.3626
   28MOL   C49115125   2.662   7.372   3.999 -0.0664 -0.4131 -0.5432
   28MOL   C49215126   2.590   7.242   4.031 -0.2499 -0.2556  0.1428
   28MOL   O49315127   2.681   7.132   4.028 -0.1046 -0.0756  0.0165
   28MOL   C49415128   2.764   7.107   4.124  0.3686 -0.1008 -0.0691
   28MOL   O49515129   2.755   7.156   4.240  0.4423  0.6674  0.0589
   28MOL   C49615130   2.863   6.998   4.085  0.1851  0.1614  0.6089
   28MOL   C49715131   2.931   7.036   3.954  0.5057 -0.6840 -0.1403
   28MOL   C49815132   2.979   6.967   4.188  0.0491  0.4624  0.5607
   28MOL   H49915133   2.775   7.670   3.646 -0.3253 -0.0222 -0.6094
   28MOL   H50015134   2.830   7.499   3.615  0.5760  0.2628  0.1423
   28MOL   H50115135   2.662   7.556   3.597  0.9389  0.5973 -0.8105
   28MOL   H50215136   2.648   7.592   3.848 -1.4783 -1.2500 -1.8293
   28MOL   H50315137   2.813   7.568   3.864  1.4049 -0.7513 -2.6867
   28MOL   H50415138   2.606   7.359   3.779  1.1910  1.3865 -1.0257
   28MOL   H50515139   2.765   7.311   3.806 -1.3518 -0.6838 -1.3376
   28MOL   H50615140   2.601   7.450   4.044  1.6200  0.3680  0.4067
   28MOL   H50715141   2.755   7.381   4.054 -0.5781 -0.1593  0.2929
   28MOL   H50815142   2.542   7.252   4.128  1.2440 -0.8660  0.9752
   28MOL   H50915143   2.518   7.223   3.952 -0.0246  0.4354 -0.2285
   28MOL   H51015144   2.959   7.141   3.963  1.0070 -0.9682  1.7351
   28MOL   H51115145   2.866   7.034   3.867  0.8135  2.6166 -0.5177
   28MOL   H51215146   3.006   6.967   3.916  2.5349  0.7403  1.1621
   28MOL   H51315147   3.009   6.865   4.164  0.9276  0.9104 -0.2858
   28MOL   H51415148   2.929   6.961   4.285  1.8651 -0.0086  1.4951
   28MOL   C51515149   3.046   6.608   3.860 -0.2126 -0.0020  0.3113
   28MOL   C51615150   3.187   6.560   3.903 -0.0858 -0.9247 -0.6257
   28MOL   C51715151   3.271   6.656   3.991  0.0530  0.0014  0.0278
   28MOL   C51815152   3.298   6.789   3.922  0.0315 -0.2280  0.5106
   28MOL   C51915153   3.356   6.903   4.004  0.5008 -0.1994  0.3816
   28MOL   O52015154   3.262   6.948   4.110 -0.0580 -0.3976  0.1449
   28MOL   C52115155   3.213   7.061   4.107 -0.4669  0.1859  0.2329
   28MOL   O52215156   3.252   7.155   4.039  0.8187 -0.9953  0.2009
   28MOL   C52315157   3.103   7.065   4.220  0.2809 -0.1693  0.5646
   28MOL   C52415158   3.166   7.015   4.348  0.1828 -0.2444 -0.6116
   28MOL   C52515159   3.057   7.213   4.237 -0.0677  0.2392 -0.3746
   28MOL   H52615160   2.994   6.538   3.794 -2.2944  1.6303  0.1520
   28MOL   H52715161   2.979   6.622   3.945 -1.0493 -2.1763  0.0449
   28MOL   H52815162   3.046   6.701   3.803 -0.4777  0.5476  1.1927
   28MOL   H52915163   3.180   6.469   3.961 -0.4590 -1.3183 -1.2789
   28MOL   H53015164   3.237   6.539   3.808 -0.9222  0.5396 -1.4122
   28MOL   H53115165   3.215   6.674   4.083 -0.1517 -1.4330  0.2004
   28MOL   H53215166   3.368   6.610   4.009  0.6576  1.0196 -0.5411
   28MOL   H53315167   3.202   6.830   3.892  0.0878  0.7860  1.6225
   28MOL   H53415168   3.344   6.783   3.824 -1.3142 -3.7376  0.0224
   28MOL   H53515169   3.452   6.871   4.043  0.5515  1.5920  1.8223
   28MOL   H53615170   3.379   6.986   3.936 -0.0012 -0.0457  0.3902
   28MOL   H53715171   3.118   7.054   4.437 -2.2025 -0.0121 -1.9660
   28MOL   H53815172   3.267   7.056   4.355  0.5859 -1.1720 -0.9288
   28MOL   H53915173   3.180   6.907   4.338 -0.7441 -0.5142  0.8302
   28MOL   H54015174   3.004   7.254   4.151 -0.7427 -1.2009 -0.6770
   28MOL   H54115175   3.143   7.271   4.269  0.8839  0.1378 -2.6016
   28MOL   H54215176   2.988   7.217   4.321 -1.0153  0.4522 -1.1538
   29MOL     C115177   3.439   5.809   1.141 -0.3872  0.2887  0.8266
   29MOL     C215178   3.388   5.820   0.997  0.6361 -0.1695 -0.0631
   29MOL     C315179   3.492   5.869   0.892  0.3811  0.4483 -0.4993
   29MOL     C415180   3.492   6.020   0.873 -0.2302  0.2849  0.4077
   29MOL     C515181   3.591   6.056   0.767 -0.3718  0.7832  0.4572
   29MOL     O615182   3.540   6.024   0.642  0.4677 -0.5773 -0.1595
   29MOL     C715183   3.493   6.115   0.561  0.2610 -0.1279  0.0699
   29MOL     O815184   3.494   6.237   0.573  0.3214  0.4376  0.4490
   29MOL     C915185   3.425   6.050   0.440 -0.3955 -0.1038  0.4296
   29MOL    C1015186   3.523   5.956   0.368  0.0872  0.3273  0.0878
   29MOL    C1115187   3.351   6.155   0.343  0.4054 -0.4484 -0.1773
   29MOL    H1215188   3.470   5.906   1.179  0.0041  0.6835 -0.4812
   29MOL    H1315189   3.534   5.755   1.135 -0.0185  1.1558 -1.6794
   29MOL    H1415190   3.378   5.765   1.220  0.7181 -2.2161  0.3372
   29MOL    H1515191   3.356   5.725   0.955 -3.4976  1.1076 -0.0971
   29MOL    H1615192   3.301   5.883   0.979 -0.4480 -1.9452 -1.1826
   29MOL    H1715193   3.593   5.859   0.931  0.4511 -0.3621 -0.8664
   29MOL    H1815194   3.480   5.812   0.799 -1.8930 -1.1419  0.7262
   29MOL    H1915195   3.519   6.079   0.960 -0.2449 -0.7281  1.0990
   29MOL    H2015196   3.393   6.060   0.849 -0.9210 -0.7361  1.5360
   29MOL    H2115197   3.621   6.161   0.767 -0.4495  0.8163  1.7861
   29MOL    H2215198   3.684   5.999   0.773 -0.9701 -0.1411  1.1944
   29MOL    H2315199   3.619   5.950   0.418  0.7933 -0.4565 -1.3280
   29MOL    H2415200   3.532   5.973   0.261  0.8683  0.3029  0.1487
   29MOL    H2515201   3.489   5.852   0.374  0.0695  0.2525 -1.1152
   29MOL    H2615202   3.426   6.207   0.284  0.4953  0.9549  1.1576
   29MOL    H2715203   3.304   6.235   0.399 -1.2415 -0.9438 -0.8093
   29MOL    H2815204   3.343   5.990   0.480  1.5282 -2.4421  1.0010
   29MOL    C2915205   3.791   6.340   7.759 -0.5827 -0.2026 -0.6087
   29MOL    C3015206   3.671   6.364   7.673  0.4787 -0.2145 -0.0723
   29MOL    C3115207   3.562   6.250   7.689 -0.1543  0.2615  0.3545
   29MOL    C3215208   3.603   6.126   7.766  0.6211  1.0086 -0.2891
   29MOL    C3315209   3.478   6.034   7.784  0.1287  0.1006 -0.3102
   29MOL    O3415210   3.394   6.097   0.071 -0.3985 -0.0026  1.0022
   29MOL    C3515211   3.296   6.038   0.132  0.1024  0.0426 -0.8912
   29MOL    O3615212   3.259   5.925   0.110 -0.1616  0.8641 -0.5708
   29MOL    C3715213   3.225   6.117   0.247 -0.1730  0.0041 -0.5050
   29MOL    C3815214   3.176   6.245   0.187 -0.0799 -0.0067  0.1723
   29MOL    C3915215   3.107   6.045   0.310  1.0770 -1.4977  0.0627
   29MOL    H4015216   3.862   6.415   7.727 -0.2237 -0.6394 -0.8459
   29MOL    H4115217   3.762   6.352   0.050  0.3474  1.9532 -0.5804
   29MOL    H4215218   3.846   6.246   7.756 -0.0020  0.0749  0.8611
   29MOL    H4315219   3.711   6.338   7.575 -0.5850 -0.6597 -0.3950
   29MOL    H4415220   3.622   6.461   7.679 -0.4299 -0.8468  4.1347
   29MOL    H4515221   3.527   6.207   7.595 -1.4834 -0.2950  1.0932
   29MOL    H4615222   3.470   6.283   7.738 -0.5652  0.4912 -0.5560
   29MOL    H4715223   3.683   6.074   7.713 -1.4484 -0.6518 -1.8788
   29MOL    H4815224   3.640   6.147   0.053 -2.5092  1.0494  0.8866
   29MOL    H4915225   3.505   5.937   0.011 -2.5125  0.5063  2.6758
   29MOL    H5015226   3.413   6.019   7.698  0.2269 -0.1663 -0.3368
   29MOL    H5115227   3.236   6.279   0.102  0.8976  0.0528  0.8834
   29MOL    H5215228   3.180   6.321   0.265 -0.5947 -0.8330  1.0217
   29MOL    H5315229   3.076   6.239   0.144  0.1027 -1.2122 -0.0988
   29MOL    H5415230   3.128   5.938   0.319  0.3680 -1.6814 -0.3689
   29MOL    H5515231   3.031   6.039   0.232  0.6244  0.3405  0.3398
   29MOL    C5615232   2.373   6.616   0.252  0.2022  0.3019  0.4261
   29MOL    C5715233   2.457   6.509   0.321 -0.4479  0.1015  0.7700
   29MOL    C5815234   2.600   6.482   0.257 -0.3513  0.0865 -0.4558
   29MOL    C5915235   2.677   6.369   0.334 -0.0869 -0.0062  0.1817
   29MOL    C6015236   2.811   6.348   0.262 -0.7576  0.3375  0.4864
   29MOL    O6115237   2.881   6.235   0.311 -0.4609  0.6258 -0.5310
   29MOL    C6215238   2.965   6.237   0.404  0.0400 -0.7084 -0.3825
   29MOL    O6315239   2.991   6.335   0.465 -0.5274  0.2579  0.4086
   29MOL    C6415240   3.022   6.093   0.436 -0.4118  0.2906 -0.2968
   29MOL    C6515241   3.106   6.099   0.560 -0.4036  0.3599 -0.5253
   29MOL    C6615242   2.904   5.986   0.441  0.1591 -0.1429 -0.5565
   29MOL    H6715243   2.270   6.611   0.288 -0.3258 -0.8859 -1.1868
   29MOL    H6815244   2.355   6.604   0.145 -0.6864 -0.3158  0.6356
   29MOL    H6915245   2.414   6.716   0.265 -1.1608  1.1878 -1.6991
   29MOL    H7015246   2.473   6.531   0.426 -1.7504  0.4758  0.8905
   29MOL    H7115247   2.393   6.422   0.319 -0.3820  0.0757 -1.0576
   29MOL    H7215248   2.602   6.461   0.151  0.2918  2.9326 -1.0421
   29MOL    H7315249   2.663   6.570   0.264  0.9454 -0.8770  0.1963
   29MOL    H7415250   2.618   6.278   0.345  0.2544 -0.1693  0.7141
   29MOL    H7515251   2.705   6.399   0.435 -2.9394 -0.5589  1.1841
   29MOL    H7615252   2.792   6.337   0.156  0.6011 -0.7804  0.3359
   29MOL    H7715253   2.875   6.436   0.268  1.6175 -1.2167 -1.0465
   29MOL    H7815254   3.038   6.134   0.638 -0.7419 -1.6036  0.1135
   29MOL    H7915255   3.178   6.180   0.561 -0.2096  0.1910  1.4369
   29MOL    H8015256   3.155   6.013   0.608  0.9788  1.5909  0.3072
   29MOL    H8115257   2.931   5.884   0.413 -1.2578 -1.2277  1.8737
   29MOL    H8215258   2.839   6.019   0.360  1.5974  1.0174 -1.2670
   29MOL    C8315259   3.099   6.296   0.875 -0.5418  0.1083  0.6602
   29MOL    C8415260   3.059   6.244   1.012 -0.2562  0.2471 -0.1487
   29MOL    C8515261   2.964   6.127   1.011  0.0852 -0.1705  0.1245
   29MOL    C8615262   3.024   5.996   0.963  0.0509  0.3474 -0.2476
   29MOL    C8715263   2.903   5.898   0.930  0.2708 -0.1758 -0.0585
   29MOL    O8815264   2.837   5.937   0.814  0.9444  0.3899 -0.1146
   29MOL    C8915265   2.883   5.907   0.686  0.5433  0.1778 -0.5617
   29MOL    O9015266   2.981   5.839   0.669  0.7840 -0.0929  0.4695
   29MOL    C9115267   2.804   5.968   0.566 -0.4743  0.3879 -0.7097
   29MOL    C9215268   2.740   6.103   0.621  0.0427  0.4905  0.3941
   29MOL    C9315269   2.670   5.889   0.540 -0.0144  0.2103 -0.2507
   29MOL    H9415270   3.165   6.383   0.877 -0.7362  0.2870 -0.3253
   29MOL    H9515271   3.162   6.217   0.833 -0.0877  0.4819  0.6344
   29MOL    H9615272   3.015   6.315   0.808  0.8847 -2.4966 -2.0071
   29MOL    H9715273   3.009   6.326   1.065  1.3227  1.1192  0.0241
   29MOL    H9815274   3.148   6.216   1.068 -0.5292 -3.7943 -1.5859
   29MOL    H9915275   2.882   6.159   0.947  0.4293  1.6125  0.5603
   29MOL   H10015276   2.924   6.116   1.111 -0.0739  2.1266  0.3449
   29MOL   H10115277   3.094   5.947   1.031 -0.3672 -0.7612 -0.5933
   29MOL   H10215278   3.086   6.008   0.874  1.1024  1.7201  0.6695
   29MOL   H10315279   2.838   5.895   1.017  1.9709 -0.3630  1.2214
   29MOL   H10415280   2.950   5.803   0.903 -0.5228 -0.4662 -0.4396
   29MOL   H10515281   2.702   6.170   0.545 -2.4665  0.1827  1.3322
   29MOL   H10615282   2.811   6.168   0.673  1.6852  1.0444 -2.4431
   29MOL   H10715283   2.662   6.087   0.696 -0.0618 -1.5009 -0.1247
   29MOL   H10815284   2.608   5.886   0.629  1.1584 -1.3671  0.5377
   29MOL   H10915285   2.617   5.960   0.476 -0.2459  1.3159  1.1645
   29MOL   C11015286   2.229   6.272   0.481  0.3073  0.4110 -0.3061
   29MOL   C11115287   2.175   6.135   0.449  0.1629 -0.2174 -0.4478
   29MOL   C11215288   2.271   6.018   0.473  0.4094 -0.0964  0.5629
   29MOL   C11315289   2.224   5.887   0.400 -0.6362 -0.8469  0.2484
   29MOL   C11415290   2.283   5.756   0.449 -0.4550  0.3840 -0.2593
   29MOL   O11515291   2.423   5.773   0.435 -0.8488  0.4471  0.2095
   29MOL   C11615292   2.508   5.697   0.499 -0.3447  0.0908 -0.8934
   29MOL   O11715293   2.475   5.598   0.572 -0.0720 -0.0835 -0.3427
   29MOL   C11815294   2.653   5.738   0.477  0.4204  0.6657 -0.7919
   29MOL   C11915295   2.749   5.635   0.557  0.1456 -0.4615 -0.2225
   29MOL   C12015296   2.672   5.741   0.315  0.5265  0.0255 -0.5827
   29MOL   H12115297   2.183   6.352   0.424 -3.1018  0.2743  2.0620
   29MOL   H12215298   2.211   6.290   0.587 -1.1698  0.8226 -0.6126
   29MOL   H12315299   2.337   6.270   0.467  0.1804 -0.4974 -1.2473
   29MOL   H12415300   2.087   6.109   0.509  0.5670  2.4580  1.4115
   29MOL   H12515301   2.144   6.138   0.345  1.2616 -1.4356 -0.8162
   29MOL   H12615302   2.374   6.038   0.446 -0.0441 -1.8456 -2.6699
   29MOL   H12715303   2.274   5.996   0.580 -1.3404  0.2572  0.7089
   29MOL   H12815304   2.244   5.905   0.294  0.1080  0.3790  0.5938
   29MOL   H12915305   2.115   5.883   0.404 -0.5654 -1.7176  1.5752
   29MOL   H13015306   2.257   5.728   0.551 -0.9172  3.2841  0.4621
   29MOL   H13115307   2.249   5.677   0.382 -2.9743  1.8902 -0.8177
   29MOL   H13215308   2.858   5.641   0.559  0.2613 -2.2556 -0.3126
   29MOL   H13315309   2.719   5.641   0.662  1.6057  0.9707  0.1296
   29MOL   H13415310   2.725   5.538   0.515  0.0041  0.1173 -1.5065
   29MOL   H13515311   2.624   5.831   0.277  1.8773  1.1500  0.3084
   29MOL   H13615312   2.778   5.764   0.306 -0.0909  2.5226 -1.8227
   29MOL   C13715313   3.290   5.688   0.599 -0.3783  0.0292 -0.0814
   29MOL   C13815314   3.255   5.627   0.458 -0.1074  0.2810  0.0838
   29MOL   C13915315   3.108   5.584   0.439 -0.3332 -0.6409 -0.2842
   29MOL   C14015316   3.102   5.468   0.337  0.0967 -0.5954 -0.5618
   29MOL   C14115317   2.957   5.418   0.302 -0.3340  0.2843 -0.1384
   29MOL   O14215318   2.872   5.529   0.265 -0.0076 -0.0486  0.1128
   29MOL   C14315319   2.737   5.507   0.257  0.3979  0.4425  0.4055
   29MOL   O14415320   2.676   5.401   0.279  0.5158 -0.0999 -0.1119
   29MOL   C14515321   2.652   5.628   0.210  0.5505  0.4896  0.1005
   29MOL   C14615322   2.501   5.597   0.193  0.2264  0.0681 -0.3388
   29MOL   C14715323   2.711   5.683   0.073 -0.0042  0.3179  0.0940
   29MOL   H14815324   3.398   5.697   0.610 -0.6106  1.4896  1.0956
   29MOL   H14915325   3.251   5.626   0.681 -0.9611 -1.3295 -1.3681
   29MOL   H15015326   3.246   5.786   0.614  0.4927  0.1566  1.8952
   29MOL   H15115327   3.308   5.533   0.442 -1.1190 -0.2878 -0.0203
   29MOL   H15215328   3.285   5.699   0.383  0.0092  0.0356 -0.1073
   29MOL   H15315329   3.070   5.546   0.534  4.5083  0.6434  2.3534
   29MOL   H15415330   3.045   5.669   0.416  0.2137 -0.1135  0.1479
   29MOL   H15515331   3.155   5.484   0.243 -1.5755  0.5543 -1.3267
   29MOL   H15615332   3.152   5.378   0.373  1.7898  1.0000  1.1792
   29MOL   H15715333   2.911   5.366   0.385 -0.5399 -0.4275 -0.6931
   29MOL   H15815334   2.960   5.340   0.226 -0.7732 -1.3421  1.4972
   29MOL   H15915335   2.466   5.552   0.286  1.6635 -1.3482 -0.4684
   29MOL   H16015336   2.468   5.530   0.114  0.1459  1.5815 -1.6311
   29MOL   H16115337   2.448   5.692   0.196 -0.9540 -0.6339  2.3945
   29MOL   H16215338   2.671   5.784   0.068  0.7563  0.5874 -0.7598
   29MOL   H16315339   2.816   5.709   0.089 -0.3061  1.5300  0.0836
   29MOL   C16415340   2.404   6.150   0.105  0.0905  0.7823 -0.6637
   29MOL   C16515341   2.308   6.064   0.028 -0.0446 -0.0463 -0.2757
   29MOL   C16615342   2.377   5.950   7.788  0.4704  0.1760  0.2896
   29MOL   C16715343   2.421   5.982   7.640 -0.2490 -0.9322  0.5071
   29MOL   C16815344   2.461   5.843   7.580  0.1890 -0.3734 -0.5488
   29MOL   O16915345   2.571   5.793   7.661 -0.1570 -0.7425 -0.0175
   29MOL   C17015346   2.578   5.665   7.673 -0.0248  0.6326 -0.5955
   29MOL   O17115347   2.498   5.589   7.622  0.4586  0.9185  0.1453
   29MOL   C17215348   2.707   5.609   7.743  0.7827  0.3920 -0.0220
   29MOL   C17315349   2.695   5.457   7.762 -0.9277  0.6447  0.8806
   29MOL   C17415350   2.834   5.645   7.645  0.5898  0.0178  0.1234
   29MOL   H17515351   2.462   6.215   0.039  2.8029  1.2427  2.0739
   29MOL   H17615352   2.471   6.089   0.164 -1.7012 -1.4376 -0.8492
   29MOL   H17715353   2.355   6.212   0.180 -0.6398  0.8217 -1.1598
   29MOL   H17815354   2.246   6.114   7.767 -0.4531  0.9229  0.6985
   29MOL   H17915355   2.235   6.037   0.104 -0.7752  1.7453 -0.3082
   29MOL   H18015356   2.453   5.913   0.042 -0.4127  0.1196  1.2593
   29MOL   H18115357   2.309   5.865   7.780  1.2034 -0.3837 -0.0071
   29MOL   H18215358   2.513   6.039   7.634 -1.0453  0.3595  0.5547
   29MOL   H18315359   2.344   6.026   7.578  0.9378  0.1591 -0.2170
   29MOL   H18415360   2.497   5.863   7.479 -1.6986  2.0351 -0.7849
   29MOL   H18515361   2.377   5.774   7.575 -0.4215  0.1421  1.8900
   29MOL   H18615362   2.782   5.411   7.808 -2.2906 -1.9887  0.9212
   29MOL   H18715363   2.685   5.403   7.668 -2.1196 -0.5977  1.7039
   29MOL   H18815364   2.606   5.432   0.006 -1.8589  0.9604 -0.3714
   29MOL   H18915365   2.791   5.640   7.544 -1.2131 -0.5168  0.8877
   29MOL   H19015366   2.837   5.754   7.652 -0.1633  0.1654 -1.5803
   29MOL   C19115367   3.114   4.767   7.679 -0.3939 -0.5532 -0.0468
   29MOL   C19215368   3.054   4.896   7.723 -0.0035  0.5820  0.2013
   29MOL   C19315369   3.148   5.016   7.675 -0.9058 -0.3454 -0.1495
   29MOL   C19415370   3.120   5.151   7.733 -0.2027  0.7227  0.3066
   29MOL   C19515371   2.993   5.220   7.668 -0.3686 -0.4057  0.4585
   29MOL   O19615372   2.999   5.356   7.708  0.6685  0.8180 -0.3476
   29MOL   C19715373   2.982   5.445   7.610  0.9184  0.2215 -0.5124
   29MOL   O19815374   2.960   5.416   7.493 -0.3741  0.2760 -0.2800
   29MOL   C19915375   2.988   5.591   7.651  0.2912 -0.0008 -0.3364
   29MOL   C20015376   3.042   5.598   7.794  0.0550  0.1588 -0.2212
   29MOL   C20115377   3.058   5.688   7.544 -0.9731  0.2902  0.5615
   29MOL   H20215378   3.133   4.775   7.572  0.3322  0.2944  0.1332
   29MOL   H20315379   3.211   4.755   7.727  0.3446  1.5041 -0.9603
   29MOL   H20415380   3.052   4.680   7.700 -1.7265  0.5444  0.6595
   29MOL   H20515381   3.032   4.892   0.015  0.5381 -0.6992  0.2705
   29MOL   H20615382   2.958   4.905   7.672 -0.0647 -1.4442 -0.0550
   29MOL   H20715383   3.141   5.019   7.566 -0.9763 -0.4572 -0.1482
   29MOL   H20815384   3.252   5.004   7.705 -0.4255  2.7517 -0.4449
   29MOL   H20915385   3.123   5.151   0.028  1.6270 -0.7961  0.2810
   29MOL   H21015386   3.202   5.213   7.695  0.2947  0.8504  1.5542
   29MOL   H21115387   3.016   5.213   7.562  0.4344  1.5153  0.4886
   29MOL   H21215388   2.901   5.168   7.693 -0.8061 -0.3673 -1.0586
   29MOL   H21315389   2.975   5.542   0.045 -1.2502  0.0516 -1.6155
   29MOL   H21415390   3.048   5.699   0.020 -2.6172 -0.6312  2.3536
   29MOL   H21515391   3.136   5.546   7.810  0.0534  0.7371  1.7050
   29MOL   H21615392   3.037   5.789   7.578  1.2713 -0.3186  3.9108
   29MOL   H21715393   3.003   5.680   7.450 -2.3537  2.1595  1.1854
   29MOL   C21815394   3.462   4.969   7.216 -0.0733  0.1476  0.5105
   29MOL   C21915395   3.388   5.090   7.267  0.0037  0.1543  0.0468
   29MOL   C22015396   3.479   5.168   7.354  0.5165 -0.0423  0.2789
   29MOL   C22115397   3.428   5.311   7.370 -0.0614 -0.8189  0.5647
   29MOL   C22215398   3.283   5.338   7.411  0.4136  0.2585 -0.0550
   29MOL   O22315399   3.246   5.470   7.421 -0.2833  0.0019  0.6252
   29MOL   C22415400   3.266   5.543   7.529  0.4212 -0.6197  0.7388
   29MOL   O22515401   3.321   5.499   7.634 -0.3562 -0.4560  0.4034
   29MOL   C22615402   3.215   5.689   7.519 -0.4413  0.1709  0.1535
   29MOL   C22715403   3.289   5.772   7.631 -0.0696  0.2587 -0.7402
   29MOL   C22815404   3.241   5.741   7.375 -0.3142  1.1066 -0.3260
   29MOL   H22915405   3.564   4.994   7.187 -0.3946  1.0134  0.1100
   29MOL   H23015406   3.482   4.901   7.299  0.5991  0.1172  0.3250
   29MOL   H23115407   3.413   4.910   7.138  0.8277 -0.5229  0.4481
   29MOL   H23215408   3.293   5.071   7.317 -0.1019 -0.4833 -0.3875
   29MOL   H23315409   3.367   5.145   7.175 -0.8703 -1.1395 -0.5504
   29MOL   H23415410   3.578   5.173   7.308 -0.3185 -0.3467 -1.5609
   29MOL   H23515411   3.491   5.127   7.455  0.9161  0.7773  0.5645
   29MOL   H23615412   3.481   5.352   7.456 -1.8761  0.6472  1.0151
   29MOL   H23715413   3.468   5.376   7.292  1.5775 -3.4153 -0.8382
   29MOL   H23815414   3.268   5.282   7.503  0.3966 -0.1860 -0.3301
   29MOL   H23915415   3.224   5.296   7.330  0.8767  1.0433 -0.8165
   29MOL   H24015416   3.261   5.741   7.731 -0.3220  3.2530  0.1672
   29MOL   H24115417   3.268   5.879   7.623  0.7185  0.3982 -0.9873
   29MOL   H24215418   3.398   5.767   7.634 -0.1254  0.2368  1.8997
   29MOL   H24315419   3.163   5.812   7.350  1.2054  2.3556 -1.5769
   29MOL   H24415420   3.210   5.659   7.311 -0.8743 -1.0590  2.5938
   29MOL   C24515421   3.110   6.572   7.485 -0.1600  0.2889  0.3775
   29MOL   C24615422   3.155   6.436   7.428  0.2853  0.3144  0.2559
   29MOL   C24715423   3.197   6.345   7.542  0.4175 -0.5284  0.3765
   29MOL   C24815424   3.205   6.199   7.498 -0.2451  0.7619  0.4728
   29MOL   C24915425   3.322   6.164   7.403  0.0963 -0.2169  0.2218
   29MOL   O25015426   3.309   6.024   7.359 -0.1063  0.3752 -0.2317
   29MOL   C25115427   3.402   5.931   7.385 -0.2381 -0.4424  0.1435
   29MOL   O25215428   3.489   5.955   7.471  0.1537 -0.3423  0.1646
   29MOL   C25315429   3.377   5.790   7.328 -0.5068 -0.3325  0.4669
   29MOL   C25415430   3.356   5.817   7.177 -0.4388 -0.0941  0.0595
   29MOL   C25515431   3.486   5.674   7.363  0.6018  0.5169 -0.1507
   29MOL   H25615432   3.193   6.599   7.550 -0.5551 -1.1519  1.5203
   29MOL   H25715433   3.093   6.655   7.417 -1.6213  0.3967  0.8641
   29MOL   H25815434   3.026   6.564   7.554 -1.0256  1.3058 -0.5436
   29MOL   H25915435   3.068   6.403   7.370  0.6582 -0.8958  0.3765
   29MOL   H26015436   3.227   6.436   7.347 -0.0469 -1.2874 -0.0611
   29MOL   H26115437   3.131   6.368   7.626  0.6685  0.4589  0.3079
   29MOL   H26215438   3.298   6.380   7.567 -0.3135  0.9954  1.2572
   29MOL   H26315439   3.224   6.134   7.584 -1.7464  0.5406  0.6495
   29MOL   H26415440   3.118   6.151   7.454  1.4807 -2.6966  0.6677
   29MOL   H26515441   3.324   6.227   7.314  1.7807 -2.3590 -1.3106
   29MOL   H26615442   3.419   6.176   7.451  0.9458 -1.1338 -1.2191
   29MOL   H26715443   3.264   5.874   7.161 -0.2592 -0.0975 -0.9769
   29MOL   H26815444   3.431   5.870   7.119 -1.1769  1.1334  0.2164
   29MOL   H26915445   3.338   5.718   7.134 -0.9808 -0.4993  1.1836
   29MOL   H27015446   3.503   5.672   7.471  1.0076 -0.7436 -0.2334
   29MOL   H27115447   3.452   5.574   7.338  1.0406 -0.1162  1.7452
   29MOL   C27215448   3.989   6.406   7.354 -0.0327 -0.2920  0.3974
   29MOL   C27315449   3.919   6.274   7.375 -0.2081 -0.3744  0.2352
   29MOL   C27415450   3.777   6.259   7.301  0.3089 -0.1687  0.5232
   29MOL   C27515451   3.707   6.117   7.305 -0.3853  0.1180 -0.3107
   29MOL   C27615452   3.777   6.010   7.212 -0.2984 -0.0659 -0.1064
   29MOL   O27715453   3.699   5.891   7.211 -0.3711  0.3578  0.0146
   29MOL   C27815454   3.718   5.798   7.309 -0.0752  0.5738 -0.0812
   29MOL   O27915455   3.786   5.817   7.416 -0.2656  0.2836  0.4475
   29MOL   C28015456   3.637   5.664   7.298 -0.8556 -0.0043 -0.3101
   29MOL   C28115457   3.714   5.562   7.389  0.0707 -0.2283  0.0205
   29MOL   C28215458   3.623   5.616   7.146  0.0224  1.0925  0.0932
   29MOL   H28315459   4.086   6.404   7.404  0.4359 -0.3735 -0.5116
   29MOL   H28415460   4.016   6.435   7.253  0.5869  0.4802  0.7759
   29MOL   H28515461   3.931   6.490   7.393  0.9876 -0.4955  2.4238
   29MOL   H28615462   3.979   6.184   7.358 -0.4609 -0.4225 -0.4068
   29MOL   H28715463   3.887   6.272   7.479 -0.9804 -2.6565 -0.0126
   29MOL   H28815464   3.715   6.337   7.345  0.2895  1.7790 -2.7596
   29MOL   H28915465   3.786   6.280   7.194  2.5013  0.3904  0.8015
   29MOL   H29015466   3.700   6.082   7.408 -3.1639 -2.9590 -1.4760
   29MOL   H29115467   3.604   6.125   7.272 -0.0308  2.5052 -0.9675
   29MOL   H29215468   3.879   5.988   7.242 -0.7823 -1.7597  0.3235
   29MOL   H29315469   3.776   6.046   7.109  2.6679 -2.4014 -1.0207
   29MOL   H29415470   3.823   5.568   7.387  0.1542 -1.3456  0.5271
   29MOL   H29515471   3.698   5.590   7.493 -0.8619  1.6802 -0.6145
   29MOL   H29615472   3.681   5.459   7.374 -0.0458 -0.2831  0.6428
   29MOL   H29715473   3.567   5.522   7.143  0.1779  1.0298 -1.0766
   29MOL   H29815474   3.555   5.687   7.100 -0.6501  0.1697 -0.3725
   29MOL   C29915475   4.413   5.864   6.975  0.1897 -0.0827  0.3607
   29MOL   C30015476   4.315   5.864   6.858  0.8749  0.2272  0.3086
   29MOL   C30115477   4.165   5.878   6.901 -0.1105  0.9752 -0.8226
   29MOL   C30215478   4.070   5.850   6.787 -0.0430  0.5603  0.0926
   29MOL   C30315479   3.930   5.857   6.842  0.1448  0.2646 -0.6080
   29MOL   O30415480   3.898   5.742   6.921 -0.3746 -0.8420 -0.1216
   29MOL   C30515481   3.769   5.729   6.955 -0.7122  1.0971 -0.3655
   29MOL   O30615482   3.680   5.816   6.936 -0.2385  0.3153 -0.0621
   29MOL   C30715483   3.739   5.599   7.038 -0.2495 -0.5293  1.1911
   29MOL   C30815484   3.866   5.556   7.109 -0.2798 -0.4289 -1.2079
   29MOL   C30915485   3.693   5.486   6.930 -0.6027 -0.4439  0.2512
   29MOL   H31015486   4.515   5.868   6.938 -0.4731  3.8691 -1.2867
   29MOL   H31115487   4.400   5.774   7.036  2.1699 -2.2131 -2.2563
   29MOL   H31215488   4.400   5.949   7.042  1.6336 -1.2444  2.1863
   29MOL   H31315489   4.330   5.773   6.799  1.5439  1.2939 -1.1803
   29MOL   H31415490   4.339   5.948   6.793  1.8626 -0.2166  0.0970
   29MOL   H31515491   4.158   5.979   6.943 -0.0701  0.4185  0.5287
   29MOL   H31615492   4.155   5.813   6.987  0.8424  1.9450  0.0335
   29MOL   H31715493   4.089   5.746   6.762  0.7448  0.7683 -0.1687
   29MOL   H31815494   4.078   5.923   6.706  0.8118  2.9275  2.2386
   29MOL   H31915495   3.915   5.947   6.900 -0.2872 -0.5070  0.4902
   29MOL   H32015496   3.876   5.865   6.747  0.4011  0.3357 -0.7474
   29MOL   H32115497   3.846   5.459   7.154  0.8781 -0.6713 -1.2085
   29MOL   H32215498   3.950   5.530   7.044 -0.7062  1.6628 -2.6410
   29MOL   H32315499   3.907   5.634   7.172  0.1393 -0.2866 -1.6518
   29MOL   H32415500   3.585   5.499   6.917 -0.4374  1.2429  0.3916
   29MOL   H32515501   3.708   5.403   6.999  1.1506  0.9436  1.5808
   29MOL   C32615502   3.255   6.026   6.359  0.0023 -0.1425 -0.5831
   29MOL   C32715503   3.295   5.963   6.495 -0.2433  0.4201  0.6536
   29MOL   C32815504   3.436   5.901   6.492 -1.2017  0.0892 -0.0208
   29MOL   C32915505   3.454   5.800   6.607 -0.3623 -0.0095  0.0588
   29MOL   C33015506   3.587   5.719   6.595 -0.5890 -0.3175  0.6728
   29MOL   O33115507   3.613   5.627   6.696  0.1993 -0.0305 -0.6113
   29MOL   C33215508   3.736   5.567   6.691 -0.1419  0.5510 -0.4687
   29MOL   O33315509   3.830   5.605   6.622 -0.5044  0.1900  0.2834
   29MOL   C33415510   3.752   5.446   6.789  0.3921 -0.1167 -0.0745
   29MOL   C33515511   3.903   5.422   6.801 -0.1393  0.0364 -0.1184
   29MOL   C33615512   3.674   5.327   6.713 -0.2494  0.1341  0.3075
   29MOL   H33715513   3.152   6.061   6.358 -0.2356 -0.8373 -1.2158
   29MOL   H33815514   3.268   5.953   6.278 -0.2964 -0.4354 -0.3706
   29MOL   H33915515   3.309   6.115   6.328 -0.4125  0.0205 -0.8439
   29MOL   H34015516   3.225   5.887   6.529 -0.0004  0.2540  0.7846
   29MOL   H34115517   3.289   6.041   6.570  4.7465 -0.6257  2.3549
   29MOL   H34215518   3.512   5.980   6.496 -2.3830  1.6405 -4.5220
   29MOL   H34315519   3.460   5.852   6.398 -0.5592  1.1514 -0.4287
   29MOL   H34415520   3.381   5.720   6.605  1.5328 -1.9363  2.8761
   29MOL   H34515521   3.455   5.847   6.706  0.0063 -1.2201  0.6478
   29MOL   H34615522   3.671   5.788   6.591  1.1764 -2.4069  0.6969
   29MOL   H34715523   3.585   5.667   6.499 -0.6213 -1.2206  1.1533
   29MOL   H34815524   3.937   5.372   6.710  1.2639 -0.2889  0.5649
   29MOL   H34915525   3.934   5.363   6.888  0.7011  0.2446 -0.2709
   29MOL   H35015526   3.951   5.515   6.831 -0.1624 -0.8331  2.8340
   29MOL   H35115527   3.726   5.298   6.622 -0.4699  1.5571 -0.2935
   29MOL   H35215528   3.576   5.366   6.685  2.2052  5.0587 -2.1806
   29MOL   C35315529   3.111   5.622   6.733 -0.5688 -0.4842 -0.6096
   29MOL   C35415530   3.210   5.660   6.841  0.4809 -0.2261 -0.2286
   29MOL   C35515531   3.307   5.554   6.878  0.2147  0.4200 -0.2820
   29MOL   C35615532   3.229   5.428   6.927 -0.0869  0.2828  0.9459
   29MOL   C35715533   3.315   5.307   6.972 -0.2060  0.1631  0.4877
   29MOL   O35815534   3.418   5.286   6.871 -0.0172 -0.1540 -0.6801
   29MOL   C35915535   3.531   5.216   6.902 -0.8204  0.0953  0.7738
   29MOL   O36015536   3.557   5.166   7.010  0.1962 -0.5473 -0.6688
   29MOL   C36115537   3.636   5.190   6.785  0.0415 -0.2534 -0.9018
   29MOL   C36215538   3.766   5.124   6.843 -0.6053 -0.3929 -0.0150
   29MOL   C36315539   3.570   5.107   6.674  0.0056 -0.0650 -0.1425
   29MOL   H36415540   3.066   5.710   6.687  1.0654  0.4473 -0.4927
   29MOL   H36515541   3.028   5.562   6.770 -1.0861  1.4008  1.3678
   29MOL   H36615542   3.167   5.569   6.656  0.9068 -0.6420  0.5586
   29MOL   H36715543   3.265   5.750   6.815 -0.2588  0.0915 -0.7463
   29MOL   H36815544   3.169   5.693   6.936  0.4261  2.5527 -1.1813
   29MOL   H36915545   3.380   5.589   6.951  1.5763 -2.4949 -0.2043
   29MOL   H37015546   3.360   5.520   6.789 -1.4187 -1.8846 -0.4146
   29MOL   H37115547   3.172   5.392   6.841  1.1774  0.3196  0.0706
   29MOL   H37215548   3.157   5.461   7.002 -2.0693  1.4366 -1.3725
   29MOL   H37315549   3.357   5.322   7.071  0.2917 -2.8790  0.7949
   29MOL   H37415550   3.253   5.217   6.973  1.5354 -1.1249 -1.9560
   29MOL   H37515551   3.802   5.182   6.928 -0.5453  0.4352 -0.5931
   29MOL   H37615552   3.765   5.028   6.894  1.1276 -0.3000  0.2167
   29MOL   H37715553   3.850   5.131   6.774 -0.5890  0.1115  0.0515
   29MOL   H37815554   3.466   5.139   6.666  0.1951  0.4051 -0.7221
   29MOL   H37915555   3.603   5.123   6.572 -1.4368  1.7051 -0.3631
   29MOL   C38015556   4.163   4.992   6.173 -0.1413  0.3978 -0.3941
   29MOL   C38115557   4.107   4.846   6.209  0.2263 -0.4657 -0.8201
   29MOL   C38215558   4.073   4.823   6.357 -0.5847 -0.3152  0.1319
   29MOL   C38315559   3.952   4.914   6.402 -0.6728 -0.0117  0.4730
   29MOL   C38415560   3.921   4.906   6.552  0.5230 -0.0632 -0.5105
   29MOL   O38515561   3.786   4.954   6.578  0.5294 -0.2428 -0.8759
   29MOL   C38615562   3.713   4.893   6.668  0.7286 -0.2090 -0.3059
   29MOL   O38715563   3.735   4.792   6.739 -0.2213 -0.7139  0.0593
   29MOL   C38815564   3.564   4.953   6.679 -0.4786 -0.2431  0.3220
   29MOL   C38915565   3.490   4.905   6.799  0.4626 -0.3828  0.2574
   29MOL   C39015566   3.483   4.912   6.547 -0.2129  0.1747  1.0300
   29MOL   H39115567   4.185   4.986   6.067  0.8148 -1.8596 -0.0944
   29MOL   H39215568   4.091   5.069   6.199  0.2511  0.1665  1.4451
   29MOL   H39315569   4.250   5.019   6.234 -1.7694 -0.3218  2.3525
   29MOL   H39415570   4.184   4.776   6.176 -0.6291 -2.5998  1.5996
   29MOL   H39515571   4.015   4.812   6.161 -1.5014  0.5719  1.6871
   29MOL   H39615572   4.060   4.717   6.375  0.1762 -0.3914  0.2575
   29MOL   H39715573   4.162   4.858   6.409 -0.1322 -0.6057 -0.4453
   29MOL   H39815574   3.966   5.015   6.363  1.3930 -1.1716 -1.9292
   29MOL   H39915575   3.868   4.882   6.341  0.7047 -3.9282  0.4637
   29MOL   H40015576   3.986   4.970   6.612 -0.6467  0.5533  0.1310
   29MOL   H40115577   3.925   4.802   6.586  2.7704  0.3424  0.5310
   29MOL   H40215578   3.541   4.945   6.886  0.4794 -0.7476  0.4133
   29MOL   H40315579   3.495   4.799   6.821  2.1758 -0.1234  1.2050
   29MOL   H40415580   3.387   4.942   6.796  0.3686 -0.6999 -1.1352
   29MOL   H40515581   3.526   4.965   6.462  0.0932 -0.3732  0.8376
   29MOL   H40615582   3.382   4.949   6.563  0.2396  1.2690  1.3423
   29MOL   C40715583   2.987   5.056   6.962 -0.0033 -0.4295 -0.4745
   29MOL   C40815584   2.969   4.934   6.867  0.3955  0.3973 -0.1252
   29MOL   C40915585   3.098   4.856   6.836  0.2120  0.4405 -0.4654
   29MOL   C41015586   3.072   4.716   6.780  0.2664 -0.3457  0.4721
   29MOL   C41115587   3.202   4.647   6.738  0.2899 -0.1093  0.1000
   29MOL   O41215588   3.261   4.712   6.620  0.2975 -0.8840 -0.1479
   29MOL   C41315589   3.385   4.681   6.587 -0.6765  0.7444 -0.0761
   29MOL   O41415590   3.444   4.588   6.641  0.2443 -0.0781  0.3645
   29MOL   C41515591   3.465   4.770   6.487  0.1798 -0.4721 -0.2090
   29MOL   C41615592   3.372   4.792   6.366 -0.0088 -0.7459  0.0769
   29MOL   C41715593   3.603   4.697   6.437 -0.3090 -0.4774  0.4007
   29MOL   H41815594   3.056   5.033   7.043  1.5517 -2.3516 -2.2790
   29MOL   H41915595   3.043   5.136   6.912  3.2283 -1.5948  1.1890
   29MOL   H42015596   2.894   5.099   6.998  1.4187  2.7021 -0.3441
   29MOL   H42115597   2.899   4.959   6.788 -1.2091  0.7519  1.3858
   29MOL   H42215598   2.904   4.861   6.915 -0.3289  0.3350 -1.1804
   29MOL   H42315599   3.144   4.902   6.748 -1.9975 -0.3014 -2.0473
   29MOL   H42415600   3.158   4.850   6.927 -0.2098  0.8064 -0.1608
   29MOL   H42515601   2.996   4.725   6.703  0.4592 -0.4071  0.2751
   29MOL   H42615602   3.035   4.649   6.857 -0.8630 -0.6749 -0.3540
   29MOL   H42715603   3.269   4.664   6.822 -0.2551  2.5605  0.0367
   29MOL   H42815604   3.194   4.540   6.720  0.4432 -0.0854 -0.1084
   29MOL   H42915605   3.432   4.846   6.292  0.5215 -1.5610 -0.0952
   29MOL   H43015606   3.280   4.848   6.385 -1.9616 -4.3501  1.7032
   29MOL   H43115607   3.332   4.709   6.308 -0.3280  0.4539 -1.4544
   29MOL   H43215608   3.673   4.668   6.515 -0.7048  0.5442  1.1365
   29MOL   H43315609   3.662   4.777   6.393  1.8125 -1.2790  1.6896
   29MOL   C43415610   3.657   4.648   5.587  0.0453  0.0333 -0.0104
   29MOL   C43515611   3.747   4.753   5.656  0.2665 -0.2182 -0.1190
   29MOL   C43615612   3.695   4.830   5.784 -0.0376 -0.4550 -0.0467
   29MOL   C43715613   3.703   4.742   5.908 -0.3927 -0.1402 -1.0302
   29MOL   C43815614   3.622   4.806   6.029  0.1579 -0.2176  0.1381
   29MOL   O43915615   3.643   4.738   6.145 -0.6450  0.1061 -0.1832
   29MOL   C44015616   3.574   4.635   6.186  1.0035 -0.5210 -0.2225
   29MOL   O44115617   3.485   4.580   6.119 -0.1367 -0.2971  0.3973
   29MOL   C44215618   3.613   4.586   6.326 -0.0797 -0.1487  0.0207
   29MOL   C44315619   3.519   4.477   6.372  0.0335 -0.2557  0.2563
   29MOL   C44415620   3.763   4.532   6.320 -0.1045  0.2296 -0.1290
   29MOL   H44515621   3.703   4.611   5.494 -1.9026 -0.5152 -0.7794
   29MOL   H44615622   3.639   4.558   5.645  2.0603 -1.0787 -1.0386
   29MOL   H44715623   3.563   4.696   5.560  0.3553  0.5444 -0.1746
   29MOL   H44815624   3.838   4.703   5.689  0.6290  0.7381  0.3456
   29MOL   H44915625   3.783   4.818   5.576  0.1093  0.0499  0.0256
   29MOL   H45015626   3.749   4.923   5.798 -1.0069  0.3075 -1.2610
   29MOL   H45115627   3.592   4.860   5.762 -0.2247 -0.0070  1.4159
   29MOL   H45215628   3.803   4.734   5.951 -1.2738  0.1071  1.0972
   29MOL   H45315629   3.660   4.642   5.896  0.1177 -0.3734 -0.9476
   29MOL   H45415630   3.516   4.827   6.015  0.5223  1.7421  0.2074
   29MOL   H45515631   3.665   4.904   6.051 -3.2282  1.4561 -0.3369
   29MOL   H45615632   3.532   4.395   6.301 -0.0356  0.2373 -0.3323
   29MOL   H45715633   3.545   4.452   6.475  3.1535 -0.0117 -0.4042
   29MOL   H45815634   3.415   4.508   6.363 -0.0345  0.3090  2.8257
   29MOL   H45915635   3.790   4.527   6.425 -2.3935 -2.8291  0.3651
   29MOL   H46015636   3.835   4.608   6.289 -0.9467  0.3726 -1.8078
   29MOL   C46115637   4.421   4.139   6.626 -0.4021 -0.2302  0.5723
   29MOL   C46215638   4.381   4.286   6.603 -0.2078 -0.0190  0.1401
   29MOL   C46315639   4.286   4.295   6.482 -0.2943  0.1357 -0.0269
   29MOL   C46415640   4.254   4.437   6.438  0.3431  0.0342  0.4343
   29MOL   C46515641   4.174   4.438   6.307 -0.3224  0.9199 -0.0508
   29MOL   O46615642   4.032   4.437   6.333  0.5410 -0.1270 -0.5842
   29MOL   C46715643   3.958   4.418   6.222 -0.1445  0.1298 -0.6286
   29MOL   O46815644   3.998   4.411   6.107 -0.4243 -0.6668  0.1873
   29MOL   C46915645   3.808   4.391   6.251  0.2158  0.3724  0.5426
   29MOL   C47015646   3.742   4.365   6.115  0.6407 -0.7093 -0.0905
   29MOL   C47115647   3.786   4.270   6.352  0.5610 -0.3166 -0.0610
   29MOL   H47215648   4.330   4.089   6.659  0.4812 -1.3041  1.4017
   29MOL   H47315649   4.502   4.122   6.697 -0.9953 -1.3458  0.9980
   29MOL   H47415650   4.449   4.098   6.529 -2.3349 -0.3202  0.0259
   29MOL   H47515651   4.473   4.344   6.590 -0.5097  0.4694  0.1945
   29MOL   H47615652   4.340   4.336   6.691  1.0255  0.7692  0.2813
   29MOL   H47715653   4.193   4.241   6.499  0.7905 -1.4216  1.2693
   29MOL   H47815654   4.338   4.240   6.404  0.0142  1.6597 -0.9124
   29MOL   H47915655   4.343   4.499   6.425 -1.4835  2.6198 -0.1218
   29MOL   H48015656   4.199   4.493   6.514 -1.1993 -0.7580 -0.0832
   29MOL   H48115657   4.194   4.532   6.256  1.2845  0.2754 -0.6355
   29MOL   H48215658   4.202   4.353   6.244 -1.1593 -1.0215  2.1150
   29MOL   H48315659   3.791   4.282   6.065 -1.6618 -2.2192  0.0715
   29MOL   H48415660   3.765   4.450   6.050 -0.1023  0.0276  0.6033
   29MOL   H48515661   3.637   4.337   6.114 -0.1240  1.7691  2.7820
   29MOL   H48615662   3.715   4.306   6.427 -1.2397  0.4574 -2.0898
   29MOL   H48715663   3.876   4.276   6.413  0.5429 -1.8464  0.1413
   29MOL   C48815664   3.667   3.519   5.913 -0.9883 -0.2609  0.0715
   29MOL   C48915665   3.807   3.568   5.962 -0.2646  0.5285  0.2282
   29MOL   C49015666   3.817   3.719   5.970 -0.9121 -0.0170 -0.0729
   29MOL   C49115667   3.946   3.773   6.038  0.1126  0.5021 -0.3529
   29MOL   C49215668   3.955   3.923   6.071 -0.2150 -0.0019 -0.6852
   29MOL   O49315669   3.862   3.959   6.167 -0.0130 -0.0258 -0.0187
   29MOL   C49415670   3.892   4.068   6.241  0.4673  0.3906  0.0112
   29MOL   O49515671   4.007   4.119   6.236 -0.2774  0.2356 -0.7042
   29MOL   C49615672   3.766   4.119   6.319 -0.3521 -0.6671  0.2820
   29MOL   C49715673   3.636   4.098   6.245 -0.2058  0.7578 -0.6191
   29MOL   C49815674   3.747   4.046   6.457  0.2877  0.1640  0.5585
   29MOL   H49915675   3.665   3.411   5.928 -0.2462 -0.3083 -0.1434
   29MOL   H50015676   3.594   3.573   5.973  0.7181  1.4544  0.6727
   29MOL   H50115677   3.667   3.543   5.807 -0.4630 -0.2135  0.0797
   29MOL   H50215678   3.888   3.528   5.901 -0.6383  1.5004 -0.9106
   29MOL   H50315679   3.828   3.539   6.066 -0.2038  0.1999  0.1273
   29MOL   H50415680   3.820   3.768   5.873  1.9209  0.0343 -0.0287
   29MOL   H50515681   3.738   3.766   6.028  1.0055  1.6513  1.2730
   29MOL   H50615682   4.033   3.751   5.977  0.9425  2.5886  0.0552
   29MOL   H50715683   3.967   3.718   6.130 -2.1098  0.3877  0.1267
   29MOL   H50815684   4.053   3.947   6.113 -0.5600  1.0445 -0.4546
   29MOL   H50915685   3.933   3.992   5.990  0.7610  2.2261  0.8872
   29MOL   H51015686   3.606   3.993   6.246  3.0138 -0.2409  2.7162
   29MOL   H51115687   3.646   4.111   6.138  0.4861 -1.8798 -0.9150
   29MOL   H51215688   3.560   4.165   6.286 -1.4716 -1.2446  0.4072
   29MOL   H51315689   3.725   3.943   6.429 -0.4970  0.6847 -0.8256
   29MOL   H51415690   3.657   4.085   6.505 -0.1176 -0.2361  0.1355
   29MOL   C51515691   3.440   4.614   7.101 -0.5302  0.8470 -0.0002
   29MOL   C51615692   3.456   4.487   7.012 -0.2099  0.1462  0.8916
   29MOL   C51715693   3.597   4.429   6.997  0.1001  0.5148 -0.3267
   29MOL   C51815694   3.590   4.313   6.895 -0.8259 -0.0295 -0.0157
   29MOL   C51915695   3.729   4.293   6.828  0.1409 -0.1486  0.2265
   29MOL   O52015696   3.736   4.185   6.733 -0.6871 -0.3129  0.2347
   29MOL   C52115697   3.848   4.170   6.663  0.0302 -0.2099  0.6663
   29MOL   O52215698   3.949   4.240   6.674 -0.0608 -0.3859  0.2550
   29MOL   C52315699   3.850   4.037   6.581  0.1208  0.6470  0.0648
   29MOL   C52415700   3.994   3.996   6.540  0.2563 -0.5581 -0.3456
   29MOL   C52515701   3.815   3.919   6.678  0.1477 -0.7629  0.1571
   29MOL   H52615702   3.471   4.590   7.202  1.7418  0.1676 -0.8289
   29MOL   H52715703   3.510   4.695   7.080 -0.5394  0.6288 -0.9063
   29MOL   H52815704   3.337   4.649   7.103 -0.1910  1.8288  0.3790
   29MOL   H52915705   3.398   4.415   7.069  0.7490 -0.5165  1.0425
   29MOL   H53015706   3.413   4.513   6.915 -0.1885  0.6224  1.0072
   29MOL   H53115707   3.660   4.500   6.942  1.7968 -0.8054 -0.1247
   29MOL   H53215708   3.651   4.387   7.082  2.8423 -0.4231 -2.4344
   29MOL   H53315709   3.514   4.332   6.820 -0.0394 -1.9102 -1.3214
   29MOL   H53415710   3.563   4.226   6.956  1.0036  0.5899  1.7416
   29MOL   H53515711   3.753   4.380   6.766 -2.5625 -0.0527 -0.7575
   29MOL   H53615712   3.810   4.284   6.900  0.6303 -1.3744 -0.4586
   29MOL   H53715713   4.054   3.964   6.625  1.8574 -0.0295 -1.2541
   29MOL   H53815714   4.054   4.078   6.498 -1.0594  0.2648 -0.6618
   29MOL   H53915715   4.005   3.913   6.470 -1.3734 -0.5040 -0.6783
   29MOL   H54015716   3.721   3.947   6.725 -0.7497 -0.5337 -1.7209
   29MOL   H54115717   3.882   3.909   6.763 -1.2936 -0.0746  1.4035
   29MOL   H54215718   3.815   3.816   6.640  1.1675 -0.1455 -1.5669
   30MOL     C115719   1.056   3.269   2.144 -0.3001  1.0306 -0.0520
   30MOL     C215720   1.128   3.372   2.053 -0.1338 -0.3385  0.8913
   30MOL     C315721   1.280   3.364   2.067 -0.4707  0.9947  0.1898
   30MOL     C415722   1.330   3.252   1.975 -0.4748  0.1845 -0.6666
   30MOL     C515723   1.471   3.211   2.001 -0.5574  0.4609 -0.2091
   30MOL     O615724   1.525   3.124   1.898  0.6383 -0.3681 -0.0971
   30MOL     C715725   1.663   3.103   1.901  0.0817  0.3288 -0.4005
   30MOL     O815726   1.744   3.138   1.982 -0.0539  0.2306  0.1939
   30MOL     C915727   1.698   3.013   1.787  0.2359  1.0736  0.6171
   30MOL    C1015728   1.616   3.041   1.656 -0.2156  0.2945 -0.1642
   30MOL    C1115729   1.669   2.865   1.839  0.2772 -0.3431  0.0589
   30MOL    H1215730   1.054   3.165   2.112 -0.0171  1.5381 -1.7821
   30MOL    H1315731   0.955   3.310   2.139  0.7376  3.6408 -0.7187
   30MOL    H1415732   1.095   3.283   2.244  3.3334  3.7804 -1.7427
   30MOL    H1515733   1.097   3.370   1.948  0.7308 -2.4200  0.6412
   30MOL    H1615734   1.091   3.471   2.078 -1.3336  0.1614 -2.5778
   30MOL    H1715735   1.335   3.457   2.049  1.1249 -0.0343 -0.3602
   30MOL    H1815736   1.310   3.330   2.167  1.0461 -2.1863 -1.2560
   30MOL    H1915737   1.311   3.296   1.877 -1.4833 -0.3079 -0.6954
   30MOL    H2015738   1.274   3.159   1.986 -0.4900  0.2419 -0.2525
   30MOL    H2115739   1.525   3.305   2.010 -0.1508  0.1597  0.5556
   30MOL    H2215740   1.477   3.168   2.101  0.8934 -0.2339 -0.5838
   30MOL    H2315741   1.617   3.146   1.628 -2.4283 -0.3471 -2.7683
   30MOL    H2415742   1.510   3.016   1.665  0.1576 -2.2597 -2.4423
   30MOL    H2515743   1.646   2.974   1.576 -0.0163 -2.5885  2.2239
   30MOL    H2615744   1.668   2.806   1.748  1.3209 -0.3146  0.0311
   30MOL    H2715745   1.564   2.872   1.869  0.2594  0.2572 -0.1378
   30MOL    H2815746   1.802   3.019   1.757  0.0954  0.7407  0.0540
   30MOL    C2915747   1.047   2.925   2.301 -0.2087 -0.4781  0.3779
   30MOL    C3015748   1.169   2.999   2.352  0.7007 -0.4657  0.0210
   30MOL    C3115749   1.289   2.908   2.363 -0.3631  0.3617  0.6732
   30MOL    C3215750   1.355   2.897   2.222  0.2033  0.0178 -1.1253
   30MOL    C3315751   1.498   2.839   2.221  0.2060 -0.0781 -0.3681
   30MOL    O3415752   1.569   2.860   2.100  0.0842  0.9577 -0.1901
   30MOL    C3515753   1.696   2.827   2.088 -0.2337  0.3170  0.6832
   30MOL    O3615754   1.760   2.803   2.189 -0.1506  0.2450  0.3226
   30MOL    C3715755   1.754   2.800   1.949  0.1468  0.3587  0.0648
   30MOL    C3815756   1.904   2.848   1.943 -0.3929  0.0485 -0.4175
   30MOL    C3915757   1.763   2.647   1.914 -1.0176 -0.1255 -0.4845
   30MOL    H4015758   0.958   2.989   2.302 -0.5508 -0.9483  1.3954
   30MOL    H4115759   1.064   2.901   2.196  1.1289 -4.1858  1.3808
   30MOL    H4215760   1.031   2.830   2.352  0.6410 -2.1813 -2.4491
   30MOL    H4315761   1.138   3.038   2.449 -1.7887 -0.1867 -0.8595
   30MOL    H4415762   1.190   3.083   2.286 -0.9793 -0.9549 -1.1866
   30MOL    H4515763   1.278   2.811   2.410  0.8697 -0.0700  0.0970
   30MOL    H4615764   1.368   2.947   2.428  0.1489 -0.0338  0.2891
   30MOL    H4715765   1.291   2.834   2.161 -0.7970 -0.1062  0.0503
   30MOL    H4815766   1.355   2.994   2.172 -3.0331 -0.2457 -1.7035
   30MOL    H4915767   1.500   2.736   2.256  0.3709 -0.1725 -0.6530
   30MOL    H5015768   1.551   2.888   2.303 -0.8888 -1.1012  0.9804
   30MOL    H5115769   1.917   2.949   1.981  0.1247  0.3472 -1.3657
   30MOL    H5215770   1.944   2.846   1.841 -0.2000  1.1046 -0.3753
   30MOL    H5315771   1.979   2.791   1.997  0.5824  0.4595 -1.3113
   30MOL    H5415772   1.849   2.616   1.973  0.2490 -0.4496 -2.4718
   30MOL    H5515773   1.800   2.642   1.811 -0.6708  0.5229 -0.3914
   30MOL    C5615774   1.164   2.931   1.405 -0.6705  0.0885  0.1288
   30MOL    C5715775   1.293   2.870   1.469 -0.2931  0.0906  0.7509
   30MOL    C5815776   1.315   2.717   1.433 -0.4968 -0.1874 -0.5757
   30MOL    C5915777   1.416   2.644   1.524  0.0158 -0.0442  0.4516
   30MOL    C6015778   1.384   2.633   1.673 -0.3246  0.7680 -0.6287
   30MOL    O6115779   1.509   2.610   1.744  0.3278 -0.0903 -0.5481
   30MOL    C6215780   1.507   2.592   1.880 -0.3832 -0.4635  0.1792
   30MOL    O6315781   1.413   2.608   1.956  0.0498 -0.0306  0.3124
   30MOL    C6415782   1.646   2.539   1.934 -0.4674  0.3165  0.1460
   30MOL    C6515783   1.637   2.496   2.078 -0.4273 -0.3264  0.1856
   30MOL    C6615784   1.689   2.422   1.833  0.1434 -0.6642 -0.2513
   30MOL    H6715785   1.200   2.954   1.305 -0.2780 -3.3290 -0.5830
   30MOL    H6815786   1.132   3.022   1.454 -0.7235 -1.4642  3.0998
   30MOL    H6915787   1.081   2.860   1.400 -0.1012 -0.5707 -0.0911
   30MOL    H7015788   1.384   2.922   1.436 -0.6393  0.5020  0.4344
   30MOL    H7115789   1.288   2.893   1.576 -1.0105  0.8430  0.5609
   30MOL    H7215790   1.222   2.662   1.446  0.3285 -1.6230 -0.6260
   30MOL    H7315791   1.351   2.720   1.330  2.9182 -1.4151  0.5190
   30MOL    H7415792   1.510   2.699   1.514  0.8876 -1.3622  1.2804
   30MOL    H7515793   1.442   2.546   1.484 -0.6879  0.0861 -0.3333
   30MOL    H7615794   1.346   2.723   1.722 -0.2886  0.4267  0.0341
   30MOL    H7715795   1.310   2.555   1.689  0.7837 -0.2654 -0.5071
   30MOL    H7815796   1.557   2.424   2.096 -0.8704  0.7099  2.5747
   30MOL    H7915797   1.606   2.583   2.135 -1.9484 -1.8125  1.6848
   30MOL    H8015798   1.737   2.468   2.110 -0.2633 -1.4946 -1.2890
   30MOL    H8115799   1.791   2.398   1.864 -0.6440 -1.8385  1.4915
   30MOL    H8215800   1.698   2.461   1.732 -1.5920  0.3089 -0.0389
   30MOL    C8315801   1.554   1.618   2.003 -0.5087 -0.3166  0.5193
   30MOL    C8415802   1.434   1.687   2.070 -0.0137  0.1323  0.1079
   30MOL    C8515803   1.436   1.834   2.055 -0.2252 -0.4103  0.3516
   30MOL    C8615804   1.557   1.912   2.103  1.1020  0.4899  0.1840
   30MOL    C8715805   1.526   2.063   2.124 -0.2854  0.4726 -0.7137
   30MOL    O8815806   1.524   2.133   2.001  1.0338  0.0026 -0.6005
   30MOL    C8915807   1.632   2.199   1.960  0.0269  0.4805 -0.0034
   30MOL    O9015808   1.732   2.196   2.024 -0.1648 -0.2643  0.2196
   30MOL    C9115809   1.621   2.280   1.823  0.0534 -0.2705 -0.1814
   30MOL    C9215810   1.471   2.302   1.781 -0.1117  0.3353  0.7495
   30MOL    C9315811   1.711   2.196   1.717  0.1252 -0.5175 -0.0510
   30MOL    H9415812   1.558   1.511   2.019  2.9596 -0.6761 -2.0072
   30MOL    H9515813   1.551   1.640   1.896  0.7303 -0.3684  0.4564
   30MOL    H9615814   1.654   1.648   2.036 -0.8167  2.5426 -0.9722
   30MOL    H9715815   1.436   1.664   2.177  0.2595  1.1647  0.3234
   30MOL    H9815816   1.347   1.643   2.021 -1.5494  2.3557  0.7542
   30MOL    H9915817   1.343   1.882   2.086  1.4282  2.8662  0.3674
   30MOL   H10015818   1.425   1.851   1.948 -3.4588 -1.2282  0.4856
   30MOL   H10115819   1.635   1.893   2.029 -0.2370  2.5057 -1.7953
   30MOL   H10215820   1.606   1.874   2.193  1.0993 -0.0354 -0.0346
   30MOL   H10315821   1.597   2.101   2.198  0.2106 -1.3430 -0.2389
   30MOL   H10415822   1.435   2.081   2.180 -0.4721  0.2438 -0.9474
   30MOL   H10515823   1.401   2.341   1.856 -2.3220  1.0581 -1.6243
   30MOL   H10615824   1.434   2.202   1.754  0.5762  1.1700 -3.6281
   30MOL   H10715825   1.457   2.355   1.687 -3.0528 -2.6447 -0.6002
   30MOL   H10815826   1.769   2.265   1.655  0.7933  0.5990  1.7849
   30MOL   H10915827   1.793   2.145   1.768 -0.1557 -0.4369  0.4820
   30MOL   C11015828   1.745   2.656   1.074  0.7567  1.0005  0.2896
   30MOL   C11115829   1.610   2.669   1.142  0.3224  0.8559 -0.6593
   30MOL   C11215830   1.550   2.532   1.183  0.3330 -0.1114  0.2897
   30MOL   C11315831   1.638   2.451   1.284 -0.5078 -0.3343  0.4913
   30MOL   C11415832   1.549   2.332   1.337  0.2363 -0.4226 -0.2076
   30MOL   O11515833   1.616   2.274   1.452  0.1206 -0.8610 -0.1928
   30MOL   C11615834   1.565   2.166   1.512  0.4966  0.4919 -0.1318
   30MOL   O11715835   1.451   2.134   1.491 -0.0501  0.3551  0.4571
   30MOL   C11815836   1.662   2.087   1.610 -0.1494 -0.1841 -0.2678
   30MOL   C11915837   1.593   1.972   1.692  0.2644  0.1699  0.1760
   30MOL   C12015838   1.790   2.026   1.538 -0.2332  0.0859  0.6978
   30MOL   H12115839   1.804   2.580   1.126  1.6066  1.0555 -0.5877
   30MOL   H12215840   1.746   2.622   0.971 -0.8870 -0.4362  0.7178
   30MOL   H12315841   1.799   2.750   1.067  0.7080  1.0997  1.1891
   30MOL   H12415842   1.620   2.742   1.222  0.0214 -2.3248  2.4088
   30MOL   H12515843   1.538   2.714   1.073 -1.4340 -0.7798  0.0484
   30MOL   H12615844   1.447   2.541   1.219  0.8889 -1.1406  2.2229
   30MOL   H12715845   1.541   2.479   1.089 -0.4457 -1.1399  0.9268
   30MOL   H12815846   1.665   2.519   1.365 -0.6168  0.6985 -0.3335
   30MOL   H12915847   1.730   2.418   1.236 -0.8313  1.4905 -1.4203
   30MOL   H13015848   1.448   2.362   1.362 -0.0956 -2.4057  0.9311
   30MOL   H13115849   1.540   2.257   1.257  1.2578 -0.2739 -0.4755
   30MOL   H13215850   1.560   2.007   1.790  0.9328  1.0998  0.0781
   30MOL   H13315851   1.517   1.936   1.623  1.4053 -0.7989 -0.5941
   30MOL   H13415852   1.668   1.894   1.701 -0.9151 -1.3469 -2.3914
   30MOL   H13515853   1.866   2.104   1.535  0.5307 -0.7264 -2.5605
   30MOL   H13615854   1.838   1.962   1.612 -0.3993 -0.9047 -0.0363
   30MOL   C13715855   2.294   2.139   1.827  0.2053  0.1563  0.0935
   30MOL   C13815856   2.306   1.991   1.794 -0.2145  0.1287 -0.4241
   30MOL   C13915857   2.214   1.959   1.680 -0.2195 -0.4001  0.7844
   30MOL   C14015858   2.258   2.002   1.537 -0.4068 -0.4311 -0.5042
   30MOL   C14115859   2.180   1.931   1.420 -0.6022 -0.3858 -0.3350
   30MOL   O14215860   2.040   1.972   1.409  0.1528  0.5049 -0.4749
   30MOL   C14315861   1.944   1.881   1.408 -0.8111 -0.2253 -0.3025
   30MOL   O14415862   1.955   1.761   1.418 -0.0514  0.2167  0.0188
   30MOL   C14515863   1.798   1.948   1.409 -0.2219  0.0869 -0.0002
   30MOL   C14615864   1.691   1.831   1.412 -0.2562 -0.4147  0.9070
   30MOL   C14715865   1.780   2.043   1.291  0.0671 -0.0373  0.1828
   30MOL   H14815866   2.191   2.168   1.846 -0.2693  0.9290 -3.2569
   30MOL   H14915867   2.343   2.201   1.752 -0.5925 -0.6206 -1.1074
   30MOL   H15015868   2.346   2.169   1.918 -0.8435 -1.3400  1.2264
   30MOL   H15115869   2.272   1.931   1.879  1.8279  0.5793  0.7454
   30MOL   H15215870   2.410   1.961   1.779 -0.7615  0.0048 -4.4264
   30MOL   H15315871   2.208   1.851   1.667  3.5752 -0.4899 -1.1647
   30MOL   H15415872   2.109   1.981   1.698  0.0388  2.4329 -0.8162
   30MOL   H15515873   2.243   2.110   1.529  1.2664  0.0679  2.4149
   30MOL   H15615874   2.365   1.982   1.528 -0.0091  1.7246 -0.8149
   30MOL   H15715875   2.190   1.823   1.423 -0.6171 -0.4287 -1.4829
   30MOL   H15815876   2.242   1.952   1.333 -2.1161  0.4598 -1.2240
   30MOL   H15915877   1.708   1.756   1.488 -2.2598 -1.2493  0.5804
   30MOL   H16015878   1.700   1.766   1.325  0.5820  0.1025  0.6009
   30MOL   H16115879   1.587   1.862   1.424 -0.0301  1.2467 -1.0924
   30MOL   H16215880   1.683   2.090   1.300  0.9729  1.4927  2.2892
   30MOL   H16315881   1.852   2.125   1.296 -0.9487  0.8707 -0.0126
   30MOL   C16415882   1.287   2.488   0.951  0.0531  0.3265 -1.3777
   30MOL   C16515883   1.270   2.340   0.914 -0.2214 -0.4471 -0.6047
   30MOL   C16615884   1.319   2.250   1.034 -0.1980 -0.3862  0.7705
   30MOL   C16715885   1.352   2.107   0.993  0.6502  0.4429  0.3929
   30MOL   C16815886   1.410   2.012   1.092 -0.0201  0.6028  0.3842
   30MOL   O16915887   1.547   2.033   1.117 -0.1424  0.6241  0.3951
   30MOL   C17015888   1.645   1.942   1.103 -0.5133 -0.3921 -0.7979
   30MOL   O17115889   1.630   1.827   1.059 -0.0034  0.3633  0.6478
   30MOL   C17215890   1.786   2.000   1.142  0.4071  0.2527 -0.0075
   30MOL   C17315891   1.903   1.892   1.110  0.4313 -0.8681 -0.0101
   30MOL   C17415892   1.793   2.139   1.060 -0.3523  0.4121  0.3341
   30MOL   H17515893   1.233   2.507   1.043  1.5948 -2.4376  0.1430
   30MOL   H17615894   1.255   2.540   0.860 -0.1629  2.1629 -0.2828
   30MOL   H17715895   1.389   2.525   0.962  0.2201 -0.1925 -1.1586
   30MOL   H17815896   1.334   2.325   0.827  1.8137  1.8982  0.4349
   30MOL   H17915897   1.167   2.312   0.892 -0.1736 -0.2856 -1.0460
   30MOL   H18015898   1.407   2.295   1.081  1.6622 -3.4070  0.2947
   30MOL   H18115899   1.234   2.256   1.102 -1.1948  2.0119 -0.6013
   30MOL   H18215900   1.424   2.101   0.912 -0.8022  1.4456 -1.0094
   30MOL   H18315901   1.260   2.063   0.953  1.4191 -2.7227  1.9121
   30MOL   H18415902   1.392   1.915   1.045  1.6148 -0.3593  1.7178
   30MOL   H18515903   1.364   2.002   1.190  2.2900 -2.0936  1.2759
   30MOL   H18615904   1.900   1.857   1.007  2.3233 -1.3766  0.0728
   30MOL   H18715905   1.891   1.805   1.174  1.1663  0.0169  1.3733
   30MOL   H18815906   2.006   1.926   1.128  0.3135 -0.6152  0.1969
   30MOL   H18915907   1.737   2.126   0.967 -0.2565 -0.7841  0.4246
   30MOL   H19015908   1.742   2.219   1.113  1.4500  1.1955  0.9133
   30MOL   C19115909   1.922   2.773   1.509  0.7963  0.4579  0.2745
   30MOL   C19215910   1.899   2.624   1.528 -0.7277  0.8034  0.6019
   30MOL   C19315911   1.967   2.554   1.407  0.4751  0.3113  0.0231
   30MOL   C19415912   1.967   2.398   1.434 -0.5804 -0.0043  0.0426
   30MOL   C19515913   2.050   2.323   1.332  0.0574 -0.2423  0.3859
   30MOL   O19615914   1.984   2.321   1.211  0.0694 -0.3103 -0.4839
   30MOL   C19715915   2.028   2.229   1.123 -0.1371  1.0531 -0.6125
   30MOL   O19815916   2.136   2.169   1.143 -0.3154  0.1462  0.3057
   30MOL   C19915917   1.931   2.198   1.013  0.5401  0.6933 -0.0587
   30MOL   C20015918   1.892   2.336   0.951 -0.2310 -0.4305  0.5895
   30MOL   C20115919   2.011   2.114   0.901 -0.5122  1.0822 -0.2943
   30MOL   H20215920   2.028   2.794   1.506  0.8875 -0.0029  0.1794
   30MOL   H20315921   1.864   2.800   1.421  1.7251 -0.2184 -0.5496
   30MOL   H20415922   1.869   2.823   1.590  2.3548  2.5938  0.0291
   30MOL   H20515923   1.791   2.607   1.531 -0.5543 -0.0691  1.7065
   30MOL   H20615924   1.935   2.591   1.625  1.5318 -2.7012 -1.3077
   30MOL   H20715925   2.071   2.587   1.397  1.2582 -1.2758  2.4429
   30MOL   H20815926   1.923   2.578   1.311 -0.6406  0.9529  0.6848
   30MOL   H20915927   2.011   2.387   1.533 -0.9698 -1.1907  0.0883
   30MOL   H21015928   1.871   2.348   1.449  0.1385 -1.6703 -0.8173
   30MOL   H21115929   2.145   2.375   1.318 -0.1417 -0.0874 -0.4351
   30MOL   H21215930   2.076   2.226   1.373 -1.2630  0.1229  2.1258
   30MOL   H21315931   1.812   2.334   0.877 -0.1767 -0.3258  0.5275
   30MOL   H21415932   1.980   2.393   0.920 -1.6436  1.2610 -0.3609
   30MOL   H21515933   1.842   2.407   1.018 -1.1254 -0.5142  0.0113
   30MOL   H21615934   2.039   2.018   0.945 -1.4473  1.0665  0.2889
   30MOL   H21715935   2.111   2.157   0.896  0.2143 -0.7324 -1.9186
   30MOL   C21815936   1.835   1.604   0.293  0.0901  0.3322 -0.3711
   30MOL   C21915937   1.820   1.594   0.442  1.0473  0.2546 -0.2050
   30MOL   C22015938   1.757   1.725   0.493 -0.2535 -0.4228  0.6209
   30MOL   C22115939   1.699   1.716   0.637  0.5348 -0.2457  0.4253
   30MOL   C22215940   1.681   1.852   0.713  1.1349  0.2462  0.1856
   30MOL   O22315941   1.803   1.916   0.741  0.4207  0.3751  0.1401
   30MOL   C22415942   1.819   2.052   0.728  0.1270  0.4109  0.6126
   30MOL   O22515943   1.732   2.131   0.689  0.1307  0.0628 -0.3063
   30MOL   C22615944   1.966   2.096   0.754 -0.9604  0.2579 -0.3294
   30MOL   C22715945   2.075   1.986   0.717  0.3372  0.1832 -0.4138
   30MOL   C22815946   1.999   2.229   0.669 -0.8299 -0.1279 -0.5377
   30MOL   H22915947   1.888   1.517   0.254 -0.6787 -0.2879 -0.0748
   30MOL   H23015948   1.731   1.610   0.261 -0.0914  0.2980  0.2154
   30MOL   H23115949   1.894   1.693   0.274 -0.0688  0.6034  0.3852
   30MOL   H23215950   1.920   1.581   0.484  0.8728 -0.2807  0.0487
   30MOL   H23315951   1.756   1.511   0.472 -0.5378  0.7317 -2.1836
   30MOL   H23415952   1.675   1.755   0.428  0.6437 -1.3671 -0.9946
   30MOL   H23515953   1.832   1.804   0.493 -0.9640  0.3073 -2.2952
   30MOL   H23615954   1.604   1.669   0.612 -0.3330  0.8114  1.6772
   30MOL   H23715955   1.751   1.650   0.707  1.5262 -1.6267 -1.5401
   30MOL   H23815956   1.621   1.836   0.802  0.3260  0.7452 -0.2594
   30MOL   H23915957   1.631   1.911   0.636  0.8644  2.1893  1.8208
   30MOL   H24015958   2.051   1.956   0.615 -2.6736 -2.1743  0.9281
   30MOL   H24115959   2.039   1.898   0.770 -2.1742  1.2532 -0.2651
   30MOL   H24215960   2.178   2.019   0.731  0.0472  0.8670  0.1567
   30MOL   H24315961   2.069   2.287   0.729 -0.6998 -1.0179  0.1710
   30MOL   H24415962   1.905   2.283   0.678  0.9250  2.8804  0.4475
   30MOL   C24515963   2.167   1.629   0.146  0.5637  0.6772  0.2635
   30MOL   C24615964   2.227   1.669   0.276  0.3257  1.1089 -0.2679
   30MOL   C24715965   2.220   1.821   0.292 -0.6148  0.2630 -0.0106
   30MOL   C24815966   2.318   1.865   0.406 -0.3411 -0.2938  0.7922
   30MOL   C24915967   2.328   2.013   0.430  0.5895 -0.5161 -0.1113
   30MOL   O25015968   2.205   2.071   0.450  0.0516  0.4187 -0.2827
   30MOL   C25115969   2.185   2.197   0.493  0.7782  0.0353 -0.5489
   30MOL   O25215970   2.277   2.261   0.534  0.7250  0.5428  1.0088
   30MOL   C25315971   2.036   2.239   0.514  0.3439 -0.0468 -0.2531
   30MOL   C25415972   2.019   2.391   0.468  0.0380  0.5606  0.2221
   30MOL   C25515973   1.933   2.152   0.426 -0.2060  0.1458  0.0476
   30MOL   H25615974   2.076   1.681   0.118  0.9264  0.3612 -1.5783
   30MOL   H25715975   2.231   1.630   0.058  2.1516 -2.2404  1.3180
   30MOL   H25815976   2.133   1.526   0.160 -0.2775  1.0639  1.0948
   30MOL   H25915977   2.156   1.630   0.349  0.0605 -2.3782 -2.2729
   30MOL   H26015978   2.323   1.622   0.291  0.7515  1.1471 -2.6263
   30MOL   H26115979   2.117   1.855   0.303  0.4044  2.5749  3.0520
   30MOL   H26215980   2.262   1.863   0.201 -0.4681  0.1650  0.0121
   30MOL   H26315981   2.294   1.813   0.499 -2.8322 -1.3497 -0.4166
   30MOL   H26415982   2.419   1.833   0.379 -0.8952 -0.4648 -1.1257
   30MOL   H26515983   2.392   2.034   0.517  0.4644 -0.3212 -0.0646
   30MOL   H26615984   2.374   2.076   0.353  0.3985  1.9395  1.7027
   30MOL   H26715985   1.915   2.424   0.473  0.8258  2.9275  1.3466
   30MOL   H26815986   2.078   2.450   0.538  0.9382 -2.0693  1.7504
   30MOL   H26915987   2.061   2.409   0.370 -2.7598  1.3315 -0.8930
   30MOL   H27015988   1.934   2.049   0.459 -0.0581  0.1422  0.0344
   30MOL   H27115989   1.834   2.174   0.465  0.9122  0.2910  2.9026
   30MOL   C27215990   1.260   2.464   0.514 -0.7928  0.2464 -1.0622
   30MOL   C27315991   1.344   2.343   0.472 -0.5400  0.1426  0.3386
   30MOL   C27415992   1.447   2.359   0.358 -0.8179 -0.0896 -0.5067
   30MOL   C27515993   1.561   2.450   0.391 -0.5583 -0.4789 -0.6238
   30MOL   C27615994   1.677   2.448   0.290 -0.0788  0.7574  0.3478
   30MOL   O27715995   1.731   2.311   0.289 -0.7356  0.2947 -0.0408
   30MOL   C27815996   1.848   2.291   0.229 -0.2568  0.5363 -0.4401
   30MOL   O27915997   1.901   2.376   0.154 -0.2427  0.0163  0.2911
   30MOL   C28015998   1.916   2.157   0.266 -0.8306 -0.3636 -0.2290
   30MOL   C28115999   2.054   2.155   0.199 -0.0288  0.0093 -0.2823
   30MOL   C28216000   1.834   2.032   0.219 -0.4767 -0.1312 -0.7070
   30MOL   H28316001   1.216   2.510   0.426  2.1718  1.8204 -1.7703
   30MOL   H28416002   1.180   2.431   0.581  1.2602 -0.2667  1.1855
   30MOL   H28516003   1.320   2.544   0.556 -1.4846 -0.4795  1.4090
   30MOL   H28616004   1.387   2.294   0.559 -1.9898 -1.5115  0.1432
   30MOL   H28716005   1.268   2.276   0.432 -1.1789 -0.7226  2.9457
   30MOL   H28816006   1.491   2.262   0.338  0.5765  0.3728  0.2651
   30MOL   H28916007   1.397   2.378   0.263 -2.1337  1.4807  0.4821
   30MOL   H29016008   1.537   2.556   0.387  0.7970 -0.2302 -2.6192
   30MOL   H29116009   1.605   2.424   0.488  0.7773 -1.1464 -1.4015
   30MOL   H29216010   1.755   2.519   0.316  1.5792 -0.2304 -1.7171
   30MOL   H29316011   1.630   2.466   0.193 -1.2609 -0.0663  0.7544
   30MOL   H29416012   2.117   2.237   0.235 -0.7726 -0.1194  1.3291
   30MOL   H29516013   2.107   2.062   0.219 -1.8713 -0.9866  0.0749
   30MOL   H29616014   2.059   2.164   0.090 -1.7545  1.3875 -0.2667
   30MOL   H29716015   1.902   1.946   0.226 -0.8673 -0.2599  2.0388
   30MOL   H29816016   1.750   2.023   0.287 -0.3519 -0.5252 -0.6062
   30MOL   C29916017   2.212   1.865   7.202 -0.3219  0.1003  0.2720
   30MOL   C30016018   2.098   1.855   7.310 -0.9804 -0.4937 -0.5370
   30MOL   C30116019   2.148   1.892   7.448  0.5989 -0.2750  0.0150
   30MOL   C30216020   2.033   1.910   7.543  0.5510 -0.6459  0.1522
   30MOL   C30316021   2.077   1.974   7.677 -0.0836 -0.3338 -0.0449
   30MOL   O30416022   1.971   1.957   7.760  0.0311  1.2252  0.0402
   30MOL   C30516023   1.867   2.046   7.770  0.0140 -0.0852 -0.4264
   30MOL   O30616024   1.851   2.139   7.694 -0.1371  0.4542  0.4611
   30MOL   C30716025   1.766   2.028   0.072 -1.3873 -0.7354 -0.2596
   30MOL   C30816026   1.729   1.882   0.058  0.3943 -0.1856  0.4151
   30MOL   C30916027   1.637   2.115   0.062  0.0177  0.2210  0.4181
   30MOL   H31016028   2.300   1.811   7.237 -1.9307 -2.0609  1.1792
   30MOL   H31116029   2.240   1.967   7.180  0.8495  0.1852  2.0313
   30MOL   H31216030   2.195   1.808   7.111 -0.2634  0.3611  0.0985
   30MOL   H31316031   2.068   1.750   7.313  3.0868 -1.7302  1.0547
   30MOL   H31416032   2.014   1.915   7.276 -0.3083  0.2682 -0.8938
   30MOL   H31516033   2.192   1.991   7.440 -0.8481  0.4865  1.2939
   30MOL   H31616034   2.222   1.820   7.483 -0.4938 -0.4120  2.1305
   30MOL   H31716035   1.977   1.818   7.557  0.9306 -0.8743  0.1889
   30MOL   H31816036   1.962   1.982   7.502 -2.0002 -2.5444  1.1260
   30MOL   H31916037   2.169   1.931   7.717  0.3041  0.8762  0.3877
   30MOL   H32016038   2.112   2.076   7.660 -1.4646  0.5368  2.2459
   30MOL   H32116039   1.810   1.812   0.076 -0.6415 -1.5703 -0.1740
   30MOL   H32216040   1.651   1.852   0.129  0.4132 -0.2243  0.4197
   30MOL   H32316041   1.711   1.854   7.768 -1.5137  3.6250 -0.3810
   30MOL   H32416042   1.672   2.217   0.047 -0.4675  0.5217  1.3114
   30MOL   H32516043   1.598   2.121   0.163 -0.2787 -0.6446  0.3556
   30MOL   C32616044   1.299   1.889   0.683 -0.0968 -0.0419 -0.3722
   30MOL   C32716045   1.335   1.997   0.585 -0.0018  0.0664  1.1372
   30MOL   C32816046   1.393   1.948   0.455  0.0151 -0.3183  0.6648
   30MOL   C32916047   1.294   1.889   0.357 -0.2366  0.1385  0.2474
   30MOL   C33016048   1.357   1.856   0.217 -0.2622  0.0716 -0.6583
   30MOL   O33116049   1.403   1.975   0.145 -0.0110 -0.1215  0.9228
   30MOL   C33216050   1.437   1.967   0.021  0.0813  1.1642 -0.2848
   30MOL   O33316051   1.410   1.872   7.763  0.1698 -0.1542 -0.0832
   30MOL   C33416052   1.515   2.087   7.777  0.1077  0.5657  0.0482
   30MOL   C33516053   1.429   2.215   7.782 -0.5354 -0.0780  0.7592
   30MOL   C33616054   1.563   2.056   7.625 -0.3183 -0.3958 -1.0129
   30MOL   H33716055   1.237   1.921   0.767  0.0171  4.6716 -1.9605
   30MOL   H33816056   1.380   1.837   0.734  0.9013 -0.6122 -2.4954
   30MOL   H33916057   1.235   1.817   0.632 -0.7512  0.2008  0.0927
   30MOL   H34016058   1.407   2.066   0.628 -0.3245  0.4924  0.9971
   30MOL   H34116059   1.250   2.063   0.568  0.1931  0.0209 -0.0714
   30MOL   H34216060   1.482   1.887   0.471  0.3774  0.0407  0.0200
   30MOL   H34316061   1.408   2.046   0.409  0.4378 -0.5765  0.2477
   30MOL   H34416062   1.205   1.951   0.354  1.1970  2.1756 -2.5869
   30MOL   H34516063   1.268   1.787   0.389  0.5313  0.3688  1.6551
   30MOL   H34616064   1.277   1.811   0.159 -1.7058 -2.0501  2.8211
   30MOL   H34716065   1.435   1.779   0.223 -3.1604 -2.8693  0.8662
   30MOL   H34816066   1.487   2.291   7.731 -2.3683  0.2115 -0.9750
   30MOL   H34916067   1.403   2.235   0.072 -2.5686 -2.7657  0.8367
   30MOL   H35016068   1.335   2.200   7.728  0.2532  0.2449 -0.7107
   30MOL   H35116069   1.610   1.958   7.626 -0.4350 -0.4479  0.1284
   30MOL   H35216070   1.643   2.127   7.605  1.0322 -1.1012  1.6369
   30MOL   C35316071   1.581   2.459   7.008  0.1407  0.1329 -0.3340
   30MOL   C35416072   1.661   2.513   7.123 -0.8776 -0.1491 -0.2250
   30MOL   C35516073   1.632   2.454   7.266 -0.1620 -0.7742  0.6099
   30MOL   C35616074   1.493   2.488   7.320 -0.0424  0.1160  0.4104
   30MOL   C35716075   1.482   2.435   7.465  0.3092  0.7246  0.0643
   30MOL   O35816076   1.509   2.291   7.458 -0.0924 -0.4026 -0.3042
   30MOL   C35916077   1.410   2.204   7.468  0.3201  0.4294 -0.3105
   30MOL   O36016078   1.292   2.233   7.472  0.2679 -0.2102 -1.1248
   30MOL   C36116079   1.471   2.060   7.488  0.1078  0.2738 -0.1084
   30MOL   C36216080   1.357   1.954   7.491 -0.0432 -0.4424  0.2052
   30MOL   C36316081   1.577   2.033   7.381 -0.1079  0.9375  0.1103
   30MOL   H36416082   1.573   2.351   6.997  0.0997 -0.1155  1.8356
   30MOL   H36516083   1.603   2.508   6.914  1.0688  0.8413  0.2494
   30MOL   H36616084   1.476   2.489   7.017  0.4087  1.1036 -0.4202
   30MOL   H36716085   1.766   2.485   7.111  0.1232  2.0775  2.6678
   30MOL   H36816086   1.641   2.620   7.123  0.6914  0.1556 -1.1469
   30MOL   H36916087   1.715   2.475   7.334  1.2668  1.0677 -1.6531
   30MOL   H37016088   1.650   2.347   7.253 -1.2130 -0.8559 -0.1947
   30MOL   H37116089   1.416   2.450   7.252 -0.1739  0.7013  0.2323
   30MOL   H37216090   1.480   2.596   7.325  1.1716  0.3272 -0.6245
   30MOL   H37316091   1.574   2.471   7.510  0.9135  1.0944 -1.4456
   30MOL   H37416092   1.392   2.471   7.515  1.1861  4.1160 -0.7182
   30MOL   H37516093   1.286   1.953   7.408 -0.8800 -0.5527  0.9180
   30MOL   H37616094   1.398   1.855   7.506 -1.1267 -0.5358  2.9734
   30MOL   H37716095   1.295   1.982   7.576  1.8235  3.2698  0.4605
   30MOL   H37816096   1.647   2.116   7.376  0.8527  0.3284  2.4254
   30MOL   H37916097   1.641   1.956   7.426  1.9231  1.6441 -1.4905
   30MOL   C38016098   1.860   1.571   7.731 -0.7719 -0.1735 -0.2814
   30MOL   C38116099   1.817   1.525   7.593 -0.1179 -0.1112  0.2276
   30MOL   C38216100   1.691   1.592   7.537 -0.3235  0.2789 -0.3626
   30MOL   C38316101   1.656   1.541   7.396  0.4960 -0.2264  0.2280
   30MOL   C38416102   1.537   1.612   7.333 -0.2745  0.2712  1.6830
   30MOL   O38516103   1.559   1.756   7.319 -0.1704 -0.2921 -0.1786
   30MOL   C38616104   1.491   1.838   7.239  0.4793 -0.7132 -0.5391
   30MOL   O38716105   1.389   1.815   7.178  0.8966  0.0670  0.7985
   30MOL   C38816106   1.546   1.982   7.233 -0.2604 -0.3962  0.0665
   30MOL   C38916107   1.454   2.084   7.160  0.2917 -0.6716 -0.1540
   30MOL   C39016108   1.687   1.975   7.162 -0.7795 -0.5492  0.3787
   30MOL   H39116109   1.903   1.671   7.739 -0.8343 -0.0512 -1.4060
   30MOL   H39216110   1.787   1.550   7.810  1.6338  1.0080  2.3375
   30MOL   H39316111   1.940   1.504   7.761 -1.6236 -0.7436  0.7773
   30MOL   H39416112   1.802   1.417   7.598  0.1639 -0.1824 -0.4542
   30MOL   H39516113   1.897   1.532   7.520 -0.5590  1.3404 -0.1269
   30MOL   H39616114   1.602   1.597   7.600 -0.1129  0.2305 -0.0572
   30MOL   H39716115   1.720   1.696   7.519  1.6342 -0.0649  0.6670
   30MOL   H39816116   1.736   1.544   7.322  0.5016  1.8173  0.2742
   30MOL   H39916117   1.652   1.433   7.405  0.5863 -0.4531 -2.1599
   30MOL   H40016118   1.448   1.586   7.390 -1.1610  0.1310  0.2620
   30MOL   H40116119   1.517   1.572   7.233 -0.3485 -0.1290  1.8544
   30MOL   H40216120   1.470   2.181   7.207 -0.2626  0.0606 -1.4369
   30MOL   H40316121   1.354   2.053   7.191  0.1512 -0.7468 -0.6798
   30MOL   H40416122   1.457   2.085   7.051 -1.6024 -1.0956 -0.2372
   30MOL   H40516123   1.764   1.953   7.235 -1.1786 -1.1819  0.6076
   30MOL   H40616124   1.700   2.083   7.150 -2.2322 -0.7197 -3.4302
   30MOL   C40716125   1.972   2.292   7.385 -0.2607  0.0388  0.0618
   30MOL   C40816126   2.002   2.385   7.259 -0.1100 -0.0724  0.7142
   30MOL   C40916127   1.967   2.308   7.127 -0.4077 -0.0857 -0.1768
   30MOL   C41016128   2.069   2.197   7.097 -0.4806  0.1862 -0.9581
   30MOL   C41116129   2.039   2.126   6.964  0.3734  0.0193  0.2300
   30MOL   O41216130   1.904   2.071   6.973  0.6067  0.1695  0.5474
   30MOL   C41316131   1.878   1.945   6.999 -0.4831 -0.3306 -0.6900
   30MOL   O41416132   1.964   1.859   7.010  0.3766  0.3180  0.2094
   30MOL   C41516133   1.722   1.903   7.027  0.2960 -0.3232 -0.5744
   30MOL   C41616134   1.723   1.747   7.056 -0.3784 -0.1850  0.4200
   30MOL   C41716135   1.640   1.946   6.908  0.2576  0.2266  0.2004
   30MOL   H41816136   1.871   2.253   7.398 -0.4943  0.4443 -0.5432
   30MOL   H41916137   2.038   2.206   7.372  0.3966  0.4449  0.7408
   30MOL   H42016138   2.012   2.340   7.474  1.6253  0.1453 -0.8087
   30MOL   H42116139   2.107   2.413   7.258  0.1776 -1.1090  0.9115
   30MOL   H42216140   1.941   2.474   7.274 -0.7971  0.0074 -2.2182
   30MOL   H42316141   1.874   2.252   7.136  0.6204 -1.8545 -0.4074
   30MOL   H42416142   1.966   2.382   7.047  0.9883  0.2085  0.0632
   30MOL   H42516143   2.080   2.126   7.180 -0.2849 -0.3248 -1.4136
   30MOL   H42616144   2.166   2.246   7.098  0.6826 -1.9979 -1.6365
   30MOL   H42716145   2.041   2.194   6.879  0.7698  0.7452  0.8162
   30MOL   H42816146   2.122   2.056   6.946 -1.4384 -1.3610 -3.3082
   30MOL   H42916147   1.778   1.700   6.975 -0.4724  1.6571 -0.7389
   30MOL   H43016148   1.628   1.696   7.063 -1.0992  1.1710  0.7413
   30MOL   H43116149   1.779   1.718   7.146  0.2336 -1.8199 -0.4741
   30MOL   H43216150   1.658   2.052   6.891  0.3761 -0.0381 -1.3111
   30MOL   H43316151   1.539   1.923   6.943  1.2108 -2.0809  1.5365
   30MOL   C43416152   1.155   1.543   7.187 -0.3571 -0.3548  0.4769
   30MOL   C43516153   1.206   1.482   7.053  0.6393  0.2345 -0.0343
   30MOL   C43616154   1.343   1.540   6.998  0.2996  0.2331 -0.3235
   30MOL   C43716155   1.366   1.503   6.854 -0.3660  0.4153 -0.4739
   30MOL   C43816156   1.508   1.542   6.804  0.1382  0.2391 -0.4214
   30MOL   O43916157   1.518   1.685   6.804 -0.2176  0.4427 -0.6515
   30MOL   C44016158   1.634   1.736   6.748  0.4057 -0.3810  0.1276
   30MOL   O44116159   1.725   1.673   6.690 -0.2255  0.1390  0.7498
   30MOL   C44216160   1.655   1.892   6.758 -0.3347  0.0666 -0.6025
   30MOL   C44316161   1.803   1.924   6.701  0.3435 -0.1012 -0.6003
   30MOL   C44416162   1.545   1.954   6.662  0.5670 -0.0649  0.0943
   30MOL   H44516163   1.240   1.558   7.253  0.2876  0.9410 -0.6277
   30MOL   H44616164   1.105   1.639   7.174  0.7602 -0.0232 -1.6837
   30MOL   H44716165   1.084   1.478   7.237 -3.4466  2.4823 -0.0263
   30MOL   H44816166   1.218   1.374   7.058 -1.4347 -0.0487 -0.8971
   30MOL   H44916167   1.131   1.502   6.977  0.4166  1.0490  0.3895
   30MOL   H45016168   1.326   1.646   7.017 -1.0597 -0.0076 -0.1324
   30MOL   H45116169   1.423   1.501   7.061 -0.0649  1.0391  0.6399
   30MOL   H45216170   1.287   1.551   6.795 -0.2383  1.1868 -0.0258
   30MOL   H45316171   1.360   1.395   6.849  0.2486  0.3449  0.3074
   30MOL   H45416172   1.522   1.505   6.702 -3.7373 -0.5153 -0.7450
   30MOL   H45516173   1.592   1.505   6.862 -0.1507 -1.9059 -1.3335
   30MOL   H45616174   1.816   2.030   6.724  2.0921 -0.5264  0.3881
   30MOL   H45716175   1.884   1.865   6.744  0.7267  1.0739  0.3038
   30MOL   H45816176   1.815   1.910   6.594  0.7994 -0.9593 -0.4382
   30MOL   H45916177   1.481   1.869   6.638  0.7970 -0.2771  0.2305
   30MOL   H46016178   1.600   1.942   6.568 -0.9547  0.1840 -0.8464
   30MOL   C46116179   0.818   1.725   6.729  0.6390 -0.0321 -0.1982
   30MOL   C46216180   0.865   1.737   6.872 -0.4329 -0.2187  0.2828
   30MOL   C46316181   0.945   1.866   6.896 -0.8494 -0.6354 -0.6075
   30MOL   C46416182   1.086   1.864   6.842  0.0917 -0.0294 -0.0915
   30MOL   C46516183   1.188   1.973   6.896  0.0706  0.7744 -0.4964
   30MOL   O46616184   1.305   1.973   6.811  0.3089 -0.0782  0.0015
   30MOL   C46716185   1.375   2.091   6.789  0.5731 -0.8294 -0.1788
   30MOL   O46816186   1.350   2.191   6.847 -0.0449 -0.5819 -0.5343
   30MOL   C46916187   1.474   2.089   6.669 -0.1511  0.5311  0.4209
   30MOL   C47016188   1.369   2.099   6.546 -0.6794  0.0621 -0.2657
   30MOL   C47116189   1.568   2.208   6.663 -0.3632 -0.4806 -0.3139
   30MOL   H47216190   0.786   1.622   6.709  1.2276 -0.0436 -1.1299
   30MOL   H47316191   0.896   1.740   6.654  2.4707  3.7939  2.3485
   30MOL   H47416192   0.740   1.795   6.698 -1.5085 -1.9687  0.6878
   30MOL   H47516193   0.921   1.649   6.904 -0.6477 -0.0582  1.1059
   30MOL   H47616194   0.781   1.743   6.941  0.5742  1.4198  1.4082
   30MOL   H47716195   0.959   1.861   7.004  1.3594 -0.5682 -0.8572
   30MOL   H47816196   0.894   1.960   6.876  0.9975  0.5052 -0.1102
   30MOL   H47916197   1.069   1.865   6.735 -0.2699  1.7260 -0.0274
   30MOL   H48016198   1.145   1.774   6.860  0.9463  0.6927  0.8070
   30MOL   H48116199   1.139   2.069   6.880  1.4446  1.7467  1.0077
   30MOL   H48216200   1.220   1.973   7.000  1.9420  1.4500 -1.0435
   30MOL   H48316201   1.302   2.014   6.554  0.1106 -0.5319  0.0949
   30MOL   H48416202   1.423   2.090   6.451 -1.9885  2.7268 -1.3433
   30MOL   H48516203   1.326   2.199   6.543  0.8978  0.7596 -0.2056
   30MOL   H48616204   1.647   2.185   6.734 -2.1371 -1.1570  1.5168
   30MOL   H48716205   1.519   2.287   6.720 -0.2668 -1.1270  0.6859
   30MOL   C48816206   1.179   2.587   6.904  0.1287 -0.0294 -0.0300
   30MOL   C48916207   1.234   2.654   6.779  0.4142  0.2676  0.0909
   30MOL   C49016208   1.283   2.550   6.679 -0.0273  0.1075 -0.2300
   30MOL   C49116209   1.326   2.621   6.544  0.1417 -0.1774  0.1573
   30MOL   C49216210   1.386   2.519   6.450  0.4598 -0.0216 -0.5706
   30MOL   O49316211   1.485   2.441   6.517 -0.0808 -0.0853 -0.4957
   30MOL   C49416212   1.542   2.345   6.445  0.6957 -0.9466 -0.3165
   30MOL   O49516213   1.516   2.307   6.327 -0.0471  0.5660 -0.0409
   30MOL   C49616214   1.653   2.276   6.534  0.0641 -0.2388 -0.1694
   30MOL   C49716215   1.729   2.169   6.456 -1.9890  0.2244  0.3649
   30MOL   C49816216   1.742   2.385   6.603 -0.1409  0.3572 -0.7667
   30MOL   H49916217   1.096   2.520   6.879 -1.1954  1.7380 -0.4612
   30MOL   H50016218   1.259   2.534   6.956  0.4442  0.0534 -0.4329
   30MOL   H50116219   1.147   2.655   6.983  1.2805 -1.1644  1.4353
   30MOL   H50216220   1.319   2.707   6.822  0.0881 -0.9142  2.2779
   30MOL   H50316221   1.162   2.720   6.732 -2.4512 -2.5122  0.4089
   30MOL   H50416222   1.373   2.512   6.728  0.3708 -0.5111 -1.4140
   30MOL   H50516223   1.208   2.472   6.666 -0.5234  0.5965 -0.3183
   30MOL   H50616224   1.396   2.703   6.556  0.6520 -0.6624  0.5149
   30MOL   H50716225   1.243   2.667   6.490  0.2664 -0.7522 -0.5300
   30MOL   H50816226   1.318   2.449   6.403 -0.1862 -0.3469  0.8546
   30MOL   H50916227   1.426   2.571   6.362  0.8493 -3.0259 -2.2117
   30MOL   H51016228   1.792   2.106   6.519 -1.9809 -0.2513 -0.1170
   30MOL   H51116229   1.794   2.201   6.375 -2.9818  1.5003  0.0571
   30MOL   H51216230   1.662   2.098   6.409 -1.2126  0.8139 -1.6910
   30MOL   H51316231   1.785   2.347   6.696  1.1975 -0.4830 -1.7104
   30MOL   H51416232   1.683   2.465   6.649 -2.9436 -2.6672  1.1657
   30MOL   C51516233   2.520   2.324   6.864  0.8358 -0.0365 -0.6218
   30MOL   C51616234   2.411   2.414   6.801  0.7851  0.0131 -0.3140
   30MOL   C51716235   2.275   2.355   6.765 -0.1353 -0.4165  0.3720
   30MOL   C51816236   2.284   2.267   6.636 -0.8062  0.1330 -0.0494
   30MOL   C51916237   2.150   2.208   6.592  0.9436 -0.0307  0.5538
   30MOL   O52016238   2.044   2.303   6.609  0.8907  0.5110 -0.0743
   30MOL   C52116239   1.984   2.353   6.495 -0.4636 -0.7657  0.2637
   30MOL   O52216240   2.027   2.337   6.384 -0.3399 -0.2977 -0.2356
   30MOL   C52316241   1.863   2.449   6.528 -0.7771 -0.1079 -0.2703
   30MOL   C52416242   1.920   2.567   6.613 -0.3009  0.0568 -0.4245
   30MOL   C52516243   1.803   2.505   6.403  0.4195  0.1933  1.0186
   30MOL   H52616244   2.549   2.258   6.782 -1.3925  0.3659 -1.7837
   30MOL   H52716245   2.610   2.373   6.901 -0.1777  1.3496  0.0517
   30MOL   H52816246   2.475   2.269   6.947  0.2700 -0.4578 -1.1925
   30MOL   H52916247   2.403   2.504   6.862 -1.1299  1.0125 -1.9999
   30MOL   H53016248   2.452   2.446   6.705  0.4661 -1.0058 -0.8063
   30MOL   H53116249   2.256   2.287   6.848  2.8355  0.2252  1.6229
   30MOL   H53216250   2.206   2.435   6.738  1.3153  0.8799  0.4585
   30MOL   H53316251   2.358   2.189   6.654 -1.3936  0.4007  3.7142
   30MOL   H53416252   2.326   2.330   6.557 -1.1986 -0.1718 -0.5074
   30MOL   H53516253   2.157   2.175   6.489  0.2387  0.9584  0.1708
   30MOL   H53616254   2.126   2.123   6.655 -0.8559  1.0766  1.4238
   30MOL   H53716255   2.022   2.591   6.585 -0.2494 -0.1236 -0.3939
   30MOL   H53816256   1.937   2.537   6.716 -1.6874  3.3355  0.8174
   30MOL   H53916257   1.866   2.661   6.601  1.6430  1.2764  0.1473
   30MOL   H54016258   1.875   2.555   6.338  0.8053 -0.8171  0.6553
   30MOL   H54116259   1.721   2.573   6.425 -0.8084 -0.1028 -2.3615
   30MOL   H54216260   1.761   2.427   6.339  1.1660 -0.8281  1.7495
   31MOL     C116261   7.500   3.666   2.504  0.0526 -0.4665 -0.1518
   31MOL     C216262   7.388   3.609   2.415  0.5801  0.2171 -0.0926
   31MOL     C316263   7.399   3.676   2.274 -0.6926 -0.6250 -0.1425
   31MOL     C416264   7.276   3.632   2.187 -0.7182  0.6127  0.3159
   31MOL     C516265   7.271   3.713   2.061 -0.6371  0.0255  0.3352
   31MOL     O616266   7.155   3.681   1.983  0.0826 -0.1779  0.0611
   31MOL     C716267   7.150   3.566   1.907  0.9682  0.2705  0.3546
   31MOL     O816268   7.234   3.480   1.884  0.0427 -0.4463 -0.0152
   31MOL     C916269   7.021   3.558   1.828 -0.0049 -0.2429  0.3749
   31MOL    C1016270   7.030   3.649   1.703  0.7915  0.0652  0.3252
   31MOL    C1116271   6.888   3.565   1.914  0.0223  0.2034 -0.5116
   31MOL    H1216272   7.515   3.592   2.583  2.4437  0.0807 -0.0741
   31MOL    H1316273   7.458   3.758   2.543 -1.4269 -1.1943  0.0113
   31MOL    H1416274   7.595   3.675   2.452 -0.9615 -0.5816 -2.0673
   31MOL    H1516275   7.374   3.502   2.405 -2.7458  0.7899 -2.5297
   31MOL    H1616276   7.292   3.644   2.455  1.8221  0.5916  2.6976
   31MOL    H1716277   7.391   3.784   2.286  2.2709 -0.3575 -0.2881
   31MOL    H1816278   7.496   3.665   2.226 -1.1913 -0.3746 -1.2139
   31MOL    H1916279   7.187   3.661   2.242 -1.5500  0.1753 -0.7932
   31MOL    H2016280   7.275   3.525   2.167  0.6444  0.8047 -0.9034
   31MOL    H2116281   7.264   3.820   2.082 -0.3920  0.0223  0.4319
   31MOL    H2216282   7.366   3.701   2.008 -1.7972  0.1100 -1.8351
   31MOL    H2316283   7.109   3.617   1.636  0.0786 -0.8758 -0.0727
   31MOL    H2416284   7.057   3.743   1.753 -1.1071  0.4247  0.7342
   31MOL    H2516285   6.938   3.656   1.646  0.0808  1.0984  1.5480
   31MOL    H2616286   6.862   3.671   1.909 -0.2866  0.0380 -2.6718
   31MOL    H2716287   6.915   3.555   2.019  0.6168  3.8009 -0.2563
   31MOL    H2816288   7.022   3.455   1.793  0.1586 -1.0861  2.7412
   31MOL    C2916289   6.243   2.975   2.022  0.1095  0.8181 -0.3508
   31MOL    C3016290   6.368   2.938   1.945 -0.1751  0.2245 -0.1532
   31MOL    C3116291   6.494   3.028   1.981  0.0764 -0.1437 -0.3280
   31MOL    C3216292   6.607   2.999   1.878 -0.1870 -0.4665 -0.1644
   31MOL    C3316293   6.734   3.087   1.889  0.2466  0.8121  0.4243
   31MOL    O3416294   6.717   3.226   1.869 -1.4620 -0.0792 -0.1148
   31MOL    C3516295   6.820   3.312   1.903 -0.3830  0.2995  0.3120
   31MOL    O3616296   6.925   3.268   1.940  0.0941 -0.5292 -0.3974
   31MOL    C3716297   6.772   3.463   1.893  0.2261 -0.0916  0.1419
   31MOL    C3816298   6.726   3.481   1.748  0.3856 -0.5371 -0.2097
   31MOL    C3916299   6.652   3.502   1.988 -0.2116 -0.2004 -0.2369
   31MOL    H4016300   6.155   2.916   1.997  2.1120 -2.1596 -0.7308
   31MOL    H4116301   6.263   2.953   2.126 -0.2525 -1.4949 -0.7362
   31MOL    H4216302   6.241   3.084   2.023  0.9743  0.8345  0.2354
   31MOL    H4316303   6.336   2.950   1.841  3.5650  0.3780 -1.3740
   31MOL    H4416304   6.391   2.834   1.967 -0.7244 -0.3322 -2.1583
   31MOL    H4516305   6.530   2.993   2.078  1.6013 -1.0046 -1.1792
   31MOL    H4616306   6.469   3.134   1.989 -0.1402 -0.1497 -0.9394
   31MOL    H4716307   6.639   2.896   1.899  2.1670  0.1361 -0.5755
   31MOL    H4816308   6.577   3.004   1.774 -0.4240  2.2157  0.0090
   31MOL    H4916309   6.797   3.048   1.809  1.8386  0.5634  1.7797
   31MOL    H5016310   6.781   3.076   1.987  1.5226  2.1005 -0.0242
   31MOL    H5116311   6.640   3.413   1.740  1.4647 -1.7333 -2.2669
   31MOL    H5216312   6.805   3.442   1.684 -1.1391 -0.4415 -2.1984
   31MOL    H5316313   6.713   3.585   1.719  0.8366 -0.5587 -0.4999
   31MOL    H5416314   6.568   3.443   1.951  0.0741 -0.6915 -0.1086
   31MOL    H5516315   6.627   3.606   1.967  0.9897  0.1670  0.1056
   31MOL    C5616316   6.383   3.672   2.842 -1.3461  0.3625  0.0005
   31MOL    C5716317   6.373   3.792   2.756  0.1439 -0.3454  0.4456
   31MOL    C5816318   6.340   3.755   2.612 -0.2827 -0.8108 -0.1581
   31MOL    C5916319   6.448   3.677   2.544  0.2957 -0.1844  1.1920
   31MOL    C6016320   6.406   3.636   2.402  0.2296  0.4353 -0.2081
   31MOL    O6116321   6.520   3.563   2.348 -0.2031 -0.0829  0.0861
   31MOL    C6216322   6.512   3.524   2.211 -0.2774 -0.3670 -1.0827
   31MOL    O6316323   6.410   3.531   2.138 -0.3415 -0.3021  0.5526
   31MOL    C6416324   6.655   3.488   2.146  0.3303 -0.0088 -0.0790
   31MOL    C6516325   6.759   3.589   2.208 -0.0815  0.5639 -0.6625
   31MOL    C6616326   6.700   3.343   2.183  0.4524 -0.2346  0.4394
   31MOL    H6716327   6.458   3.602   2.805  0.7459  2.0101  0.9864
   31MOL    H6816328   6.292   3.612   2.848 -0.9507 -0.3693 -1.0434
   31MOL    H6916329   6.420   3.707   2.939 -0.1821 -1.5800  0.2896
   31MOL    H7016330   6.304   3.860   2.805 -1.4144 -0.8109 -1.0826
   31MOL    H7116331   6.469   3.845   2.759  0.2339 -0.2221 -2.6656
   31MOL    H7216332   6.241   3.711   2.607 -0.3311 -0.5010 -2.1463
   31MOL    H7316333   6.340   3.848   2.555 -0.6397  0.0671  1.2418
   31MOL    H7416334   6.478   3.591   2.604  1.6173 -0.6805 -0.1699
   31MOL    H7516335   6.538   3.738   2.543  2.2410 -2.9229  2.0206
   31MOL    H7616336   6.309   3.586   2.406  0.6354 -0.3328  0.2690
   31MOL    H7716337   6.389   3.720   2.335  2.8752  0.4470 -0.9451
   31MOL    H7816338   6.750   3.679   2.147  1.5524  2.7864  2.2498
   31MOL    H7916339   6.861   3.552   2.206 -0.4344 -0.4020 -2.2108
   31MOL    H8016340   6.732   3.627   2.306  1.0115  0.3243 -0.2640
   31MOL    H8116341   6.803   3.331   2.149  1.0914  0.1323  2.1481
   31MOL    H8216342   6.643   3.278   2.118  0.0774  0.7041 -0.1822
   31MOL    C8316343   5.848   3.300   2.302 -0.4034  0.1229  0.3420
   31MOL    C8416344   5.997   3.350   2.305 -0.3247  0.3626  0.2751
   31MOL    C8516345   6.093   3.232   2.303 -0.7897 -0.0556 -0.0423
   31MOL    C8616346   6.239   3.277   2.300  0.4475 -0.2574  0.1452
   31MOL    C8716347   6.347   3.164   2.333  0.2719  0.1723 -0.8184
   31MOL    O8816348   6.476   3.196   2.289  0.0007  0.1372 -0.2429
   31MOL    C8916349   6.564   3.254   2.380  0.1414 -0.0910  0.5514
   31MOL    O9016350   6.538   3.283   2.500  0.4896  0.6180  0.3004
   31MOL    C9116351   6.707   3.266   2.317  0.1100 -0.8687 -0.1444
   31MOL    C9216352   6.751   3.125   2.276 -0.0787  0.2788  0.1705
   31MOL    C9316353   6.812   3.339   2.412  0.2411 -0.1426 -0.1572
   31MOL    H9416354   5.817   3.241   2.216  1.9188 -0.6307 -0.0244
   31MOL    H9516355   5.822   3.244   2.392 -0.3668  0.2763  0.4483
   31MOL    H9616356   5.780   3.385   2.294 -1.8961 -1.0909 -0.1460
   31MOL    H9716357   6.023   3.406   2.395 -1.1898 -1.1387  1.4898
   31MOL    H9816358   6.006   3.423   2.225 -0.3480  1.3853  1.2006
   31MOL    H9916359   6.070   3.174   2.213 -2.0326 -1.2608  1.0250
   31MOL   H10016360   6.084   3.179   2.398  0.2485 -1.1799 -0.5606
   31MOL   H10116361   6.260   3.366   2.359 -0.8175  0.1038  0.0654
   31MOL   H10216362   6.265   3.303   2.197  1.6653 -2.2445 -0.0817
   31MOL   H10316363   6.309   3.077   2.279 -1.7759  0.6098 -0.1049
   31MOL   H10416364   6.343   3.135   2.438  1.9054  2.1523 -0.1766
   31MOL   H10516365   6.681   3.070   2.213  1.9964 -0.7444 -1.2894
   31MOL   H10616366   6.771   3.059   2.360  1.6147 -0.5067 -0.8327
   31MOL   H10716367   6.842   3.127   2.216  0.3293  0.3552  0.7912
   31MOL   H10816368   6.889   3.394   2.358  1.2795 -0.3145  1.1222
   31MOL   H10916369   6.761   3.426   2.452  0.1603  0.1429 -0.8897
   31MOL   C11016370   7.482   3.078   1.988 -0.6640  0.0471  0.0518
   31MOL   C11116371   7.357   3.160   2.040  0.6689  0.2157 -0.2426
   31MOL   C11216372   7.244   3.064   2.088  0.5977  0.4760 -0.5048
   31MOL   C11316373   7.146   3.143   2.173  0.0212 -0.0741  0.1255
   31MOL   C11416374   7.197   3.166   2.324 -0.3516  0.1289 -0.0207
   31MOL   O11516375   7.093   3.237   2.400  0.0514 -0.4431 -0.0572
   31MOL   C11616376   7.002   3.169   2.472  0.5092  0.0682 -0.0891
   31MOL   O11716377   6.996   3.046   2.482  0.1660  0.2946 -0.1061
   31MOL   C11816378   6.887   3.261   2.525  0.0458  0.1195 -0.5172
   31MOL   C11916379   6.787   3.176   2.613  0.5066  0.2694 -0.2755
   31MOL   C12016380   6.954   3.371   2.621  0.0264 -0.2132 -0.2641
   31MOL   H12116381   7.453   2.998   1.921 -3.8659 -0.0824  1.4901
   31MOL   H12216382   7.561   3.142   1.947 -0.0538 -1.6767 -1.5071
   31MOL   H12316383   7.525   3.029   2.075 -0.1564 -0.2306 -0.3541
   31MOL   H12416384   7.394   3.223   2.121  0.2221 -0.2199  0.3017
   31MOL   H12516385   7.324   3.228   1.961  0.0691 -0.1842 -0.3393
   31MOL   H12616386   7.192   3.023   2.002  0.6464  0.0968 -0.3548
   31MOL   H12716387   7.274   2.981   2.153 -1.4685  1.2112  1.4445
   31MOL   H12816388   7.054   3.084   2.181 -0.6878  0.7878 -1.4997
   31MOL   H12916389   7.125   3.234   2.117  0.5920 -0.5909 -0.9368
   31MOL   H13016390   7.199   3.070   2.374  1.3652  0.0324 -0.2397
   31MOL   H13116391   7.288   3.225   2.334 -2.0190  2.3499  2.8076
   31MOL   H13216392   6.731   3.103   2.554 -3.6870  3.5810 -0.5903
   31MOL   H13316393   6.837   3.125   2.696 -1.1693 -1.6917 -0.4196
   31MOL   H13416394   6.709   3.233   2.662  1.0429 -0.5159  1.5195
   31MOL   H13516395   7.031   3.423   2.564  2.1073 -0.6973  2.0467
   31MOL   H13616396   6.877   3.448   2.624  1.1781  0.9019  1.6198
   31MOL   C13716397   7.643   2.917   2.513 -0.7818  0.0359 -0.1358
   31MOL   C13816398   7.518   3.014   2.529  0.3549  0.3954 -0.2047
   31MOL   C13916399   7.553   3.146   2.613  0.4583  0.5469  0.0634
   31MOL   C14016400   7.436   3.242   2.616 -0.5802  0.0838 -0.1427
   31MOL   C14116401   7.337   3.207   2.720 -0.1795  0.0908  0.5856
   31MOL   O14216402   7.228   3.288   2.713  0.3533 -0.2571  0.1269
   31MOL   C14316403   7.117   3.260   2.785 -0.1569  0.1544 -0.2294
   31MOL   O14416404   7.104   3.151   2.843 -0.1804 -0.0275 -0.3075
   31MOL   C14516405   7.007   3.364   2.771  0.0805 -0.2119  0.0637
   31MOL   C14616406   7.082   3.501   2.799  0.3053 -0.5323  0.2819
   31MOL   C14716407   6.884   3.347   2.865 -0.4407  0.2797  0.4705
   31MOL   H14816408   7.696   2.901   2.607  0.8217  1.6616 -0.7313
   31MOL   H14916409   7.705   2.962   2.436 -2.1363  2.6052  0.2200
   31MOL   H15016410   7.602   2.822   2.478 -1.6515 -0.3255  1.8124
   31MOL   H15116411   7.449   2.973   2.602  1.8250 -0.0701  0.9530
   31MOL   H15216412   7.464   3.030   2.436 -3.1786 -2.5326  1.2386
   31MOL   H15316413   7.595   3.133   2.713  2.1234  1.0914 -0.5358
   31MOL   H15416414   7.638   3.183   2.555  0.4435 -0.0760 -0.3590
   31MOL   H15516415   7.470   3.342   2.639  0.1355 -0.1423 -0.2010
   31MOL   H15616416   7.379   3.236   2.523  1.8380 -0.6399 -1.6164
   31MOL   H15716417   7.379   3.213   2.821  0.6510 -3.2884  0.4794
   31MOL   H15816418   7.298   3.106   2.707 -0.1241  0.2783 -1.1741
   31MOL   H15916419   7.020   3.591   2.807  1.2922  0.0175  1.8176
   31MOL   H16016420   7.138   3.515   2.707 -0.4515 -1.5006 -0.3428
   31MOL   H16116421   7.156   3.502   2.878  0.6780 -0.8004 -0.0625
   31MOL   H16216422   6.791   3.379   2.819 -1.0013 -1.4751  0.3709
   31MOL   H16316423   6.867   3.240   2.877  0.1743  0.3969  2.6253
   31MOL   C16416424   6.965   3.873   2.498  0.1792 -0.3848 -0.1582
   31MOL   C16516425   6.856   3.806   2.584  0.2490  0.2120  0.3401
   31MOL   C16616426   6.862   3.855   2.729  0.2041  0.2202  1.0986
   31MOL   C16716427   6.741   3.805   2.801 -0.2624  0.4133  0.2183
   31MOL   C16816428   6.764   3.752   2.947 -0.5982  0.8243  0.7878
   31MOL   O16916429   6.800   3.611   2.934  0.2922 -0.8784 -0.5351
   31MOL   C17016430   6.855   3.544   3.034 -1.1379  0.2350 -0.0730
   31MOL   O17116431   6.880   3.590   3.144  0.1536  0.4304  0.1260
   31MOL   C17216432   6.869   3.388   3.012 -0.0466  0.0811 -0.4272
   31MOL   C17316433   6.993   3.356   3.097 -0.2054 -0.0282  0.4511
   31MOL   C17416434   6.759   3.308   3.099 -1.1058  0.6197 -0.1887
   31MOL   H17516435   6.956   3.979   2.524 -2.9979 -0.7673  0.5509
   31MOL   H17616436   6.964   3.865   2.389 -0.3845  1.1652 -0.2811
   31MOL   H17716437   7.063   3.847   2.536  0.7320  0.7799 -0.7467
   31MOL   H17816438   6.864   3.698   2.590  0.9909  0.0906 -2.1268
   31MOL   H17916439   6.756   3.826   2.544  0.1734  0.2482  0.5460
   31MOL   H18016440   6.954   3.837   2.786  0.7350 -0.4040  0.0469
   31MOL   H18116441   6.860   3.964   2.721  2.0416  0.3037  1.4185
   31MOL   H18216442   6.680   3.737   2.742  2.6141  0.1587 -2.5871
   31MOL   H18316443   6.674   3.890   2.816 -1.7686 -0.8855  1.0392
   31MOL   H18416444   6.673   3.773   3.003 -1.6806  0.5791 -0.8535
   31MOL   H18516445   6.837   3.820   2.992 -0.4815  0.9034  0.4821
   31MOL   H18616446   7.075   3.425   3.079 -1.6239  1.6680  0.4147
   31MOL   H18716447   7.039   3.257   3.087  2.4180  1.1192  0.6647
   31MOL   H18816448   6.970   3.355   3.204  0.5548 -0.2687  0.6184
   31MOL   H18916449   6.787   3.203   3.097  0.2017  0.9628 -3.9136
   31MOL   H19016450   6.759   3.345   3.202 -1.1484  0.4684 -0.1339
   31MOL   C19116451   5.895   3.383   2.748  0.4102 -0.1881  0.8642
   31MOL   C19216452   6.044   3.410   2.722  0.4636  0.4646 -0.3926
   31MOL   C19316453   6.140   3.308   2.784  0.7988 -0.7235  0.5201
   31MOL   C19416454   6.283   3.314   2.722 -0.4496 -0.0439 -0.4730
   31MOL   C19516455   6.379   3.204   2.777 -0.2659  0.4559 -0.3222
   31MOL   O19616456   6.438   3.244   2.906 -0.2848 -0.3949 -0.3833
   31MOL   C19716457   6.564   3.219   2.942 -0.0607  0.2117 -0.3796
   31MOL   O19816458   6.638   3.140   2.892  0.3523  0.0981  0.2500
   31MOL   C19916459   6.601   3.301   3.069 -0.4028  0.1445 -0.0110
   31MOL   C20016460   6.551   3.449   3.053 -0.0103 -0.1759 -0.0745
   31MOL   C20116461   6.514   3.260   3.193  0.1071  0.4754 -0.1574
   31MOL   H20216462   5.861   3.295   2.694 -0.7285 -1.6189  3.7531
   31MOL   H20316463   5.866   3.369   2.853 -2.2189  0.2391  0.2188
   31MOL   H20416464   5.826   3.462   2.721  0.4789 -0.7417 -1.0050
   31MOL   H20516465   6.073   3.505   2.767  1.8110 -0.9824  1.8575
   31MOL   H20616466   6.061   3.429   2.616 -0.8531  1.7781 -0.3770
   31MOL   H20716467   6.102   3.207   2.768  0.3370 -0.0672 -2.7346
   31MOL   H20816468   6.140   3.320   2.893 -0.5283 -0.7192  0.5233
   31MOL   H20916469   6.266   3.301   2.616  0.7035 -0.3171 -0.6334
   31MOL   H21016470   6.327   3.413   2.734  0.5116 -0.4149 -0.8808
   31MOL   H21116471   6.317   3.116   2.796  0.2005  0.0791 -0.5329
   31MOL   H21216472   6.461   3.186   2.707 -1.3285  1.9318 -1.9673
   31MOL   H21316473   6.601   3.500   2.971 -0.4670  0.9562  0.3350
   31MOL   H21416474   6.565   3.511   3.142 -0.0919 -3.0874  2.0307
   31MOL   H21516475   6.443   3.461   3.047  0.0356  0.6865  0.6772
   31MOL   H21616476   6.408   3.289   3.194 -0.3111 -1.0381  0.5995
   31MOL   H21716477   6.540   3.324   3.278 -0.0478  2.2209 -1.4024
   31MOL   C21816478   6.854   3.283   3.842 -0.4654 -0.3963  0.3923
   31MOL   C21916479   6.878   3.328   3.699  0.6124 -0.3333 -0.1487
   31MOL   C22016480   6.858   3.214   3.600  0.4712  0.0992 -0.0853
   31MOL   C22116481   6.908   3.241   3.463  0.2524 -0.7619  0.2441
   31MOL   C22216482   6.865   3.124   3.368  0.0288  0.3696 -0.5159
   31MOL   O22316483   6.727   3.140   3.350 -0.1101 -0.6307 -0.6168
   31MOL   C22416484   6.655   3.065   3.272 -0.2996  0.1491 -0.2152
   31MOL   O22516485   6.706   2.962   3.222  0.0989  0.7724 -0.5558
   31MOL   C22616486   6.509   3.116   3.248  0.0052 -0.2736  0.0204
   31MOL   C22716487   6.437   3.020   3.152  0.5026  0.5276 -0.2645
   31MOL   C22816488   6.427   3.129   3.383 -0.0510  0.8344  0.1092
   31MOL   H22916489   6.753   3.242   3.848  0.2432 -2.2029 -0.0400
   31MOL   H23016490   6.923   3.210   3.883  0.4664  0.0490 -0.3456
   31MOL   H23116491   6.860   3.371   3.906 -0.1154 -0.0809 -0.0684
   31MOL   H23216492   6.981   3.362   3.698  0.8096 -0.9348 -0.1584
   31MOL   H23316493   6.823   3.412   3.657  1.6381 -0.2693 -1.3784
   31MOL   H23416494   6.754   3.182   3.601  0.4406  0.2072  0.4431
   31MOL   H23516495   6.915   3.126   3.628  2.3489  0.6838 -1.9062
   31MOL   H23616496   6.863   3.335   3.430 -1.9089 -2.0564 -0.6552
   31MOL   H23716497   7.016   3.250   3.471  0.1472  2.2850 -0.9574
   31MOL   H23816498   6.874   3.025   3.413  1.5283  0.6179 -0.2704
   31MOL   H23916499   6.916   3.128   3.272 -0.1747 -1.0074 -0.6983
   31MOL   H24016500   6.338   3.045   3.115 -1.1331 -1.2072  2.7537
   31MOL   H24116501   6.429   2.929   3.212 -2.2597  0.2766 -0.9639
   31MOL   H24216502   6.500   2.984   3.070  1.2468 -0.8730  0.8974
   31MOL   H24316503   6.356   3.211   3.378 -0.0978  0.8114  0.4172
   31MOL   H24416504   6.507   3.182   3.435  2.0305 -2.4397  0.3963
   31MOL   C24516505   6.996   2.741   3.976 -0.2170 -0.3103  0.2989
   31MOL   C24616506   6.890   2.840   3.926 -0.0514  0.3980 -0.2288
   31MOL   C24716507   6.847   2.818   3.778 -1.0681 -0.0718  0.0642
   31MOL   C24816508   6.722   2.896   3.736  0.3206 -0.8701  0.0834
   31MOL   C24916509   6.681   2.850   3.596  0.7282  0.3126 -0.6382
   31MOL   O25016510   6.581   2.942   3.560  0.3750  0.3335  0.3593
   31MOL   C25116511   6.471   2.902   3.481 -0.1162 -0.8055  0.1851
   31MOL   O25216512   6.455   2.789   3.427 -0.1840 -0.2912 -0.1437
   31MOL   C25316513   6.364   3.016   3.470 -0.4797  0.7281 -0.1930
   31MOL   C25416514   6.231   2.971   3.414 -0.3314  0.3885  0.5990
   31MOL   C25516515   6.339   3.073   3.616 -1.1626 -0.3279 -0.7533
   31MOL   H25616516   7.013   2.752   4.083  4.7193 -1.8993 -0.2357
   31MOL   H25716517   6.957   2.639   3.969  0.5907 -0.6205  0.2733
   31MOL   H25816518   7.091   2.745   3.924 -1.0375  0.9253 -1.1474
   31MOL   H25916519   6.800   2.816   3.983 -1.1840 -0.3452 -2.2852
   31MOL   H26016520   6.919   2.941   3.954 -1.4712  0.7277  0.0890
   31MOL   H26116521   6.836   2.711   3.762 -0.0338  0.1960 -2.5413
   31MOL   H26216522   6.924   2.865   3.718 -1.5063  1.3092  0.5472
   31MOL   H26316523   6.645   2.871   3.809 -0.6179 -0.1767 -0.6674
   31MOL   H26416524   6.742   3.003   3.742 -0.5376 -0.6736 -0.5290
   31MOL   H26516525   6.762   2.844   3.524  0.3155  3.2663 -1.4368
   31MOL   H26616526   6.638   2.751   3.612  0.8556  0.8278  3.5611
   31MOL   H26716527   6.159   3.052   3.422 -0.4287  0.4432 -0.7622
   31MOL   H26816528   6.227   2.936   3.311 -0.4525  0.8768  0.4369
   31MOL   H26916529   6.182   2.888   3.466 -1.9245  0.9300 -0.0015
   31MOL   H27016530   6.433   3.095   3.669 -1.7170 -0.5248  0.3307
   31MOL   H27116531   6.310   3.178   3.615 -1.2383 -0.3471 -0.6899
   31MOL   C27216532   5.922   2.544   3.321 -0.2626 -0.1173  0.1521
   31MOL   C27316533   5.873   2.684   3.357 -0.3759  0.3349  0.7246
   31MOL   C27416534   5.897   2.724   3.507  0.2702  0.4877  0.4767
   31MOL   C27516535   5.851   2.874   3.524 -0.7438 -0.5112 -0.0818
   31MOL   C27616536   5.880   2.935   3.661 -0.7341  0.3418  0.0023
   31MOL   O27716537   6.010   2.928   3.695  0.0773  0.4948 -0.1481
   31MOL   C27816538   6.100   3.028   3.688  1.0298 -0.1254 -0.3648
   31MOL   O27916539   6.071   3.139   3.644  0.2817  0.2017 -0.3313
   31MOL   C28016540   6.250   2.994   3.729 -0.6645 -0.1201 -0.4604
   31MOL   C28116541   6.286   2.844   3.736  0.8201  0.6731  0.5697
   31MOL   C28216542   6.291   3.069   3.866  0.1316  0.2896 -0.4600
   31MOL   H28316543   5.864   2.464   3.369 -2.0583  1.7709  1.2429
   31MOL   H28416544   5.897   2.516   3.219  1.0758 -0.0354 -0.1946
   31MOL   H28516545   6.030   2.535   3.333 -0.2856 -0.8549 -0.1584
   31MOL   H28616546   5.939   2.749   3.300  0.6201 -1.7530 -0.5585
   31MOL   H28716547   5.771   2.707   3.325 -0.7110 -2.2558 -0.1921
   31MOL   H28816548   5.834   2.663   3.572 -1.3855  2.5737  0.8889
   31MOL   H28916549   5.997   2.703   3.542  0.5455  1.9960  0.6356
   31MOL   H29016550   5.890   2.932   3.441 -0.4855 -2.9331 -1.7010
   31MOL   H29116551   5.746   2.882   3.498 -1.3106 -0.3266  2.1969
   31MOL   H29216552   5.813   2.892   3.737 -2.6846  1.0098 -1.2940
   31MOL   H29316553   5.849   3.039   3.658 -0.6822  0.4383  2.0469
   31MOL   H29416554   6.393   2.824   3.740  0.7865  0.4569  0.3559
   31MOL   H29516555   6.239   2.776   3.807 -0.7099 -1.1035 -2.1103
   31MOL   H29616556   6.252   2.799   3.643  1.1065  1.1652  0.2245
   31MOL   H29716557   6.396   3.048   3.883 -0.5246 -2.7500  0.1162
   31MOL   H29816558   6.279   3.174   3.838  0.1623  0.1796 -0.8972
   31MOL   C29916559   6.027   3.684   4.011 -0.3375 -0.1312  0.8726
   31MOL   C30016560   5.907   3.619   4.070 -0.0414  0.4092 -0.4355
   31MOL   C30116561   5.935   3.467   4.076  0.0303 -0.5412 -0.7711
   31MOL   C30216562   5.924   3.412   3.940  0.4524 -0.2253 -0.0106
   31MOL   C30316563   5.930   3.263   3.940  0.0185  0.2757  0.2472
   31MOL   O30416564   6.058   3.211   3.965  0.7057  0.1447 -0.6690
   31MOL   C30516565   6.075   3.088   3.997  0.3506  0.1893 -0.7726
   31MOL   O30616566   5.984   3.010   4.018  0.4673 -0.2086  0.1490
   31MOL   C30716567   6.222   3.044   4.002  0.5531 -1.0545  0.0445
   31MOL   C30816568   6.233   2.899   4.057  0.3328  0.2327 -0.3301
   31MOL   C30916569   6.304   3.143   4.095 -0.1015  0.6408  0.1398
   31MOL   H31016570   6.032   3.658   3.906 -1.6352 -1.2058  1.0649
   31MOL   H31116571   6.127   3.656   4.043  2.4570  3.1631 -4.2160
   31MOL   H31216572   6.018   3.793   4.015  0.4622 -0.1085  2.5507
   31MOL   H31316573   5.815   3.650   4.023 -1.4575 -1.8382  0.7373
   31MOL   H31416574   5.886   3.663   4.168 -0.4854  0.5710 -0.6034
   31MOL   H31516575   5.868   3.412   4.142  1.3787 -3.2295 -1.5803
   31MOL   H31616576   6.028   3.434   4.122  0.0909  0.2074 -0.3365
   31MOL   H31716577   6.008   3.443   3.877  0.3859 -0.2612 -0.1166
   31MOL   H31816578   5.834   3.448   3.892  1.6977  1.6911 -0.9536
   31MOL   H31916579   5.857   3.219   4.007  1.2804 -1.0436  0.7655
   31MOL   H32016580   5.895   3.230   3.842 -0.6611  0.4844  0.4154
   31MOL   H32116581   6.329   2.850   4.040  0.4041  0.0278  0.6596
   31MOL   H32216582   6.190   2.887   4.156 -1.3170 -0.0157 -1.0642
   31MOL   H32316583   6.153   2.857   3.996 -1.0991  1.2912  0.7948
   31MOL   H32416584   6.238   3.155   4.181 -0.3665  4.1525 -0.4498
   31MOL   H32516585   6.308   3.240   4.045  0.7523  1.9912  2.7353
   31MOL   C32616586   6.595   2.776   4.776  0.3271 -0.6774  0.1916
   31MOL   C32716587   6.585   2.913   4.704  0.1050  0.5290 -0.3741
   31MOL   C32816588   6.473   2.906   4.598  0.2151 -0.1932  0.8854
   31MOL   C32916589   6.497   2.819   4.471  0.2080  0.0213  0.4241
   31MOL   C33016590   6.390   2.821   4.364  0.3218  0.0185 -0.4835
   31MOL   O33116591   6.382   2.949   4.305  0.1474  0.0191 -0.1266
   31MOL   C33216592   6.472   2.984   4.215  0.1890  0.5048  0.1601
   31MOL   O33316593   6.555   2.908   4.164 -0.6036 -0.3559  0.4133
   31MOL   C33416594   6.454   3.125   4.150  0.5879  1.1706  0.0546
   31MOL   C33516595   6.561   3.155   4.041  0.0838  0.2657  0.1532
   31MOL   C33616596   6.459   3.235   4.270  0.1735  0.0607  0.2453
   31MOL   H33716597   6.504   2.739   4.822 -1.2806  2.5341 -0.2628
   31MOL   H33816598   6.670   2.788   4.854  0.7821 -0.3901 -0.2862
   31MOL   H33916599   6.621   2.697   4.705  1.1777 -0.6767  0.4985
   31MOL   H34016600   6.685   2.930   4.665  1.2028  0.1719  2.1516
   31MOL   H34116601   6.572   3.000   4.770  2.4555  0.9227 -0.3861
   31MOL   H34216602   6.457   3.013   4.583 -2.9881 -0.4341  2.0978
   31MOL   H34316603   6.376   2.891   4.646  0.2521 -1.7283  0.4876
   31MOL   H34416604   6.502   2.717   4.508 -0.1005  0.5077  1.8751
   31MOL   H34516605   6.593   2.845   4.427  0.1304 -1.3138 -0.5429
   31MOL   H34616606   6.297   2.783   4.407  0.7991  0.5543  1.0472
   31MOL   H34716607   6.416   2.749   4.287 -0.3291 -1.4455  0.6372
   31MOL   H34816608   6.576   3.076   3.968  0.0840  0.3435  0.0677
   31MOL   H34916609   6.660   3.167   4.085  0.5446 -1.6723 -0.3262
   31MOL   H35016610   6.552   3.254   3.995 -2.3029  0.1551  0.3157
   31MOL   H35116611   6.400   3.190   4.350 -0.5501  2.5151  1.1076
   31MOL   H35216612   6.408   3.326   4.240 -1.1186 -0.4110  0.9866
   31MOL   C35316613   6.262   3.464   3.738 -0.0400  0.2527  0.1195
   31MOL   C35416614   6.349   3.572   3.811 -0.1344  0.3372 -0.2879
   31MOL   C35516615   6.441   3.511   3.915 -0.1079 -0.7372 -0.6402
   31MOL   C35616616   6.521   3.620   3.986 -0.2057 -0.2257 -0.7897
   31MOL   C35716617   6.639   3.574   4.081 -0.3066 -0.4977  0.2501
   31MOL   O35816618   6.590   3.481   4.170 -0.3364 -0.5272 -0.5492
   31MOL   C35916619   6.669   3.388   4.230 -0.7675  0.0479 -0.4496
   31MOL   O36016620   6.792   3.378   4.211  0.3069  0.1270  0.1835
   31MOL   C36116621   6.594   3.298   4.331 -0.5355  0.4490  0.1630
   31MOL   C36216622   6.687   3.181   4.374  0.2630 -0.0810  0.3079
   31MOL   C36316623   6.544   3.373   4.458 -0.7229 -0.3526 -0.0891
   31MOL   H36416624   6.200   3.501   3.657  0.7248  3.6135  0.9984
   31MOL   H36516625   6.210   3.394   3.804 -0.7079  1.0660  0.4662
   31MOL   H36616626   6.342   3.410   3.688 -0.0328  0.3703  0.0061
   31MOL   H36716627   6.417   3.626   3.746 -0.3062  0.2913 -0.5075
   31MOL   H36816628   6.297   3.649   3.869 -0.5976  0.0430 -0.3063
   31MOL   H36916629   6.522   3.448   3.878 -0.0372  0.0639 -1.8516
   31MOL   H37016630   6.399   3.453   3.997 -1.0467  1.0680  0.1654
   31MOL   H37116631   6.444   3.673   4.042  0.6372  0.5556 -0.3588
   31MOL   H37216632   6.558   3.685   3.907 -2.4719  0.6951 -1.1351
   31MOL   H37316633   6.712   3.532   4.011 -2.4751 -2.0135 -1.1744
   31MOL   H37416634   6.693   3.652   4.134  0.1710 -1.3663  1.0620
   31MOL   H37516635   6.638   3.122   4.451  0.0040  0.4906  0.5812
   31MOL   H37616636   6.706   3.101   4.302  0.5404 -0.2833  0.6012
   31MOL   H37716637   6.787   3.212   4.406  1.6028 -2.8982 -1.0077
   31MOL   H37816638   6.457   3.429   4.422 -0.8223  0.3728  1.2291
   31MOL   H37916639   6.499   3.290   4.512 -1.2913  0.4151  0.6359
   31MOL   C38016640   7.383   3.524   4.294 -0.1586  0.4438 -0.6183
   31MOL   C38116641   7.301   3.392   4.304 -0.1903  0.8014  0.0788
   31MOL   C38216642   7.222   3.385   4.432  0.1057 -0.1908 -0.4372
   31MOL   C38316643   7.087   3.440   4.412 -0.0975 -0.3365  0.0513
   31MOL   C38416644   7.000   3.415   4.533 -0.0728  0.1478 -0.4616
   31MOL   O38516645   6.865   3.449   4.505 -0.1537  0.0526  0.4151
   31MOL   C38616646   6.768   3.407   4.584 -0.0156  0.4519 -0.6364
   31MOL   O38716647   6.774   3.331   4.679  0.5336 -1.1115 -0.2418
   31MOL   C38816648   6.631   3.463   4.550  0.2388  0.1062  0.1382
   31MOL   C38916649   6.652   3.593   4.470  0.2808  0.5429  0.1680
   31MOL   C39016650   6.554   3.482   4.686  0.2359  0.5496  0.0478
   31MOL   H39116651   7.433   3.543   4.389  1.8595 -2.6922 -0.9782
   31MOL   H39216652   7.474   3.519   4.234  1.2314  3.5758  1.0943
   31MOL   H39316653   7.320   3.610   4.273  0.1685  0.4382 -1.6501
   31MOL   H39416654   7.381   3.320   4.321  1.8595  2.8764 -0.5115
   31MOL   H39516655   7.246   3.350   4.219 -0.3795 -0.7681  0.9700
   31MOL   H39616656   7.204   3.280   4.455 -1.2759 -0.0676 -0.9144
   31MOL   H39716657   7.281   3.438   4.507  1.0328 -0.3995 -1.0145
   31MOL   H39816658   7.096   3.544   4.382 -1.6702  0.0766  0.9309
   31MOL   H39916659   7.042   3.387   4.327  1.0208  0.8027 -1.2754
   31MOL   H40016660   7.015   3.478   4.621  1.1148 -0.5108 -0.1722
   31MOL   H40116661   6.995   3.311   4.565 -0.7859 -0.1990 -1.6919
   31MOL   H40216662   6.558   3.625   4.424  1.3139  1.7292 -1.1672
   31MOL   H40316663   6.721   3.587   4.386  0.0703  0.4539  0.0024
   31MOL   H40416664   6.684   3.676   4.532  0.3818  2.5401 -2.4486
   31MOL   H40516665   6.613   3.557   4.738  0.8400  1.5844 -2.0705
   31MOL   H40616666   6.551   3.393   4.749 -1.5873 -1.0209 -2.1904
   31MOL   C40716667   6.817   4.119   4.413  0.2455 -0.0522 -0.3422
   31MOL   C40816668   6.735   4.163   4.533 -0.7201 -0.0700 -0.3167
   31MOL   C40916669   6.598   4.103   4.544 -0.3509  0.1511  0.2011
   31MOL   C41016670   6.602   3.958   4.597 -0.2288  0.1376  0.1255
   31MOL   C41116671   6.467   3.893   4.595  0.0149  0.4942 -0.5209
   31MOL   O41216672   6.470   3.760   4.648 -0.5987  0.6239 -0.6078
   31MOL   C41316673   6.380   3.665   4.612 -0.6392  0.3979  0.3125
   31MOL   O41416674   6.301   3.675   4.518  0.4503 -0.1745  0.4616
   31MOL   C41516675   6.401   3.535   4.703 -0.3549 -0.7461 -0.1819
   31MOL   C41616676   6.297   3.427   4.663 -0.0970 -1.0314 -0.5432
   31MOL   C41716677   6.390   3.579   4.854  0.6480 -0.2864  0.4721
   31MOL   H41816678   6.748   4.079   4.339 -1.5644  0.6259  0.9368
   31MOL   H41916679   6.870   4.204   4.371  0.3499 -1.3504 -2.8885
   31MOL   H42016680   6.885   4.036   4.437  0.5144  0.1697 -0.3318
   31MOL   H42116681   6.720   4.271   4.529  0.6308  0.1257 -0.5793
   31MOL   H42216682   6.783   4.141   4.628 -1.2217  0.3450  0.0350
   31MOL   H42316683   6.546   4.177   4.605  1.9526  1.7661  0.2816
   31MOL   H42416684   6.544   4.097   4.449  1.0448 -2.1116 -0.5059
   31MOL   H42516685   6.647   3.952   4.696 -1.4746  2.8760  0.8876
   31MOL   H42616686   6.667   3.898   4.533  0.6896  1.1170  0.1328
   31MOL   H42716687   6.397   3.957   4.650 -1.3135 -0.6381 -0.8884
   31MOL   H42816688   6.415   3.890   4.500 -1.5486  0.6337  0.3086
   31MOL   H42916689   6.195   3.444   4.698  0.6581 -0.9836  1.7250
   31MOL   H43016690   6.316   3.333   4.716  1.0123  0.8243  2.4710
   31MOL   H43116691   6.285   3.410   4.556 -1.0630  2.6820 -1.0943
   31MOL   H43216692   6.474   3.646   4.870 -0.2743  0.5169  2.0254
   31MOL   H43316693   6.424   3.489   4.904 -0.3168 -0.2989  1.1088
   31MOL   C43416694   5.483   3.318   4.912  0.2212 -0.0566  0.1785
   31MOL   C43516695   5.594   3.420   4.876  0.2232  0.4644 -0.5390
   31MOL   C43616696   5.725   3.384   4.924 -0.1335  0.0010 -0.0154
   31MOL   C43716697   5.828   3.496   4.944 -0.2087  0.1710 -0.0959
   31MOL   C43816698   5.947   3.443   5.028  0.4787  0.4918 -0.9510
   31MOL   O43916699   6.053   3.539   5.019 -0.0162 -0.6497  0.2786
   31MOL   C44016700   6.177   3.508   4.971 -0.0784  0.6291  0.6535
   31MOL   O44116701   6.215   3.391   4.945 -0.4062 -0.4769 -0.4068
   31MOL   C44216702   6.256   3.633   4.922 -0.1918 -0.6099 -0.0168
   31MOL   C44316703   6.159   3.708   4.826 -0.0901  0.2437  0.4687
   31MOL   C44416704   6.280   3.740   5.039 -0.0444 -0.3802 -1.0197
   31MOL   H44516705   5.513   3.221   4.871  1.6933 -1.1028  3.5512
   31MOL   H44616706   5.472   3.305   5.020  0.1978  2.2845  0.4771
   31MOL   H44716707   5.397   3.364   4.864 -0.3323 -1.2324  0.0122
   31MOL   H44816708   5.595   3.443   4.770  1.0796 -1.4761 -0.9725
   31MOL   H44916709   5.573   3.515   4.925 -2.6090 -0.5836  0.3828
   31MOL   H45016710   5.706   3.346   5.025  1.1921 -2.2911 -0.5820
   31MOL   H45116711   5.772   3.297   4.878  1.4324  1.1348 -0.6418
   31MOL   H45216712   5.779   3.578   4.996  1.0583  1.1424 -0.4351
   31MOL   H45316713   5.866   3.547   4.856 -2.0907  0.2875 -0.8733
   31MOL   H45416714   5.982   3.348   4.988 -0.3572 -0.5170  0.6598
   31MOL   H45516715   5.909   3.420   5.128 -0.8405 -0.1994 -1.5967
   31MOL   H45616716   6.060   3.731   4.864 -0.1573  0.7507 -0.0045
   31MOL   H45716717   6.191   3.805   4.787 -2.3389  0.6484 -0.4443
   31MOL   H45816718   6.133   3.655   4.734  1.6619  0.4209 -0.1486
   31MOL   H45916719   6.183   3.768   5.079  0.8551  0.7613  0.4144
   31MOL   H46016720   6.312   3.833   4.992  0.8933 -0.7369 -1.1035
   31MOL   C46116721   5.707   3.810   5.656 -0.2390 -0.1971 -0.9387
   31MOL   C46216722   5.850   3.762   5.661  0.7314 -0.1645  0.6881
   31MOL   C46316723   5.927   3.733   5.530 -1.0234 -0.2129 -0.6131
   31MOL   C46416724   6.076   3.690   5.555 -0.3477  0.2327 -0.6506
   31MOL   C46516725   6.130   3.592   5.442 -0.1252 -0.3228  0.7313
   31MOL   O46616726   6.181   3.665   5.334 -0.1018 -0.3177 -0.1443
   31MOL   C46716727   6.291   3.616   5.261 -0.2972 -0.3185 -0.3699
   31MOL   O46816728   6.316   3.497   5.261 -0.3210 -0.0505  0.4342
   31MOL   C46916729   6.360   3.717   5.176  0.4855  0.7539 -0.4157
   31MOL   C47016730   6.362   3.858   5.250 -0.3090 -0.4111  0.0123
   31MOL   C47116731   6.503   3.675   5.140  0.2449  0.1604 -0.1664
   31MOL   H47216732   5.654   3.731   5.603  1.3283 -2.0504  0.1843
   31MOL   H47316733   5.715   3.902   5.598  0.9386  1.6742  2.0780
   31MOL   H47416734   5.675   3.840   5.756  1.1343 -0.1999 -0.4856
   31MOL   H47516735   5.858   3.683   5.736  0.1851  0.3025  1.2400
   31MOL   H47616736   5.909   3.845   5.700  0.2045  0.1302  0.8549
   31MOL   H47716737   5.923   3.819   5.463  0.9451  0.4015  0.0277
   31MOL   H47816738   5.875   3.653   5.476 -0.9062 -0.7210  0.0220
   31MOL   H47916739   6.071   3.624   5.642 -1.8404 -1.1724 -1.7483
   31MOL   H48016740   6.150   3.768   5.573 -1.3747  0.9750  0.4441
   31MOL   H48116741   6.204   3.526   5.484 -1.2230 -2.4937 -0.6274
   31MOL   H48216742   6.058   3.517   5.407 -0.5395  1.2001 -1.8793
   31MOL   H48316743   6.266   3.901   5.277  0.8874  0.7126  2.6643
   31MOL   H48416744   6.408   3.935   5.189 -1.2273  0.0175 -0.1428
   31MOL   H48516745   6.423   3.852   5.341  0.7819  0.7028 -0.6299
   31MOL   H48616746   6.499   3.589   5.074 -2.3684  0.7220 -0.7823
   31MOL   H48716747   6.548   3.633   5.230 -0.8168  0.6183  0.5842
   31MOL   C48816748   6.990   3.692   5.861 -0.0728  0.3364 -0.6653
   31MOL   C48916749   6.928   3.640   5.731  0.3156 -0.0978 -0.4467
   31MOL   C49016750   6.923   3.748   5.625  0.0979 -0.0189 -0.2626
   31MOL   C49116751   6.864   3.708   5.491  0.3813 -0.5109 -0.2206
   31MOL   C49216752   6.814   3.826   5.413  0.0127 -0.0707 -0.2138
   31MOL   O49316753   6.744   3.770   5.308 -0.4823 -0.0316 -0.6118
   31MOL   C49416754   6.669   3.849   5.222  0.0284  0.2832 -0.3068
   31MOL   O49516755   6.643   3.965   5.245  0.5940  0.2326 -0.3326
   31MOL   C49616756   6.624   3.772   5.102 -0.8459  0.4480 -0.2531
   31MOL   C49716757   6.585   3.875   4.989 -0.8602 -0.2504  1.9765
   31MOL   C49816758   6.731   3.670   5.053 -0.7765  0.5384  0.0332
   31MOL   H49916759   6.911   3.751   5.907  0.4534  0.1503  0.4827
   31MOL   H50016760   7.007   3.605   5.924 -1.1217  0.1362 -0.6507
   31MOL   H50116761   7.079   3.753   5.843  0.0358 -0.1814 -1.9309
   31MOL   H50216762   6.822   3.619   5.750  0.2194  0.3002 -0.5494
   31MOL   H50316763   6.973   3.544   5.704 -0.2888 -1.0149  1.6986
   31MOL   H50416764   6.875   3.838   5.664 -2.1296 -1.3832  0.2610
   31MOL   H50516765   7.022   3.783   5.598 -1.0430  0.9853 -3.4590
   31MOL   H50616766   6.776   3.654   5.526  1.3516  0.2712  3.5917
   31MOL   H50716767   6.921   3.642   5.425  1.4833  1.7493 -1.5733
   31MOL   H50816768   6.748   3.883   5.478  0.4960 -1.1123  1.2256
   31MOL   H50916769   6.885   3.901   5.378  1.0136 -0.2001  1.4924
   31MOL   H51016770   6.679   3.921   4.960 -0.6608 -0.1942  2.6965
   31MOL   H51116771   6.531   3.961   5.029  1.0458  1.2065  1.4898
   31MOL   H51216772   6.536   3.827   4.905  0.7320  1.2770  0.1379
   31MOL   H51316773   6.671   3.621   4.977  1.4219  0.3861 -1.6629
   31MOL   H51416774   6.742   3.603   5.138 -1.2754  0.6180  0.1618
   31MOL   C51516775   7.361   3.918   4.330  0.2712 -0.3075  0.4405
   31MOL   C51616776   7.332   3.897   4.483 -0.2404 -0.0479 -0.2621
   31MOL   C51716777   7.188   3.864   4.498 -0.7660  0.0117  0.5187
   31MOL   C51816778   7.151   3.797   4.631 -0.1910 -0.4408  0.0455
   31MOL   C51916779   6.999   3.790   4.661 -0.0946 -0.2245  0.6939
   31MOL   O52016780   6.996   3.768   4.801 -0.2674  0.8999 -0.3868
   31MOL   C52116781   6.876   3.744   4.852  0.1245 -0.3514  0.3381
   31MOL   O52216782   6.775   3.748   4.787 -0.2036 -0.8997  0.7683
   31MOL   C52316783   6.878   3.700   5.000 -0.2363  0.4749  0.4649
   31MOL   C52416784   6.947   3.560   4.996  0.3196 -0.3625  0.0198
   31MOL   C52516785   6.967   3.797   5.087  0.2109  0.2185  0.3401
   31MOL   H52616786   7.458   3.966   4.320  0.4767 -1.1120 -1.7607
   31MOL   H52716787   7.349   3.825   4.275 -0.7605  0.8918 -1.4367
   31MOL   H52816788   7.283   3.973   4.276  1.5475  1.4485  0.3651
   31MOL   H52916789   7.399   3.819   4.520  1.3137  2.1270  1.6221
   31MOL   H53016790   7.355   3.989   4.536 -2.2440 -0.0465  0.6374
   31MOL   H53116791   7.124   3.952   4.493 -1.0181 -0.2598 -1.4256
   31MOL   H53216792   7.152   3.808   4.411 -0.5520 -0.9198  1.0278
   31MOL   H53316793   7.200   3.854   4.710  1.8423 -2.0438 -0.0259
   31MOL   H53416794   7.193   3.697   4.623  0.0411 -0.2225 -1.5720
   31MOL   H53516795   6.938   3.879   4.643 -2.4200 -1.8847  0.1641
   31MOL   H53616796   6.960   3.701   4.612  0.1100 -0.4890  1.0054
   31MOL   H53716797   6.952   3.519   5.097  0.0573  1.6998  0.8965
   31MOL   H53816798   7.045   3.565   4.947  0.0362 -0.1521 -0.5305
   31MOL   H53916799   6.897   3.489   4.931 -0.1158  0.6249 -0.7419
   31MOL   H54016800   7.068   3.817   5.052  0.5911  1.7266  2.2355
   31MOL   H54116801   6.987   3.756   5.186 -0.9056 -0.2672  0.3757
   31MOL   H54216802   6.912   3.889   5.105  0.1050  0.4292 -0.9855
   32MOL     C116803   6.241   2.040   7.796 -0.1677  0.5797 -0.3854
   32MOL     C216804   6.094   2.098   7.794 -0.0212  0.0605  0.3828
   32MOL     C316805   6.064   2.219   7.696  0.2297  0.4784 -0.0523
   32MOL     C416806   5.919   2.275   7.717 -0.2545 -0.5077  0.5170
   32MOL     C516807   5.889   2.406   7.636  0.3262  0.1252 -0.0162
   32MOL     O616808   5.752   2.440   7.660 -0.1395  0.4622 -0.5570
   32MOL     C716809   5.664   2.368   7.606 -0.2260 -0.3287 -0.4596
   32MOL     O816810   5.676   2.285   7.519  0.2737  0.1869 -0.3583
   32MOL     C916811   5.528   2.412   7.667 -0.8413  0.2555  0.8299
   32MOL    C1016812   5.453   2.289   7.695 -0.6124  0.4235  0.0653
   32MOL    C1116813   5.442   2.509   7.587 -0.5752  0.0445 -0.0551
   32MOL    H1216814   6.306   2.117   0.023 -0.7670  1.3927 -0.9497
   32MOL    H1316815   6.279   2.017   7.697 -1.0172  0.2847 -0.6490
   32MOL    H1416816   6.262   1.950   0.040  1.2337  1.3744  0.3540
   32MOL    H1516817   6.029   2.015   7.764  0.4274  0.4084 -1.6354
   32MOL    H1616818   6.065   2.125   0.082 -3.0331 -0.4721 -0.2599
   32MOL    H1716819   6.133   2.302   7.713 -1.3816  1.5973  1.1707
   32MOL    H1816820   6.084   2.177   7.597 -0.8708  0.0995 -0.1168
   32MOL    H1916821   5.902   2.296   0.009 -0.7481 -2.9163  0.9345
   32MOL    H2016822   5.850   2.193   7.700 -1.3687  0.8133 -1.6105
   32MOL    H2116823   5.958   2.487   7.660  0.5222 -0.3569  1.0983
   32MOL    H2216824   5.911   2.375   7.534 -2.5831  0.4320 -0.7828
   32MOL    H2316825   5.409   2.243   7.606 -0.7144  0.1350  0.2621
   32MOL    H2416826   5.373   2.292   7.768  0.8019  0.6814  1.6284
   32MOL    H2516827   5.516   2.206   7.729  0.1827 -0.3089 -3.0312
   32MOL    H2616828   5.356   2.526   7.652 -0.7443  0.5773 -0.4187
   32MOL    H2716829   5.407   2.452   7.502 -1.2256 -0.8087  0.7682
   32MOL    H2816830   5.548   2.471   7.757  0.8879  1.4814 -0.3228
   32MOL    C2916831   5.980   2.253   7.180 -0.1963  0.4453  0.2746
   32MOL    C3016832   5.926   2.364   7.098 -0.5461 -0.8396  0.7821
   32MOL    C3116833   5.783   2.365   7.048 -0.4508 -0.0741  0.3875
   32MOL    C3216834   5.678   2.371   7.159 -0.1019 -0.4945  0.2026
   32MOL    C3316835   5.665   2.512   7.209  0.1115  0.7902 -0.2471
   32MOL    O3416836   5.573   2.533   7.317 -0.3474 -0.1512  0.2555
   32MOL    C3516837   5.612   2.621   7.420  0.3637 -0.2573  0.1466
   32MOL    O3616838   5.721   2.682   7.417 -0.3307  0.0120  0.0926
   32MOL    C3716839   5.504   2.645   7.531  0.3470  0.1851 -0.9408
   32MOL    C3816840   5.563   2.730   7.647 -0.0659 -0.9074 -0.0885
   32MOL    C3916841   5.387   2.718   7.455  0.5003  0.2074  0.2860
   32MOL    H4016842   6.082   2.233   7.149  0.4941  2.3506  1.2268
   32MOL    H4116843   5.987   2.273   7.287 -0.7100  4.7203 -0.4294
   32MOL    H4216844   5.932   2.156   7.163  1.5503 -0.7400  1.8128
   32MOL    H4316845   5.995   2.371   7.013 -1.7434 -2.5196 -0.3652
   32MOL    H4416846   5.952   2.455   7.152  0.0667 -0.9034  0.5988
   32MOL    H4516847   5.780   2.269   6.996  0.1204 -0.0056  0.2193
   32MOL    H4616848   5.753   2.435   6.970  1.0888 -0.5873 -0.7003
   32MOL    H4716849   5.581   2.346   7.116 -0.4020  2.5289 -0.9683
   32MOL    H4816850   5.694   2.300   7.240 -0.8009  0.4091  1.1464
   32MOL    H4916851   5.641   2.586   7.133  2.4179  1.7082 -0.1312
   32MOL    H5016852   5.762   2.551   7.240  0.8838 -1.4120  0.2124
   32MOL    H5116853   5.485   2.780   7.705  0.9998  1.2737 -0.4819
   32MOL    H5216854   5.636   2.802   7.611 -0.8464  1.4704  2.8416
   32MOL    H5316855   5.610   2.660   7.716  1.4913  0.5859  0.4112
   32MOL    H5416856   5.312   2.728   7.534 -1.4771  0.9900 -1.6348
   32MOL    H5516857   5.333   2.652   7.387 -1.2283  2.0249 -0.1686
   32MOL    C5616858   5.166   3.389   0.093 -0.5408 -0.0869  0.2875
   32MOL    C5716859   5.132   3.302   7.780  0.2375 -1.3689  0.1623
   32MOL    C5816860   5.240   3.257   7.684  0.2292  0.1307 -0.4763
   32MOL    C5916861   5.348   3.161   7.746  0.0840 -0.3243 -0.3334
   32MOL    C6016862   5.457   3.108   7.652  0.7522 -0.4487 -0.0184
   32MOL    O6116863   5.387   3.021   7.561 -0.2324 -0.7269  0.6528
   32MOL    C6216864   5.460   2.970   7.464  0.0067  0.3507 -0.2274
   32MOL    O6316865   5.582   3.002   7.457 -0.3561  0.4429  0.6170
   32MOL    C6416866   5.392   2.858   7.374  0.4040 -0.4030 -0.1613
   32MOL    C6516867   5.238   2.898   7.357  0.9406  0.1755  0.0237
   32MOL    C6616868   5.465   2.832   7.230 -0.1083 -0.1996 -0.1375
   32MOL    H6716869   5.079   3.397   0.158 -0.5751 -3.0787  0.6827
   32MOL    H6816870   5.189   3.491   0.063  0.4915 -0.8079 -1.4000
   32MOL    H6916871   5.250   3.352   0.151 -0.1804  0.4984  0.1431
   32MOL    H7016872   5.099   3.209   0.014  0.4254 -0.9401  1.1342
   32MOL    H7116873   5.058   3.356   7.722  1.5613  0.6267  0.2946
   32MOL    H7216874   5.187   3.220   7.596  0.8635  0.7337 -1.1198
   32MOL    H7316875   5.285   3.351   7.654 -0.5409  1.0414  1.1566
   32MOL    H7416876   5.296   3.075   7.788 -2.5927  1.2246 -0.3369
   32MOL    H7516877   5.392   3.205   0.021 -0.1002 -0.0483 -0.3759
   32MOL    H7616878   5.491   3.192   7.592 -0.1227 -0.3471 -0.3840
   32MOL    H7716879   5.532   3.053   7.708  0.4940 -0.2638  0.5122
   32MOL    H7816880   5.234   3.001   7.322  0.7979  0.4394  0.7885
   32MOL    H7916881   5.177   2.880   7.446  0.5457 -1.1764 -0.5082
   32MOL    H8016882   5.198   2.835   7.278  2.7123 -0.5360 -0.3173
   32MOL    H8116883   5.431   2.730   7.210  0.3121 -0.4488  0.3942
   32MOL    H8216884   5.572   2.819   7.247 -0.4479 -2.3663  0.5481
   32MOL    C8316885   5.575   2.658   6.320 -0.6592 -0.4785  1.1706
   32MOL    C8416886   5.495   2.712   6.443 -0.2709 -0.2129 -0.4124
   32MOL    C8516887   5.528   2.657   6.578 -0.4242  0.4061  0.5664
   32MOL    C8616888   5.486   2.740   6.698 -0.2959  0.5539 -0.3103
   32MOL    C8716889   5.508   2.662   6.829  0.3906 -0.2649 -0.3670
   32MOL    O8816890   5.460   2.735   6.947 -0.3185  0.4890 -0.0767
   32MOL    C8916891   5.530   2.841   6.994  0.0533  1.0175  0.0378
   32MOL    O9016892   5.649   2.866   6.965  0.0237  0.2676  0.2299
   32MOL    C9116893   5.450   2.925   7.098 -0.2795 -0.8756  0.4044
   32MOL    C9216894   5.306   2.944   7.048 -0.3278  0.2683  0.5229
   32MOL    C9316895   5.521   3.067   7.120  0.3381 -0.5380 -0.2482
   32MOL    H9416896   5.572   2.550   6.311  0.0449 -0.3993 -0.1801
   32MOL    H9516897   5.528   2.702   6.231 -0.3564 -0.4868  1.0049
   32MOL    H9616898   5.678   2.691   6.307 -1.1958 -0.0781 -2.6696
   32MOL    H9716899   5.387   2.709   6.426 -0.4130 -1.7468  0.6712
   32MOL    H9816900   5.515   2.819   6.449  0.3257 -0.2929 -0.8665
   32MOL    H9916901   5.635   2.640   6.590 -0.4654  1.3322  2.4734
   32MOL   H10016902   5.492   2.554   6.590  2.6845 -0.6073  1.7854
   32MOL   H10116903   5.382   2.755   6.669  0.4528  1.4070 -2.7571
   32MOL   H10216904   5.536   2.837   6.702  1.1669 -0.1294 -1.5586
   32MOL   H10316905   5.612   2.637   6.846  1.3357  3.1628 -0.8128
   32MOL   H10416906   5.449   2.570   6.829  2.1712 -1.4900  2.1672
   32MOL   H10516907   5.238   2.861   7.064 -0.8067  0.4295 -0.6215
   32MOL   H10616908   5.311   2.965   6.941 -1.0438 -0.0682  0.4250
   32MOL   H10716909   5.257   3.031   7.093  1.4035  0.1442  2.7839
   32MOL   H10816910   5.483   3.101   7.216 -0.5618 -0.4965 -0.6109
   32MOL   H10916911   5.622   3.046   7.156  0.2555  0.3059  0.4871
   32MOL   C11016912   6.221   3.136   6.778 -0.0922 -0.6861  0.3234
   32MOL   C11116913   6.151   3.259   6.836  0.1809 -0.4771 -0.1564
   32MOL   C11216914   6.038   3.221   6.940  0.0873  0.8525  0.2319
   32MOL   C11316915   5.967   3.331   7.005  0.2531 -0.2366 -0.3648
   32MOL   C11416916   5.890   3.273   7.119  0.6353  0.2782 -0.5820
   32MOL   O11516917   5.768   3.215   7.070 -0.1851 -0.6691 -0.3005
   32MOL   C11616918   5.648   3.280   7.076 -0.3443 -0.3803  0.1120
   32MOL   O11716919   5.631   3.394   7.129 -0.1622  0.2170  0.6633
   32MOL   C11816920   5.530   3.192   7.022  0.7208 -0.0004  1.1146
   32MOL   C11916921   5.393   3.270   7.047  0.4707 -0.6326  0.1889
   32MOL   C12016922   5.556   3.151   6.868 -0.1499  0.0006 -0.4147
   32MOL   H12116923   6.257   3.081   6.865  2.8991 -0.9591 -1.0096
   32MOL   H12216924   6.161   3.075   6.711 -0.4342  1.4273 -1.3488
   32MOL   H12316925   6.298   3.176   6.712 -0.8822  0.5940  0.1665
   32MOL   H12416926   6.233   3.318   6.876  0.7496 -0.6125 -1.1189
   32MOL   H12516927   6.106   3.306   6.748  0.4113  1.8154  0.9137
   32MOL   H12616928   5.967   3.152   6.894  0.3182 -1.0471  2.6232
   32MOL   H12716929   6.088   3.157   7.013  0.6516 -0.3757 -1.2190
   32MOL   H12816930   5.899   3.393   6.946  0.3161 -1.1039 -1.3644
   32MOL   H12916931   6.040   3.394   7.055  1.0621 -3.9724  3.4558
   32MOL   H13016932   5.948   3.193   7.166  0.0446 -2.1295 -3.7787
   32MOL   H13116933   5.869   3.348   7.195  0.2510  0.4693 -0.8740
   32MOL   H13216934   5.404   3.375   7.020  1.9906 -0.5260  1.1600
   32MOL   H13316935   5.296   3.234   7.015 -0.2551  1.0082  0.4647
   32MOL   H13416936   5.383   3.278   7.156 -0.0589 -1.5424  0.2046
   32MOL   H13516937   5.657   3.111   6.855  0.2338  1.2525 -1.4672
   32MOL   H13616938   5.493   3.065   6.846  0.2155 -0.9045  1.9182
   32MOL   C13716939   5.057   2.750   6.756  0.4385  0.1852  0.2044
   32MOL   C13816940   4.975   2.854   6.682 -0.0600 -0.0146  0.6784
   32MOL   C13916941   5.057   2.986   6.652  0.2385 -0.0069 -0.2084
   32MOL   C14016942   5.077   3.086   6.776  0.4246  0.5187  0.1878
   32MOL   C14116943   5.153   3.209   6.732  0.6694 -0.2303  1.1197
   32MOL   O14216944   5.297   3.184   6.726 -0.0982 -0.1592  0.4296
   32MOL   C14316945   5.389   3.290   6.733  0.0805 -0.8590 -0.6819
   32MOL   O14416946   5.351   3.406   6.724  0.1345  0.2927  0.4764
   32MOL   C14516947   5.539   3.254   6.753 -0.6194 -0.0038  0.1704
   32MOL   C14616948   5.628   3.378   6.778  0.3407  0.3863 -0.5100
   32MOL   C14716949   5.589   3.182   6.623  0.3806 -0.0054 -0.4675
   32MOL   H14816950   5.157   2.733   6.716  0.2360  0.3288 -0.3586
   32MOL   H14916951   5.009   2.653   6.767  1.9527 -0.7200 -0.9907
   32MOL   H15016952   5.071   2.790   6.857  2.0214 -2.1643  0.9719
   32MOL   H15116953   4.876   2.876   6.724  0.7566  1.9223  1.6646
   32MOL   H15216954   4.959   2.810   6.584 -0.1667 -1.7585  1.4544
   32MOL   H15316955   5.156   2.967   6.611  1.4529  6.0725 -0.5379
   32MOL   H15416956   5.009   3.038   6.569 -0.0198 -0.9452 -0.6667
   32MOL   H15516957   4.980   3.099   6.824  0.4501 -0.9330  0.6409
   32MOL   H15616958   5.136   3.039   6.854 -0.5224  0.8002  1.0896
   32MOL   H15716959   5.133   3.292   6.799  0.2814  1.8259 -1.4372
   32MOL   H15816960   5.125   3.242   6.631 -1.1020  1.4891  2.1387
   32MOL   H15916961   5.589   3.416   6.873  0.4683 -3.3272  1.1077
   32MOL   H16016962   5.612   3.461   6.709  1.9360  2.0655  1.0996
   32MOL   H16116963   5.731   3.345   6.790 -0.5970 -2.7315 -0.8356
   32MOL   H16216964   5.691   3.159   6.651 -0.6724 -0.1997  3.4235
   32MOL   H16316965   5.534   3.088   6.626  0.3348  0.0988  2.6638
   32MOL   C16416966   6.212   3.778   6.622 -0.0901 -0.0897  0.3050
   32MOL   C16516967   6.133   3.651   6.619 -0.4762  0.3648 -0.0011
   32MOL   C16616968   5.983   3.677   6.638 -0.0319 -0.1414 -0.6361
   32MOL   C16716969   5.906   3.539   6.633  0.1554  0.0337 -0.3684
   32MOL   C16816970   5.890   3.462   6.503  0.0987 -0.5299 -0.7819
   32MOL   O16916971   5.808   3.350   6.510  0.4550  0.0991  0.8726
   32MOL   C17016972   5.683   3.368   6.466  0.6781  0.2426  0.4262
   32MOL   O17116973   5.633   3.473   6.411 -0.1636  0.8549  0.1683
   32MOL   C17216974   5.596   3.240   6.471  0.7815  0.6665  0.2505
   32MOL   C17316975   5.449   3.273   6.414  0.1167  0.4958  0.9891
   32MOL   C17416976   5.667   3.126   6.386 -0.4803 -0.0052 -0.6678
   32MOL   H17516977   6.321   3.774   6.610 -0.0426  1.2168  0.2171
   32MOL   H17616978   6.203   3.825   6.720 -0.5323  0.4587  0.0044
   32MOL   H17716979   6.183   3.851   6.547 -0.3968 -1.5034 -0.9706
   32MOL   H17816980   6.175   3.589   6.699  0.0504 -0.7681 -1.1222
   32MOL   H17916981   6.145   3.612   6.518 -1.7283 -0.5482  0.1860
   32MOL   H18016982   5.958   3.742   6.722 -1.6002 -1.0242 -0.4084
   32MOL   H18116983   5.954   3.735   6.550 -1.9588 -0.2548 -0.0934
   32MOL   H18216984   5.817   3.584   6.678  0.6459 -0.3203  0.9695
   32MOL   H18316985   5.920   3.468   6.715 -1.2855  2.2400  1.8521
   32MOL   H18416986   5.980   3.435   6.448  0.6797  0.6501 -0.4169
   32MOL   H18516987   5.854   3.536   6.432  1.3478  0.8541  0.0049
   32MOL   H18616988   5.453   3.321   6.316  0.1935  0.3624  0.9275
   32MOL   H18716989   5.418   3.355   6.479 -0.1591 -0.0445  1.5373
   32MOL   H18816990   5.386   3.184   6.413  0.4700  0.2189 -1.8476
   32MOL   H18916991   5.767   3.118   6.430 -0.4916  3.3108  0.0598
   32MOL   H19016992   5.611   3.038   6.417  1.4935 -0.5063  1.6366
   32MOL   C19116993   4.828   2.946   6.215 -0.1759  0.0149  0.1813
   32MOL   C19216994   4.962   2.955   6.290 -0.1495  0.5637 -0.2162
   32MOL   C19316995   5.075   2.973   6.190  0.1917  0.2397  0.6784
   32MOL   C19416996   5.212   2.985   6.258  0.1303 -0.4258  0.0782
   32MOL   C19516997   5.320   3.013   6.151  0.6432  0.4695 -0.8523
   32MOL   O19616998   5.444   3.038   6.225 -0.2593  0.4669 -0.3383
   32MOL   C19716999   5.534   3.126   6.170  0.8642  0.0502 -1.2351
   32MOL   O19817000   5.509   3.207   6.083 -0.3794  0.1400  0.2886
   32MOL   C19917001   5.676   3.117   6.234 -0.9169  0.1185  0.5161
   32MOL   C20017002   5.740   2.976   6.196  0.5786  0.0723  0.2190
   32MOL   C20117003   5.776   3.238   6.190 -0.0728 -0.1655  0.0692
   32MOL   H20217004   4.846   2.876   6.134 -0.0917  1.2896 -0.8959
   32MOL   H20317005   4.752   2.897   6.277 -0.6049 -0.3615 -0.6318
   32MOL   H20417006   4.803   3.042   6.171  0.3194 -0.4845 -1.1836
   32MOL   H20517007   4.971   2.866   6.354 -0.3068 -0.1832 -1.2198
   32MOL   H20617008   4.951   3.035   6.363 -1.9060  0.2620 -0.1182
   32MOL   H20717009   5.068   3.062   6.127 -0.6449 -0.1931  0.1695
   32MOL   H20817010   5.078   2.891   6.119  1.6102 -0.1607  1.1711
   32MOL   H20917011   5.200   3.060   6.335 -2.0398 -0.5358 -0.1108
   32MOL   H21017012   5.233   2.888   6.304 -0.8595 -0.9236 -0.4792
   32MOL   H21117013   5.318   2.936   6.073  0.0654 -0.4700  0.0704
   32MOL   H21217014   5.286   3.102   6.099 -0.4304  1.1163  0.9051
   32MOL   H21317015   5.820   2.960   6.268 -0.2586  0.2814  1.2135
   32MOL   H21417016   5.760   2.966   6.089 -0.7752 -0.6176  0.0157
   32MOL   H21517017   5.667   2.897   6.217  0.7683 -0.3404 -0.6436
   32MOL   H21617018   5.833   3.249   6.283 -1.3644 -0.0238  0.8535
   32MOL   H21717019   5.739   3.339   6.177  2.9795  1.1353  1.0432
   32MOL   C21817020   6.513   3.413   6.485  0.1161 -0.0776 -0.1939
   32MOL   C21917021   6.382   3.457   6.411 -0.1361  0.2831 -0.4070
   32MOL   C22017022   6.317   3.347   6.320 -0.8469  0.1916  0.8313
   32MOL   C22117023   6.275   3.221   6.401  0.2635 -0.2669  0.3121
   32MOL   C22217024   6.187   3.135   6.308 -1.1908  0.1178 -0.7671
   32MOL   O22317025   6.069   3.200   6.260  0.7060  0.6550  0.0190
   32MOL   C22417026   6.005   3.130   6.165  0.2081  0.7606 -0.3606
   32MOL   O22517027   6.041   3.019   6.122 -0.2582 -0.0511 -0.2573
   32MOL   C22617028   5.897   3.221   6.095 -0.0364 -0.5727  0.6808
   32MOL   C22717029   5.958   3.363   6.080  0.3911  0.1579  0.1186
   32MOL   C22817030   5.852   3.172   5.949 -0.0774 -0.4101  0.0776
   32MOL   H22917031   6.493   3.349   6.571  0.9921  1.3554  1.1164
   32MOL   H23017032   6.583   3.359   6.422 -1.7441 -2.9491  0.1220
   32MOL   H23117033   6.552   3.498   6.541  0.8861  0.0209 -0.8727
   32MOL   H23217034   6.405   3.551   6.361 -1.0435  0.8278  0.1831
   32MOL   H23317035   6.314   3.488   6.490  0.2963 -2.7112  1.1946
   32MOL   H23417036   6.386   3.306   6.245 -1.2195  0.7079  0.2064
   32MOL   H23517037   6.238   3.388   6.257  0.2590 -0.9135 -1.3336
   32MOL   H23617038   6.361   3.174   6.448 -0.3523 -1.9777 -0.2603
   32MOL   H23717039   6.213   3.257   6.482 -1.5937 -0.6656 -0.9069
   32MOL   H23817040   6.158   3.043   6.359  2.3729  0.5540  2.2337
   32MOL   H23917041   6.231   3.093   6.217 -1.7366 -0.3857 -0.8028
   32MOL   H24017042   6.039   3.369   6.008  0.0774 -0.6766 -0.3162
   32MOL   H24117043   5.997   3.404   6.173  0.4326 -0.1917  0.2579
   32MOL   H24217044   5.891   3.442   6.047 -0.5772 -0.3941  0.7455
   32MOL   H24317045   5.744   3.156   5.951 -0.1572  0.2317  1.9380
   32MOL   H24417046   5.903   3.075   5.943 -0.5485 -0.6052 -0.9124
   32MOL   C24517047   6.642   2.863   5.737 -0.3863  0.0709 -0.2939
   32MOL   C24617048   6.508   2.882   5.804 -0.4933  0.3906 -0.2601
   32MOL   C24717049   6.450   3.019   5.779 -0.6768  0.0882 -0.9728
   32MOL   C24817050   6.303   3.027   5.830 -0.1801  0.0872 -0.5445
   32MOL   C24917051   6.231   3.151   5.764 -0.5559 -0.1304 -0.3416
   32MOL   O25017052   6.089   3.144   5.783  0.1533  0.2229  0.1461
   32MOL   C25117053   6.025   3.260   5.777 -0.1459 -0.3417 -0.1233
   32MOL   O25217054   6.071   3.370   5.739 -0.5640  0.1164  0.3809
   32MOL   C25317055   5.869   3.242   5.805 -0.2040 -0.5313  0.6790
   32MOL   C25417056   5.803   3.383   5.790 -0.0078  0.2043  0.4647
   32MOL   C25517057   5.819   3.141   5.687  0.0677  0.1649 -0.7002
   32MOL   H25617058   6.715   2.937   5.770 -1.7546 -0.3525  4.0128
   32MOL   H25717059   6.692   2.771   5.766  0.8293  0.9392  0.3700
   32MOL   H25817060   6.621   2.861   5.630 -0.0773 -3.1203 -0.3309
   32MOL   H25917061   6.435   2.815   5.759 -0.0983 -0.1009 -0.1688
   32MOL   H26017062   6.519   2.858   5.910  1.3480 -0.9455 -0.7510
   32MOL   H26117063   6.453   3.052   5.675  0.7547  1.5900 -0.4700
   32MOL   H26217064   6.516   3.093   5.824 -2.1731  0.2168  1.0942
   32MOL   H26317065   6.249   2.935   5.806  2.8093 -2.6509  2.7191
   32MOL   H26417066   6.294   3.031   5.939 -0.2273 -0.2680 -0.5340
   32MOL   H26517067   6.275   3.241   5.805 -0.2321 -0.7264  0.6271
   32MOL   H26617068   6.268   3.157   5.662  1.3592 -0.6220  0.2991
   32MOL   H26717069   5.800   3.411   5.685 -0.8487  3.1353  1.2176
   32MOL   H26817070   5.700   3.397   5.821  0.0515  1.7831  0.0051
   32MOL   H26917071   5.868   3.458   5.836  1.3852 -0.2546 -0.6972
   32MOL   H27017072   5.821   3.203   5.598  1.3274  1.5511  0.2833
   32MOL   H27117073   5.897   3.074   5.651 -1.4631 -0.0258 -3.7978
   32MOL   C27217074   6.163   2.595   5.562 -0.3157 -0.3970 -0.0666
   32MOL   C27317075   6.159   2.670   5.689  0.2964 -0.1384  0.3144
   32MOL   C27417076   6.011   2.696   5.715  0.8669  0.1385 -0.3136
   32MOL   C27517077   5.968   2.741   5.861 -0.1476 -0.1472  1.3960
   32MOL   C27617078   5.820   2.777   5.861 -0.3855  0.2538  0.2738
   32MOL   O27717079   5.801   2.895   5.792  0.5727 -0.0164 -0.4429
   32MOL   C27817080   5.679   2.953   5.790 -0.2465 -0.0891  0.0972
   32MOL   O27917081   5.575   2.926   5.855  0.3124  0.7576  0.4019
   32MOL   C28017082   5.679   3.065   5.687  1.0019  0.1104 -0.3859
   32MOL   C28117083   5.566   3.170   5.719 -0.4634 -0.2092  0.8490
   32MOL   C28217084   5.662   3.000   5.545  0.0232  0.1772  0.5881
   32MOL   H28317085   6.120   2.495   5.566 -0.6393 -0.3972 -2.7994
   32MOL   H28417086   6.113   2.642   5.478  0.3349 -0.4889 -0.5074
   32MOL   H28517087   6.263   2.572   5.526 -1.0470 -1.0367 -1.6849
   32MOL   H28617088   6.208   2.630   5.778 -2.6729  0.7840  2.4606
   32MOL   H28717089   6.208   2.767   5.680  1.2964 -0.6478  0.2065
   32MOL   H28817090   5.981   2.782   5.655  0.6862  0.3889  0.1304
   32MOL   H28917091   5.945   2.614   5.687  0.2916 -1.0188  3.9901
   32MOL   H29017092   5.986   2.670   5.942  2.4371 -2.9087 -1.4677
   32MOL   H29117093   6.028   2.828   5.889  0.6628 -0.9701  2.2903
   32MOL   H29217094   5.781   2.770   5.962 -0.7239 -0.8662  0.0787
   32MOL   H29317095   5.749   2.711   5.811 -0.4709  2.2831 -2.4537
   32MOL   H29417096   5.571   3.265   5.667 -3.1131  0.9538  2.5984
   32MOL   H29517097   5.465   3.135   5.697 -1.2792  0.5907  3.1609
   32MOL   H29617098   5.558   3.202   5.823 -0.9811 -0.8649  1.0162
   32MOL   H29717099   5.673   3.078   5.470 -0.0924 -0.9147 -0.5746
   32MOL   H29817100   5.756   2.950   5.522 -1.0461 -1.2458 -0.7823
   32MOL   C29917101   4.951   2.958   5.209  0.4284  0.6606 -0.4505
   32MOL   C30017102   5.089   2.892   5.231  0.3845 -0.1654  0.0501
   32MOL   C30117103   5.216   2.974   5.185  0.1276 -1.1392  0.4003
   32MOL   C30217104   5.231   3.112   5.248 -0.8583  0.2091 -0.6191
   32MOL   C30317105   5.268   3.107   5.398  0.4469 -0.0858 -0.5156
   32MOL   O30417106   5.395   3.059   5.411 -0.6311  0.8189 -0.2259
   32MOL   C30517107   5.423   2.956   5.500 -0.0826 -0.3660 -0.3874
   32MOL   O30617108   5.338   2.910   5.580  0.2611  0.1636  0.0038
   32MOL   C30717109   5.562   2.895   5.488  0.3023  0.0214  0.4781
   32MOL   C30817110   5.598   2.892   5.335 -0.2576  0.3703  0.5270
   32MOL   C30917111   5.583   2.753   5.559  0.1124 -0.0561  0.5355
   32MOL   H31017112   4.889   2.869   5.197 -0.1216  0.9216  0.3812
   32MOL   H31117113   4.936   3.012   5.116  0.2703 -1.2610 -1.5718
   32MOL   H31217114   4.926   3.009   5.302  1.0075 -0.8376  0.5412
   32MOL   H31317115   5.099   2.795   5.184 -0.7278  0.4356 -1.4529
   32MOL   H31417116   5.103   2.868   5.337 -1.7597 -1.0281  0.1544
   32MOL   H31517117   5.205   2.980   5.076  0.2212 -1.0314  0.3978
   32MOL   H31617118   5.306   2.919   5.211 -0.1835 -1.0430  1.7295
   32MOL   H31717119   5.141   3.173   5.241 -0.4174  1.1564  1.6105
   32MOL   H31817120   5.299   3.175   5.191 -1.8016  1.2304 -0.6353
   32MOL   H31917121   5.266   3.210   5.432  0.7208 -1.0081  2.3710
   32MOL   H32017122   5.190   3.040   5.435 -1.0188 -0.3149 -3.7757
   32MOL   H32117123   5.595   2.994   5.297  2.0171 -0.8124 -2.9812
   32MOL   H32217124   5.697   2.848   5.324 -0.1159  0.5455  1.0703
   32MOL   H32317125   5.532   2.829   5.275  0.5492  1.5706 -1.6612
   32MOL   H32417126   5.549   2.751   5.663 -3.7223  0.9631 -0.6159
   32MOL   H32517127   5.689   2.750   5.585  0.7925 -4.2318 -2.1465
   32MOL   C32617128   5.888   2.092   5.194 -0.3620 -0.3669 -0.6308
   32MOL   C32717129   5.835   2.210   5.111 -0.7216  0.3102 -0.4966
   32MOL   C32817130   5.783   2.331   5.185 -0.3574  0.0260 -0.7178
   32MOL   C32917131   5.894   2.411   5.256 -0.6760  0.3106 -0.0416
   32MOL   C33017132   5.861   2.559   5.301 -0.1973  0.1728  0.8530
   32MOL   O33117133   5.768   2.567   5.408 -0.0720  0.8978  0.2339
   32MOL   C33217134   5.638   2.586   5.372  0.3005 -0.0240  0.2414
   32MOL   O33317135   5.597   2.581   5.256  0.3972 -0.2588 -0.6628
   32MOL   C33417136   5.545   2.612   5.495  0.9840  0.6190 -0.3527
   32MOL   C33517137   5.579   2.504   5.606  0.9298  0.6642  0.1603
   32MOL   C33617138   5.393   2.613   5.463 -0.6000 -0.6240  0.0396
   32MOL   H33717139   5.921   2.015   5.124 -2.6341 -0.4245 -1.6896
   32MOL   H33817140   5.817   2.047   5.263 -1.1379  1.1893 -0.3938
   32MOL   H33917141   5.980   2.120   5.245 -0.0692 -0.0217 -1.3359
   32MOL   H34017142   5.750   2.167   5.058  0.0437 -3.2936  0.9843
   32MOL   H34117143   5.911   2.242   5.040 -0.7352  1.0439 -0.1828
   32MOL   H34217144   5.728   2.283   5.267 -0.1013 -0.0572 -0.5931
   32MOL   H34317145   5.718   2.385   5.117 -0.0813  1.2051 -0.0595
   32MOL   H34417146   5.985   2.411   5.194  0.0356  0.7554  0.9875
   32MOL   H34517147   5.932   2.353   5.340  1.2693  1.5763  0.0071
   32MOL   H34617148   5.829   2.619   5.216  2.6215  2.4462  1.3380
   32MOL   H34717149   5.955   2.605   5.331  1.1433 -0.6569 -1.9042
   32MOL   H34817150   5.679   2.494   5.649  1.5956  0.9416 -1.2844
   32MOL   H34917151   5.561   2.400   5.577 -0.0609  0.4597  1.4802
   32MOL   H35017152   5.502   2.525   5.680  0.3430 -0.0977 -0.2226
   32MOL   H35117153   5.376   2.687   5.385  1.2666  0.2959  0.4654
   32MOL   H35217154   5.351   2.663   5.550  0.0998  0.3419 -0.1653
   32MOL   C35317155   5.001   2.604   6.070  0.9621  0.5203 -0.2918
   32MOL   C35417156   5.022   2.671   5.935  0.2907  0.1134  0.0344
   32MOL   C35517157   5.169   2.663   5.886  0.2866 -0.1674 -0.2384
   32MOL   C35617158   5.242   2.524   5.887 -0.1352 -0.0755  0.0340
   32MOL   C35717159   5.188   2.427   5.783 -0.1678  0.3886 -0.2061
   32MOL   O35817160   5.212   2.484   5.658  0.0772  0.5439 -0.0874
   32MOL   C35917161   5.282   2.420   5.563 -0.6632 -0.0425 -0.7420
   32MOL   O36017162   5.331   2.311   5.591  0.3470  0.2009  0.2345
   32MOL   C36117163   5.298   2.499   5.436  0.1912  0.2123 -0.3184
   32MOL   C36217164   5.348   2.405   5.323 -0.2502 -0.3501  0.2057
   32MOL   C36317165   5.158   2.556   5.385 -0.0955 -0.5983  0.3445
   32MOL   H36417166   5.060   2.654   6.147  3.1795 -1.2478 -0.7944
   32MOL   H36517167   5.021   2.498   6.081 -1.2334  0.0992 -0.1197
   32MOL   H36617168   4.895   2.608   6.097  0.9406  1.8843 -0.5009
   32MOL   H36717169   4.965   2.625   5.854 -2.6663  2.2887  0.7796
   32MOL   H36817170   5.014   2.779   5.947  2.5647  0.0770  2.3569
   32MOL   H36917171   5.219   2.735   5.950 -0.9613  0.5736 -0.0818
   32MOL   H37017172   5.179   2.714   5.790  0.5329  1.0239  0.4171
   32MOL   H37117173   5.228   2.480   5.986  0.8169 -0.3019  0.0815
   32MOL   H37217174   5.348   2.551   5.882 -0.1480 -0.2015 -1.0460
   32MOL   H37317175   5.224   2.325   5.799 -0.4931  0.4602  1.0873
   32MOL   H37417176   5.079   2.426   5.792 -0.0726 -1.4012  1.1029
   32MOL   H37517177   5.334   2.469   5.235 -0.7349 -0.1642  0.4154
   32MOL   H37617178   5.455   2.384   5.327 -0.0381  0.5113 -0.6066
   32MOL   H37717179   5.285   2.319   5.300  1.2771 -0.8240 -2.4055
   32MOL   H37817180   5.135   2.629   5.463  1.6810 -0.1239  0.4576
   32MOL   H37917181   5.184   2.622   5.302 -0.0277  1.3027  1.8412
   32MOL   C38017182   5.000   2.981   4.774  0.0931  0.1141  0.6054
   32MOL   C38117183   5.065   2.841   4.756 -0.4183 -0.5955  0.1232
   32MOL   C38217184   5.050   2.748   4.879 -0.2899  0.7371  0.4834
   32MOL   C38317185   5.157   2.633   4.879 -0.3994  0.4099  0.6155
   32MOL   C38417186   5.113   2.507   4.962  0.1779  0.2159  0.2813
   32MOL   O38517187   5.082   2.540   5.100  0.0383  0.2762 -0.0069
   32MOL   C38617188   5.054   2.432   5.183  0.7736 -0.1155  0.3250
   32MOL   O38717189   5.037   2.312   5.147 -0.1113 -0.5491 -0.1120
   32MOL   C38817190   5.034   2.470   5.336 -0.2424  0.7961  0.0061
   32MOL   C38917191   5.012   2.333   5.410 -0.4116  0.2027  0.2711
   32MOL   C39017192   4.905   2.567   5.337  0.0748 -0.5175  0.1600
   32MOL   H39117193   5.061   3.039   4.843 -0.7565 -0.1361  1.5746
   32MOL   H39217194   4.981   3.029   4.678  0.7334  0.9489  0.8823
   32MOL   H39317195   4.896   2.962   4.799 -0.5860 -1.0675 -2.8677
   32MOL   H39417196   5.172   2.853   4.740 -0.4415  0.0251  0.4231
   32MOL   H39517197   5.017   2.805   4.665 -0.4758  0.3909 -0.2388
   32MOL   H39617198   5.057   2.803   4.973  3.5360  0.2827  0.5251
   32MOL   H39717199   4.953   2.699   4.887  0.3662 -0.3027  2.0159
   32MOL   H39817200   5.157   2.605   4.773  0.1519 -0.4391  0.8342
   32MOL   H39917201   5.257   2.660   4.911  0.8180  0.1881 -2.8175
   32MOL   H40017202   5.189   2.430   4.953 -0.7695 -0.6016 -0.8023
   32MOL   H40117203   5.024   2.467   4.914  0.6820 -1.9139  1.0697
   32MOL   H40217204   4.940   2.270   5.360 -0.7060 -1.1488  2.3331
   32MOL   H40317205   4.987   2.345   5.516 -1.2343  1.1628 -0.0271
   32MOL   H40417206   5.098   2.265   5.410 -1.5517 -1.2802 -2.4825
   32MOL   H40517207   4.847   2.540   5.249 -1.6645  2.7940  0.2125
   32MOL   H40617208   4.937   2.667   5.309  0.7320 -0.9191 -0.5476
   32MOL   C40717209   4.623   1.981   4.943  0.5311  0.5335  0.7282
   32MOL   C40817210   4.667   2.100   5.021 -0.4433  0.7565  0.0057
   32MOL   C40917211   4.574   2.140   5.139  0.1820  0.5045 -0.0373
   32MOL   C41017212   4.649   2.253   5.219 -0.4142 -0.1085 -0.0532
   32MOL   C41117213   4.558   2.339   5.311 -0.3324  0.7537 -0.1668
   32MOL   O41217214   4.636   2.456   5.340  0.4749 -0.1781  0.3009
   32MOL   C41317215   4.714   2.461   5.451 -0.2215 -0.6458  0.1537
   32MOL   O41417216   4.708   2.380   5.544 -0.4255 -0.8977  0.1107
   32MOL   C41517217   4.804   2.586   5.457  0.1395  0.0743  0.2144
   32MOL   C41617218   4.889   2.592   5.587  0.4314  0.0062  1.1449
   32MOL   C41717219   4.719   2.715   5.431 -0.3507 -0.2611 -0.3150
   32MOL   H41817220   4.610   1.899   5.015  1.9837  0.9788  1.5201
   32MOL   H41917221   4.528   1.990   4.891 -0.2872  0.4632  2.1732
   32MOL   H42017222   4.702   1.948   4.875 -1.1424  0.4876 -1.2354
   32MOL   H42117223   4.655   2.176   4.943 -1.4872  1.0259  0.4155
   32MOL   H42217224   4.773   2.097   5.045 -0.5466 -0.4004  0.3320
   32MOL   H42317225   4.476   2.167   5.100  0.2224 -0.4147 -0.8015
   32MOL   H42417226   4.540   2.063   5.208 -0.9496  0.8161 -0.2299
   32MOL   H42517227   4.711   2.313   5.152 -2.2110  1.9216  0.0248
   32MOL   H42617228   4.720   2.200   5.282 -0.1526  0.5214  0.1902
   32MOL   H42717229   4.470   2.375   5.258 -1.2174 -0.0719  0.7272
   32MOL   H42817230   4.520   2.278   5.393  0.6254  2.3312  1.4617
   32MOL   H42917231   4.825   2.579   5.674 -2.4445 -1.2965 -1.1126
   32MOL   H43017232   4.930   2.692   5.600  2.8419 -0.6591 -0.8525
   32MOL   H43117233   4.970   2.519   5.599  1.8942  1.3037 -0.4907
   32MOL   H43217234   4.673   2.702   5.333 -0.6369  0.5559 -0.2941
   32MOL   H43317235   4.789   2.798   5.421  0.3659 -0.8510 -0.2606
   32MOL   C43417236   4.210   2.675   6.073  0.0196 -0.1127 -0.4024
   32MOL   C43517237   4.352   2.638   6.068  0.7163  0.3963 -0.0021
   32MOL   C43617238   4.436   2.725   5.973  0.5465  0.3766 -0.4814
   32MOL   C43717239   4.587   2.728   6.005  0.2627 -0.2461 -0.2197
   32MOL   C43817240   4.660   2.819   5.907  0.5303  0.0251  0.3126
   32MOL   O43917241   4.605   2.795   5.774 -0.4392  0.3593  0.2557
   32MOL   C44017242   4.677   2.822   5.665 -0.0354 -0.5593 -0.0843
   32MOL   O44117243   4.785   2.886   5.663 -0.5131 -0.9979 -0.0930
   32MOL   C44217244   4.613   2.766   5.531  0.0902 -0.3122 -0.0429
   32MOL   C44317245   4.503   2.653   5.560  0.1910  0.0957  0.1128
   32MOL   C44417246   4.543   2.882   5.448 -0.1469  0.1414  0.5466
   32MOL   H44517247   4.183   2.779   6.090  0.6156  0.3872 -2.3251
   32MOL   H44617248   4.151   2.629   5.993  2.0989 -2.7692 -0.4940
   32MOL   H44717249   4.171   2.630   6.164  0.4320 -1.2080 -0.7545
   32MOL   H44817250   4.399   2.633   6.166  2.0864  1.0430 -0.6185
   32MOL   H44917251   4.358   2.534   6.035  1.1272 -1.4001  5.2271
   32MOL   H45017252   4.414   2.696   5.870  0.5675  3.0143 -1.2754
   32MOL   H45117253   4.415   2.832   5.977 -1.2483  0.0641 -1.0898
   32MOL   H45217254   4.625   2.631   5.973  2.5339 -0.0980  1.8687
   32MOL   H45317255   4.609   2.751   6.109  1.0393 -2.8861  0.2277
   32MOL   H45417256   4.766   2.797   5.914  0.0369 -1.7147  2.8415
   32MOL   H45517257   4.659   2.926   5.925 -1.4761 -0.0120  0.4868
   32MOL   H45617258   4.411   2.704   5.591  0.1386  0.5561 -0.7949
   32MOL   H45717259   4.485   2.606   5.463  0.8629  0.1013 -0.0165
   32MOL   H45817260   4.532   2.573   5.628 -2.6357  0.3823  1.7608
   32MOL   H45917261   4.480   2.828   5.378  0.1819 -1.3316  1.3663
   32MOL   H46017262   4.607   2.937   5.380 -0.6322  1.5566  1.2062
   32MOL   C46117263   5.076   3.016   5.800  0.6071  0.4300 -0.2030
   32MOL   C46217264   5.080   3.144   5.717 -0.8585  0.0067 -0.7193
   32MOL   C46317265   4.982   3.147   5.607  0.0512 -0.3379  0.3666
   32MOL   C46417266   4.848   3.209   5.658  0.7670  0.0385 -0.4063
   32MOL   C46517267   4.740   3.236   5.556 -0.3968 -0.1537 -0.5356
   32MOL   O46617268   4.648   3.137   5.508  0.4650  0.6211 -0.2448
   32MOL   C46717269   4.540   3.103   5.581 -0.4571 -0.0578  0.3010
   32MOL   O46817270   4.514   3.142   5.695  0.6362  0.3471  0.4138
   32MOL   C46917271   4.449   2.998   5.515  0.1413  0.3151  0.7200
   32MOL   C47017272   4.352   2.945   5.617  0.0157 -0.3224  0.2671
   32MOL   C47117273   4.379   3.065   5.390  0.5130 -0.4989  0.3303
   32MOL   H47217274   5.066   2.943   5.720 -0.2275 -1.8125  1.8922
   32MOL   H47317275   4.984   3.010   5.859 -0.1842 -0.8423 -1.5345
   32MOL   H47417276   5.166   2.978   5.848 -0.0360  0.7196  1.2608
   32MOL   H47517277   5.178   3.135   5.670 -1.2710 -1.6580 -1.2951
   32MOL   H47617278   5.074   3.233   5.779  0.4828 -0.3259 -0.0835
   32MOL   H47717279   4.964   3.047   5.568  1.7889 -0.1852 -0.8758
   32MOL   H47817280   5.028   3.203   5.525 -0.5293 -0.3009  0.0620
   32MOL   H47917281   4.866   3.301   5.714  2.2691  0.0156 -0.8123
   32MOL   H48017282   4.805   3.151   5.740  0.4906  0.4013 -0.2943
   32MOL   H48117283   4.675   3.313   5.596  2.0513  0.7214  1.8892
   32MOL   H48217284   4.786   3.280   5.467  0.9177  1.8353  1.1084
   32MOL   H48317285   4.285   2.870   5.575 -0.0376  0.2307 -0.6493
   32MOL   H48417286   4.283   3.021   5.654 -0.0581 -0.1813 -0.1663
   32MOL   H48517287   4.402   2.889   5.697 -0.5393  0.3556  1.1027
   32MOL   H48617288   4.347   2.989   5.319  1.6375 -0.3824 -0.3080
   32MOL   H48717289   4.460   3.102   5.328  0.9976 -0.5278  0.9390
   32MOL   C48817290   4.627   3.840   5.351  0.5843  0.2826  0.0091
   32MOL   C48917291   4.556   3.735   5.270 -0.2932 -0.3420 -0.4833
   32MOL   C49017292   4.466   3.651   5.354  0.3688  0.0983  0.6660
   32MOL   C49117293   4.544   3.546   5.439  0.1354 -0.7712  0.5698
   32MOL   C49217294   4.434   3.457   5.515  0.7321 -0.1187 -0.2982
   32MOL   O49317295   4.373   3.361   5.433  0.0670 -0.7848  0.6461
   32MOL   C49417296   4.279   3.278   5.479 -0.7811 -0.2353 -0.4071
   32MOL   O49517297   4.208   3.286   5.585  0.0403 -0.2693 -0.1142
   32MOL   C49617298   4.257   3.159   5.382  0.5715 -0.1802 -0.2811
   32MOL   C49717299   4.113   3.091   5.424 -0.4711  0.3102  0.1808
   32MOL   C49817300   4.251   3.218   5.234  0.5142  0.7347 -0.0383
   32MOL   H49917301   4.558   3.918   5.383  0.5373  1.1100 -2.0373
   32MOL   H50017302   4.678   3.798   5.437 -1.6174 -1.3548  0.5779
   32MOL   H50117303   4.708   3.884   5.293  1.2576 -0.0088  0.7208
   32MOL   H50217304   4.632   3.664   5.238 -1.0247 -0.9396 -0.9181
   32MOL   H50317305   4.515   3.772   5.176  0.1693 -1.0624 -0.9792
   32MOL   H50417306   4.399   3.704   5.421 -0.4706  3.1434 -2.4533
   32MOL   H50517307   4.403   3.585   5.295  0.7965  0.2867 -0.0032
   32MOL   H50617308   4.609   3.595   5.511 -2.4390  0.5605  2.0669
   32MOL   H50717309   4.613   3.485   5.381 -0.4358 -0.1899 -0.7518
   32MOL   H50817310   4.466   3.413   5.610 -0.0083 -0.5647 -0.2516
   32MOL   H50917311   4.348   3.515   5.550  0.8808  0.2889 -0.5989
   32MOL   H51017312   4.026   3.156   5.424  0.4941  1.6253  0.5989
   32MOL   H51117313   4.105   3.042   5.521 -1.2634  0.2709  0.0981
   32MOL   H51217314   4.087   3.016   5.349 -0.0089 -1.4777  1.7790
   32MOL   H51317315   4.260   3.125   5.178  0.1406  0.8896 -0.3589
   32MOL   H51417316   4.348   3.262   5.211  0.7411 -0.6669 -1.8091
   32MOL   C51517317   3.963   2.687   4.843  0.3123  0.1278  0.2639
   32MOL   C51617318   4.084   2.769   4.886  0.4255 -0.2411 -0.4090
   32MOL   C51717319   4.062   2.916   4.835  0.1351  0.7466  0.8116
   32MOL   C51817320   3.942   2.991   4.889  0.6076  0.1437 -0.2227
   32MOL   C51917321   3.931   3.025   5.040 -1.1128  0.2032 -0.0588
   32MOL   O52017322   4.032   3.118   5.070  0.4283 -0.3602  0.3627
   32MOL   C52117323   4.006   3.221   5.145  0.3693 -0.6792 -0.3523
   32MOL   O52217324   3.892   3.255   5.191 -0.2327  0.1338 -0.3073
   32MOL   C52317325   4.136   3.305   5.178 -0.3187  0.2250  0.1026
   32MOL   C52417326   4.180   3.351   5.033 -0.2915  0.3279  0.2657
   32MOL   C52517327   4.100   3.434   5.261  0.3717 -0.7813 -0.2152
   32MOL   H52617328   3.955   2.704   4.736 -3.8383  0.1916  0.5107
   32MOL   H52717329   3.980   2.580   4.852  0.0701 -0.1604 -2.3314
   32MOL   H52817330   3.868   2.702   4.893 -0.0857  1.9545 -1.0033
   32MOL   H52917331   4.087   2.761   4.995 -0.6455 -1.0736 -0.4293
   32MOL   H53017332   4.177   2.728   4.847  0.1605 -1.2724  0.0211
   32MOL   H53117333   4.151   2.970   4.867  0.3541  0.2506  1.0361
   32MOL   H53217334   4.084   2.928   4.729 -3.3687 -2.4175 -0.4084
   32MOL   H53317335   3.852   2.935   4.866 -0.1333  0.0936  2.5408
   32MOL   H53417336   3.931   3.083   4.831 -1.0689  0.0349 -0.1010
   32MOL   H53517337   3.830   3.058   5.063 -0.1787  4.1834 -1.3006
   32MOL   H53617338   3.947   2.932   5.095 -1.3891  0.4170  0.3855
   32MOL   H53717339   4.110   3.412   4.975  2.2511  2.0458 -1.1164
   32MOL   H53817340   4.199   3.272   4.961  1.6647  1.9102 -1.0241
   32MOL   H53917341   4.271   3.411   5.042  0.5860 -1.1106  1.0618
   32MOL   H54017342   4.184   3.500   5.285 -0.9479  1.5619 -1.7563
   32MOL   H54117343   4.062   3.403   5.358  0.7959 -0.1569  0.1612
   32MOL   H54217344   4.019   3.496   5.223  0.3496 -1.1970 -0.8390
   33MOL     C117345   5.025   6.790   0.674  0.1245 -0.2147  0.1882
   33MOL     C217346   5.116   6.896   0.728 -0.4622  0.6000 -0.2348
   33MOL     C317347   5.214   6.848   0.835 -0.3883  0.2821 -0.0316
   33MOL     C417348   5.313   6.954   0.872 -0.4788 -0.2419 -0.3428
   33MOL     C517349   5.420   6.927   0.972  0.0042 -0.4586  0.1493
   33MOL     O617350   5.507   6.819   0.919 -0.6711  0.1858 -0.5624
   33MOL     C717351   5.636   6.828   0.951  0.0288  0.2075  0.2516
   33MOL     O817352   5.689   6.910   1.028  0.2213  0.5190  0.2091
   33MOL     C917353   5.719   6.715   0.888 -0.4133 -0.2866  0.5014
   33MOL    C1017354   5.704   6.718   0.737 -0.2923  0.0338 -0.4254
   33MOL    C1117355   5.657   6.576   0.942  0.6298 -0.7151  0.3547
   33MOL    H1217356   4.976   6.747   0.761 -0.8678 -0.7610 -0.6380
   33MOL    H1317357   5.080   6.713   0.620 -2.4290 -1.3570 -0.8569
   33MOL    H1417358   4.953   6.832   0.604 -0.8706  0.2506  1.4849
   33MOL    H1517359   5.159   6.948   0.642 -2.5152  0.4857 -1.3667
   33MOL    H1617360   5.052   6.972   0.772 -0.3150  0.1575  0.7438
   33MOL    H1717361   5.168   6.812   0.927  0.7576 -0.6771  0.1904
   33MOL    H1817362   5.273   6.760   0.808  2.6259  1.8688  1.1978
   33MOL    H1917363   5.266   7.042   0.916 -0.1354  0.5220 -1.4588
   33MOL    H2017364   5.345   6.992   0.775 -1.9171  1.2384 -0.2545
   33MOL    H2117365   5.469   7.020   1.001 -1.2688  0.0954  0.5280
   33MOL    H2217366   5.367   6.890   1.060  0.7634 -0.1658  0.7374
   33MOL    H2317367   5.759   6.641   0.683 -0.7506  0.0568 -0.9381
   33MOL    H2417368   5.740   6.812   0.695 -0.4676  1.7636  3.1816
   33MOL    H2517369   5.599   6.703   0.710 -0.3407  2.0176 -1.4773
   33MOL    H2617370   5.609   6.519   0.863 -0.5755  0.0588  0.5038
   33MOL    H2717371   5.569   6.606   1.000  0.6341  2.9415 -1.3680
   33MOL    H2817372   5.824   6.725   0.914 -0.5627 -0.3913  1.1464
   33MOL    C2917373   6.477   6.499   1.103  0.1238  0.0842 -0.0196
   33MOL    C3017374   6.360   6.567   1.179 -0.3142  0.0611 -0.4988
   33MOL    C3117375   6.224   6.496   1.188 -0.7377 -0.3827 -0.1478
   33MOL    C3217376   6.113   6.559   1.266 -0.1581 -0.1516 -0.0863
   33MOL    C3317377   5.989   6.471   1.298 -0.1623 -0.5470  0.4175
   33MOL    O3417378   5.909   6.432   1.193  1.2947  0.2828  0.1229
   33MOL    C3517379   5.824   6.522   1.134  0.3985 -0.5857 -0.5548
   33MOL    O3617380   5.813   6.636   1.176  0.2143  0.2962  0.5575
   33MOL    C3717381   5.742   6.468   1.020 -0.5606  0.3774  1.0844
   33MOL    C3817382   5.843   6.412   0.922 -0.7295 -0.4534 -0.3178
   33MOL    C3917383   5.655   6.348   1.078  0.4214  0.3655  0.1453
   33MOL    H4017384   6.515   6.407   1.148  1.4582  0.9740  0.7082
   33MOL    H4117385   6.446   6.464   1.005 -0.8773  1.7314 -0.3109
   33MOL    H4217386   6.548   6.581   1.098  0.2968 -0.0164  0.7090
   33MOL    H4317387   6.334   6.660   1.128  0.0261 -0.7106 -2.1276
   33MOL    H4417388   6.386   6.587   1.283 -1.5379 -0.1402 -0.1410
   33MOL    H4517389   6.235   6.396   1.229 -0.5030 -0.6072 -0.7620
   33MOL    H4617390   6.186   6.482   1.087 -1.9627 -0.2128  0.2812
   33MOL    H4717391   6.147   6.596   1.363 -0.8712  0.8685 -0.2139
   33MOL    H4817392   6.083   6.646   1.208  0.1054  0.2407  0.3623
   33MOL    H4917393   5.919   6.516   1.368 -2.9293 -0.6630 -2.1401
   33MOL    H5017394   6.028   6.385   1.351  2.8661 -0.0385 -0.8810
   33MOL    H5117395   5.933   6.474   0.929 -0.3711 -0.8613 -1.2796
   33MOL    H5217396   5.819   6.420   0.816 -0.1372  1.1174 -0.3531
   33MOL    H5317397   5.874   6.313   0.956 -0.1773  0.3790  1.6884
   33MOL    H5417398   5.726   6.285   1.132 -0.7033 -1.2311 -0.2108
   33MOL    H5517399   5.617   6.278   1.004 -1.1738  2.6790 -1.2771
   33MOL    C5617400   4.717   6.666   1.150 -0.1505  0.2561  0.0028
   33MOL    C5717401   4.844   6.636   1.222 -0.5321 -0.0015  0.0805
   33MOL    C5817402   4.947   6.580   1.126 -0.4983  0.1164 -0.1092
   33MOL    C5917403   5.080   6.549   1.194 -0.4854 -0.2389 -0.0751
   33MOL    C6017404   5.181   6.491   1.098 -0.6308 -0.0695  0.2760
   33MOL    O6117405   5.312   6.484   1.148 -0.1257  0.3624 -0.2434
   33MOL    C6217406   5.415   6.417   1.087  0.9983  0.3499  0.1478
   33MOL    O6317407   5.413   6.390   0.966 -0.2923 -0.3786 -0.1727
   33MOL    C6417408   5.531   6.376   1.176  0.1592  0.4803  0.0584
   33MOL    C6517409   5.562   6.497   1.266  0.2645  0.1084 -0.1073
   33MOL    C6617410   5.502   6.252   1.280 -0.0853  0.3331 -0.4596
   33MOL    H6717411   4.636   6.705   1.212  1.4798  3.3942  0.2297
   33MOL    H6817412   4.680   6.584   1.087 -1.8427  0.5364  0.6053
   33MOL    H6917413   4.737   6.740   1.073 -1.1208  0.1029 -0.4103
   33MOL    H7017414   4.881   6.725   1.271 -0.3971  0.3267 -0.6094
   33MOL    H7117415   4.828   6.565   1.303 -1.3992  0.2026  0.0917
   33MOL    H7217416   4.904   6.492   1.076  0.7300  0.3603 -1.6431
   33MOL    H7317417   4.975   6.652   1.050 -1.4888  1.2217  0.5613
   33MOL    H7417418   5.063   6.477   1.274  0.6745 -0.8330 -0.3584
   33MOL    H7517419   5.118   6.636   1.247 -0.8199  0.6833 -1.3198
   33MOL    H7617420   5.140   6.403   1.048 -1.5548  0.1123  0.7105
   33MOL    H7717421   5.184   6.568   1.021 -0.3762 -1.7814 -1.4794
   33MOL    H7817422   5.654   6.481   1.322  1.4042  2.0260 -1.3684
   33MOL    H7917423   5.478   6.523   1.331 -1.2263  0.3728 -2.0907
   33MOL    H8017424   5.566   6.596   1.220 -4.1346  0.3866 -0.1291
   33MOL    H8117425   5.454   6.289   1.371 -0.6837 -1.0407 -0.2069
   33MOL    H8217426   5.602   6.223   1.312 -0.0855 -0.6464 -1.3125
   33MOL    C8317427   5.247   5.832   0.772  0.5209  0.1546 -0.0530
   33MOL    C8417428   5.205   5.951   0.859  0.6532  0.1056 -0.2949
   33MOL    C8517429   5.091   5.914   0.953  0.2102 -0.2955  0.1390
   33MOL    C8617430   5.029   6.037   1.024 -0.6016  0.7641 -0.0575
   33MOL    C8717431   5.065   6.047   1.174 -0.0839 -0.3063  0.0002
   33MOL    O8817432   5.208   6.049   1.181  1.1219  0.0882 -0.0555
   33MOL    C8917433   5.274   6.142   1.248  0.0631 -0.5978  0.2390
   33MOL    O9017434   5.220   6.246   1.289  0.3503  0.4757  0.5944
   33MOL    C9117435   5.431   6.117   1.253  0.2635  0.0649  0.7271
   33MOL    C9217436   5.473   6.063   1.109 -0.2164 -0.3786  0.1690
   33MOL    C9317437   5.482   6.011   1.357 -0.1907 -0.0743  0.5961
   33MOL    H9417438   5.169   5.792   0.707  1.7400 -1.5243 -0.5073
   33MOL    H9517439   5.340   5.844   0.717  0.5664  0.3000  0.0558
   33MOL    H9617440   5.259   5.744   0.836  0.1718 -0.9626 -1.4885
   33MOL    H9717441   5.165   6.024   0.789  2.3621 -0.8069 -2.2910
   33MOL    H9817442   5.290   5.990   0.915 -0.1434  0.0731  0.9461
   33MOL    H9917443   5.132   5.855   1.035 -1.3658  0.8430  1.7998
   33MOL   H10017444   5.013   5.857   0.903 -0.7144  1.2577 -0.2147
   33MOL   H10117445   4.923   6.017   1.008 -0.0793 -2.3604  0.0424
   33MOL   H10217446   5.060   6.132   0.980 -0.5066  0.7652  0.0109
   33MOL   H10317447   5.028   5.960   1.228  0.8480 -0.6094  0.1465
   33MOL   H10417448   5.022   6.134   1.225  1.3145  0.7418 -0.5752
   33MOL   H10517449   5.582   6.067   1.098 -0.1698 -0.3968  0.6153
   33MOL   H10617450   5.429   6.126   1.031 -2.7680 -1.0283  1.0342
   33MOL   H10717451   5.452   5.958   1.089 -2.3002 -0.4599  2.6346
   33MOL   H10817452   5.430   5.923   1.319  0.1172  0.0021 -0.0057
   33MOL   H10917453   5.588   6.004   1.334  0.0483  2.8909  0.6540
   33MOL   C11017454   5.239   6.602   1.658  0.6925 -0.0800 -0.7450
   33MOL   C11117455   5.386   6.586   1.696 -0.4687  0.1075 -0.5145
   33MOL   C11217456   5.471   6.498   1.603 -0.3681 -0.3596  0.1318
   33MOL   C11317457   5.595   6.449   1.682  0.4124  0.0771 -0.4250
   33MOL   C11417458   5.674   6.339   1.625 -0.0890 -0.2854 -0.1209
   33MOL   O11517459   5.575   6.245   1.572 -0.2335 -0.4695  0.2991
   33MOL   C11617460   5.591   6.112   1.576  0.0746  1.5070 -0.0244
   33MOL   O11717461   5.696   6.063   1.615 -0.3496  0.2315  0.0566
   33MOL   C11817462   5.474   6.024   1.516  0.2754  0.1544  0.2098
   33MOL   C11917463   5.499   5.876   1.554  0.1556  0.5212  0.0657
   33MOL   C12017464   5.333   6.073   1.565  0.3372 -0.2806  0.0097
   33MOL   H12117465   5.225   6.612   1.551  2.1724  0.3178 -0.9016
   33MOL   H12217466   5.193   6.504   1.677  0.9185 -0.1028 -0.3020
   33MOL   H12317467   5.182   6.678   1.711 -1.0396 -1.0153 -1.2021
   33MOL   H12417468   5.431   6.683   1.716  0.9667 -0.5268 -0.6087
   33MOL   H12517469   5.371   6.543   1.796 -1.6259  2.5895  0.4128
   33MOL   H12617470   5.408   6.418   1.563 -1.7122  0.0622  1.3216
   33MOL   H12717471   5.493   6.565   1.520 -3.9048  1.4961  0.5572
   33MOL   H12817472   5.571   6.412   1.782 -0.3752 -1.5226 -1.1976
   33MOL   H12917473   5.670   6.527   1.696  0.4641  0.0292 -0.4311
   33MOL   H13017474   5.738   6.351   1.537  0.4439 -1.3560  0.1064
   33MOL   H13117475   5.730   6.291   1.705 -1.3483  1.5457  1.9244
   33MOL   H13217476   5.524   5.861   1.659  0.6218  1.6713  0.1258
   33MOL   H13317477   5.414   5.813   1.527  0.2329  1.3801 -2.3319
   33MOL   H13417478   5.584   5.835   1.498 -0.0483 -0.0911  0.2104
   33MOL   H13517479   5.335   6.177   1.533  1.1189 -0.3193 -0.0906
   33MOL   H13617480   5.250   6.051   1.498  0.8865  0.7423 -1.0218
   33MOL   C13717481   5.680   5.612   2.072 -0.0850 -0.2392 -0.1539
   33MOL   C13817482   5.731   5.748   2.031  0.1204 -0.2436  0.0735
   33MOL   C13917483   5.620   5.848   1.994 -0.6050  0.2971  0.6537
   33MOL   C14017484   5.682   5.989   1.948 -0.1323 -0.2159  0.4534
   33MOL   C14117485   5.572   6.095   1.934  0.2479 -0.1947  0.1370
   33MOL   O14217486   5.471   6.039   1.859 -0.3045  0.1755  0.0118
   33MOL   C14317487   5.371   6.125   1.812  0.4829  0.1981 -0.0246
   33MOL   O14417488   5.364   6.242   1.854  0.2891 -0.3057  0.9955
   33MOL   C14517489   5.272   6.071   1.712 -0.4905  0.8634  0.4784
   33MOL   C14617490   5.144   6.159   1.704 -0.4597 -0.2793  0.3673
   33MOL   C14717491   5.244   5.919   1.745 -0.3807  0.4792 -0.1464
   33MOL   H14817492   5.614   5.627   2.158  1.3846  2.5949  0.5553
   33MOL   H14917493   5.756   5.536   2.089 -0.5412 -0.2469  1.9074
   33MOL   H15017494   5.614   5.581   1.990 -1.2439  1.3626  0.1404
   33MOL   H15117495   5.792   5.731   1.942 -0.3120  0.8520 -0.4416
   33MOL   H15217496   5.794   5.793   2.108  0.3654 -0.1116 -0.2006
   33MOL   H15317497   5.563   5.813   1.908 -0.3709  1.4230  0.0431
   33MOL   H15417498   5.550   5.872   2.075 -0.9021  1.4854  0.0486
   33MOL   H15517499   5.756   6.024   2.020  2.4652  0.0251 -2.2272
   33MOL   H15617500   5.735   5.976   1.854 -0.4569 -1.4238  0.4368
   33MOL   H15717501   5.614   6.180   1.879 -2.9105  0.6484 -1.0509
   33MOL   H15817502   5.537   6.118   2.035  0.1335 -2.1496  0.5518
   33MOL   H15917503   5.107   6.184   1.803  0.2144  0.5283  0.4179
   33MOL   H16017504   5.069   6.110   1.642 -0.6085 -0.0703  0.3850
   33MOL   H16117505   5.151   6.259   1.662 -2.8449  0.5114  1.7674
   33MOL   H16217506   5.227   5.869   1.649 -0.5359 -0.4750  0.3763
   33MOL   H16317507   5.336   5.868   1.775 -1.0735 -0.4386  0.4353
   33MOL   C16417508   4.637   6.187   1.255  0.2338  0.0429  1.2794
   33MOL   C16517509   4.727   6.170   1.378  0.1329 -0.5810 -1.1205
   33MOL   C16617510   4.724   6.024   1.429  0.6356  0.3647 -0.4676
   33MOL   C16717511   4.844   6.007   1.529 -0.2947 -0.1455  0.5052
   33MOL   C16817512   4.847   5.886   1.618  0.0163  0.0017  0.4805
   33MOL   O16917513   4.974   5.860   1.673 -0.0584  0.2960 -0.3319
   33MOL   C17017514   4.992   5.898   1.796  0.0951  0.4759  0.9391
   33MOL   O17117515   4.913   5.961   1.855 -0.0553 -0.1874 -0.1266
   33MOL   C17217516   5.135   5.865   1.860 -0.8220 -0.0281 -0.1296
   33MOL   C17317517   5.157   5.936   1.997  0.4104 -0.2079 -0.1769
   33MOL   C17417518   5.156   5.711   1.857 -0.4613 -0.0952 -0.3374
   33MOL   H17517519   4.530   6.174   1.273  0.1989 -0.9659  0.3907
   33MOL   H17617520   4.658   6.123   1.169  0.1179  1.8515 -0.1289
   33MOL   H17717521   4.650   6.291   1.224 -0.3149  0.3805  2.1725
   33MOL   H17817522   4.697   6.236   1.460  1.3383 -0.9136 -0.3944
   33MOL   H17917523   4.826   6.199   1.343 -0.4703  0.9414 -1.6414
   33MOL   H18017524   4.626   5.998   1.471 -0.1754  2.1134 -1.2286
   33MOL   H18117525   4.742   5.949   1.351 -1.6447 -1.1932  0.4169
   33MOL   H18217526   4.843   6.093   1.596 -0.7336  1.9193 -2.0952
   33MOL   H18317527   4.937   6.003   1.473  0.1087 -0.3715  1.1852
   33MOL   H18417528   4.813   5.798   1.563 -2.3156  0.6738  0.7615
   33MOL   H18517529   4.769   5.888   1.694  0.2525  0.6714  0.7062
   33MOL   H18617530   5.216   6.028   1.998 -0.6139  0.4432  1.1775
   33MOL   H18717531   5.220   5.870   2.056  1.2942  1.5027  0.8381
   33MOL   H18817532   5.065   5.959   2.050 -0.0444 -0.6264 -0.7729
   33MOL   H18917533   5.182   5.676   1.758 -2.4544  0.0221 -0.9233
   33MOL   H19017534   5.255   5.689   1.897 -0.5430 -0.5950 -0.4015
   33MOL   C19117535   5.160   5.176   2.478  0.0097  0.5757 -0.2297
   33MOL   C19217536   5.084   5.312   2.476  0.0972 -0.0796  0.7269
   33MOL   C19317537   5.133   5.417   2.379 -0.7998 -0.1251  0.0373
   33MOL   C19417538   5.060   5.553   2.389  0.1871  0.6384  1.3290
   33MOL   C19517539   5.121   5.672   2.307 -0.5369 -0.5567  0.4115
   33MOL   O19617540   5.137   5.629   2.166 -0.1813  0.2273 -0.0691
   33MOL   C19717541   5.035   5.656   2.075 -1.0190 -0.0066 -0.7584
   33MOL   O19817542   4.932   5.714   2.107  0.6476  0.4699  0.0785
   33MOL   C19917543   5.064   5.609   1.928 -0.0869  0.1690 -0.2650
   33MOL   C20017544   5.151   5.476   1.928  0.6141  0.5615 -0.0348
   33MOL   C20117545   4.926   5.579   1.847  0.0311  0.5157 -0.2987
   33MOL   H20217546   5.108   5.105   2.541 -4.3759  0.7746 -3.3443
   33MOL   H20317547   5.164   5.131   2.379 -0.2444  0.0743 -0.0113
   33MOL   H20417548   5.265   5.194   2.499  0.0903  0.0489 -0.1940
   33MOL   H20517549   5.083   5.356   2.576  0.8594 -0.5800  0.9623
   33MOL   H20617550   4.979   5.290   2.454  0.7393 -1.0522 -1.4470
   33MOL   H20717551   5.128   5.385   2.275 -1.3953  4.2866 -1.4132
   33MOL   H20817552   5.239   5.436   2.400 -1.0038  0.3250  0.6769
   33MOL   H20917553   4.960   5.533   2.350  0.5225 -0.3009  0.9413
   33MOL   H21017554   5.035   5.589   2.489  0.9384  3.2253  0.6357
   33MOL   H21117555   5.055   5.756   2.327 -0.6585 -0.6734  0.5077
   33MOL   H21217556   5.210   5.723   2.342 -2.5745  3.5018 -0.0022
   33MOL   H21317557   5.160   5.442   1.824 -1.3031 -0.7203  0.1955
   33MOL   H21417558   5.107   5.390   1.979 -0.7641  1.9811  1.1994
   33MOL   H21517559   5.252   5.486   1.968  0.1146  0.8071  1.1551
   33MOL   H21617560   4.941   5.590   1.739 -1.3806  0.7243 -0.4869
   33MOL   H21717561   4.853   5.651   1.884 -0.6548 -0.4811  0.2921
   33MOL   C21817562   4.320   5.297   2.209 -0.7804  0.0496  0.0965
   33MOL   C21917563   4.437   5.246   2.294  0.2085 -0.1838  0.3532
   33MOL   C22017564   4.568   5.299   2.232  0.0063 -0.2584 -0.0767
   33MOL   C22117565   4.579   5.458   2.219  0.1523  0.7185  0.1482
   33MOL   C22217566   4.723   5.497   2.196 -0.3119 -0.4942 -0.4673
   33MOL   O22317567   4.754   5.500   2.057  0.2580 -0.1062  0.0274
   33MOL   C22417568   4.817   5.403   1.998 -0.6638  0.2760 -0.4416
   33MOL   O22517569   4.851   5.297   2.055 -0.3684 -0.1499  0.1683
   33MOL   C22617570   4.850   5.434   1.850  0.1712 -0.8375  0.2480
   33MOL   C22717571   4.924   5.320   1.784 -0.2948  0.4510 -0.1292
   33MOL   C22817572   4.723   5.453   1.767  0.4824  0.1678 -0.0363
   33MOL   H22917573   4.225   5.264   2.250 -0.6980  0.9068  0.9958
   33MOL   H23017574   4.303   5.401   2.235  0.0034 -0.1379  1.3808
   33MOL   H23117575   4.319   5.265   2.104 -1.0806 -5.3147  1.5813
   33MOL   H23217576   4.438   5.141   2.265 -0.2710 -0.0202 -0.2837
   33MOL   H23317577   4.421   5.254   2.401 -2.8679  0.9303 -0.1321
   33MOL   H23417578   4.597   5.245   2.141 -0.3071  1.3575 -1.1563
   33MOL   H23517579   4.649   5.252   2.287 -0.5494  1.5715  2.3768
   33MOL   H23617580   4.513   5.497   2.142  0.3124 -2.6173 -1.7553
   33MOL   H23717581   4.545   5.508   2.310 -0.1873 -0.6821  0.8023
   33MOL   H23817582   4.791   5.430   2.249 -0.2494 -0.1250 -0.0787
   33MOL   H23917583   4.736   5.591   2.250  0.7482 -0.0237 -1.5174
   33MOL   H24017584   4.941   5.337   1.677 -1.5036  1.7427 -0.1204
   33MOL   H24117585   4.868   5.228   1.800 -0.1290  0.3706 -0.0114
   33MOL   H24217586   5.017   5.283   1.828 -0.5921 -0.3621 -0.1603
   33MOL   H24317587   4.749   5.513   1.680  1.1734  1.0546  0.7723
   33MOL   H24417588   4.666   5.517   1.834 -0.1322 -3.0042  2.6225
   33MOL   C24517589   4.377   5.419   1.077 -0.3463  0.2102  0.6322
   33MOL   C24617590   4.296   5.444   1.205  0.0913  0.4711 -0.5312
   33MOL   C24717591   4.397   5.500   1.315  0.0398 -0.4662 -0.2502
   33MOL   C24817592   4.312   5.536   1.434 -0.8335  0.2029  0.0936
   33MOL   C24917593   4.393   5.605   1.547 -0.0358  0.1036 -0.2811
   33MOL   O25017594   4.505   5.529   1.593 -0.8625  0.4020  0.0657
   33MOL   C25117595   4.488   5.428   1.679  0.3606  0.5762 -0.0271
   33MOL   O25217596   4.380   5.401   1.728  0.1925  0.0255 -0.3337
   33MOL   C25317597   4.620   5.347   1.711 -0.8631  0.1758  0.0153
   33MOL   C25417598   4.582   5.266   1.844 -0.3452  0.1373  0.4370
   33MOL   C25517599   4.648   5.269   1.572  0.1739 -0.0892 -0.7287
   33MOL   H25617600   4.309   5.382   1.001 -1.8438  0.2652  1.9236
   33MOL   H25717601   4.416   5.512   1.036  0.8683 -1.2059 -1.5053
   33MOL   H25817602   4.455   5.344   1.089  0.7246  1.1193 -0.5287
   33MOL   H25917603   4.227   5.520   1.169 -0.4583 -0.1500 -0.8020
   33MOL   H26017604   4.236   5.357   1.232 -1.6121  1.7862  0.0579
   33MOL   H26117605   4.447   5.586   1.271 -0.1535 -0.0815  0.2821
   33MOL   H26217606   4.472   5.424   1.336  0.2750 -0.2813 -0.4214
   33MOL   H26317607   4.230   5.604   1.411 -1.5764 -0.4159  0.9218
   33MOL   H26417608   4.257   5.453   1.477 -1.7058  0.8207  0.1999
   33MOL   H26517609   4.419   5.704   1.508  1.4938 -0.4483 -0.6763
   33MOL   H26617610   4.315   5.629   1.620 -2.0943 -1.3155 -1.9450
   33MOL   H26717611   4.538   5.328   1.922  0.3448 -1.0527  1.7967
   33MOL   H26817612   4.496   5.204   1.818  1.0190 -0.2856 -3.3057
   33MOL   H26917613   4.663   5.206   1.886 -1.2933  0.4499  2.8159
   33MOL   H27017614   4.634   5.341   1.492  1.2635  1.1261  0.1557
   33MOL   H27117615   4.755   5.250   1.566 -0.0252 -1.7440  0.3490
   33MOL   C27217616   4.118   4.616   1.486  0.1161 -0.3160 -0.0948
   33MOL   C27317617   4.273   4.586   1.498  0.3147  0.1761 -0.6619
   33MOL   C27417618   4.357   4.702   1.552 -0.0680  0.2723  0.5482
   33MOL   C27517619   4.509   4.677   1.542 -0.4193 -0.5348  0.0501
   33MOL   C27617620   4.588   4.786   1.615  0.0912 -0.9422 -0.0133
   33MOL   O27717621   4.559   4.909   1.558 -0.0711 -0.0650  0.3718
   33MOL   C27817622   4.618   5.016   1.595 -0.6798 -0.4765  0.0092
   33MOL   O27917623   4.706   5.017   1.679  0.1245 -0.1523 -0.8396
   33MOL   C28017624   4.572   5.139   1.524  0.4193 -0.5727 -0.7886
   33MOL   C28117625   4.424   5.156   1.541 -0.2137  0.6286  0.2609
   33MOL   C28217626   4.588   5.113   1.367 -0.4085  0.0140  0.4554
   33MOL   H28317627   4.055   4.533   1.453  0.5278 -0.2697 -0.9904
   33MOL   H28417628   4.083   4.639   1.587 -1.2471  0.2486 -0.6818
   33MOL   H28517629   4.083   4.700   1.426 -1.3712  0.4125  1.7194
   33MOL   H28617630   4.292   4.497   1.557  1.0638  1.6563  1.3664
   33MOL   H28717631   4.310   4.566   1.397  0.6856  0.0928 -0.5115
   33MOL   H28817632   4.342   4.799   1.505 -0.7931 -0.4402 -0.7361
   33MOL   H28917633   4.334   4.726   1.656  0.6993 -2.3211  1.3612
   33MOL   H29017634   4.529   4.575   1.573  1.7610 -0.1498  0.0252
   33MOL   H29117635   4.543   4.684   1.439  3.0901  1.0480  1.2169
   33MOL   H29217636   4.695   4.780   1.597  0.0818 -0.6084 -0.1842
   33MOL   H29317637   4.557   4.781   1.719 -0.4179  1.5627 -0.0240
   33MOL   H29417638   4.389   5.252   1.504  0.8224  1.0483  0.3347
   33MOL   H29517639   4.377   5.071   1.493 -1.0624  1.0933  0.2659
   33MOL   H29617640   4.402   5.148   1.648  0.7276  0.7742  0.4775
   33MOL   H29717641   4.532   5.022   1.346  0.0714 -0.0657 -0.4922
   33MOL   H29817642   4.533   5.191   1.314 -2.3139 -0.2011  2.0411
   33MOL   C29917643   4.774   5.655   0.892 -0.4251 -0.0278 -0.2726
   33MOL   C30017644   4.818   5.644   1.038  0.2340  0.1834  0.7379
   33MOL   C30117645   4.709   5.593   1.131 -0.2333 -0.5857  0.1454
   33MOL   C30217646   4.761   5.560   1.277  0.8433 -0.0468 -0.4294
   33MOL   C30317647   4.842   5.433   1.284 -0.3920  0.1481  0.3320
   33MOL   O30417648   4.769   5.320   1.270 -0.7794  0.1549  0.0716
   33MOL   C30517649   4.819   5.202   1.294  0.6521 -0.0696 -0.9905
   33MOL   O30617650   4.939   5.183   1.308 -0.3291  0.1572  0.1500
   33MOL   C30717651   4.721   5.083   1.288 -0.5629 -0.1442  0.6819
   33MOL   C30817652   4.794   4.954   1.333  0.1646 -0.5091 -0.2946
   33MOL   C30917653   4.689   5.064   1.132 -0.1847 -0.0537  0.2183
   33MOL   H31017654   4.841   5.714   0.830 -0.5173 -1.0798 -1.3790
   33MOL   H31117655   4.674   5.699   0.887 -1.0043 -1.1420  1.0057
   33MOL   H31217656   4.759   5.559   0.842  0.0884  0.3145 -1.0828
   33MOL   H31317657   4.848   5.741   1.077  0.7530  1.0607 -1.7482
   33MOL   H31417658   4.913   5.591   1.041 -0.2821 -0.8738 -0.8365
   33MOL   H31517659   4.663   5.502   1.093 -2.7160  1.1515 -1.2111
   33MOL   H31617660   4.617   5.652   1.119 -0.3276 -0.8607 -0.4857
   33MOL   H31717661   4.669   5.557   1.335  0.4165 -0.8015 -1.1349
   33MOL   H31817662   4.807   5.649   1.320 -1.5983  0.1431  1.8750
   33MOL   H31917663   4.907   5.430   1.196 -1.3124 -0.9913 -0.3253
   33MOL   H32017664   4.898   5.426   1.377  1.7354 -0.0618 -0.9048
   33MOL   H32117665   4.846   4.983   1.424 -2.4322  1.0368  0.7631
   33MOL   H32217666   4.735   4.864   1.349  0.2942 -0.7590 -1.1846
   33MOL   H32317667   4.877   4.934   1.265 -1.1097 -1.3977 -1.6039
   33MOL   H32417668   4.787   5.045   1.088  0.4093  0.3691  1.3259
   33MOL   H32517669   4.668   5.158   1.082  3.5950  0.0801 -1.3096
   33MOL   C32617670   4.663   4.489   0.373  0.0117  0.0484  0.0194
   33MOL   C32717671   4.604   4.599   0.470  0.7348  0.5371  0.5729
   33MOL   C32817672   4.705   4.661   0.563 -0.6112  0.1098 -0.2030
   33MOL   C32917673   4.638   4.710   0.690 -0.2297  0.4095 -0.0329
   33MOL   C33017674   4.736   4.802   0.766  0.5814 -0.5566  0.1588
   33MOL   O33117675   4.681   4.835   0.890  0.2072 -0.1272 -0.0027
   33MOL   C33217676   4.620   4.954   0.915  0.4071 -0.2181 -0.0012
   33MOL   O33317677   4.591   5.034   0.829  0.9866 -0.3943 -0.0287
   33MOL   C33417678   4.576   4.971   1.066 -0.4939  0.1577  0.5767
   33MOL   C33517679   4.584   4.832   1.128  0.1034  0.3457 -1.1250
   33MOL   C33617680   4.432   5.033   1.068  0.7193  0.4834 -0.3216
   33MOL   H33717681   4.580   4.437   0.326  0.1205  0.0258 -0.1494
   33MOL   H33817682   4.710   4.403   0.421 -1.5470 -2.1495 -2.2633
   33MOL   H33917683   4.728   4.525   0.293 -1.1676  0.4255 -0.7816
   33MOL   H34017684   4.524   4.562   0.534  1.0452  0.4051  0.8877
   33MOL   H34117685   4.560   4.681   0.413 -0.6214  0.9875  2.2313
   33MOL   H34217686   4.765   4.741   0.518  2.2487 -1.3293  0.9624
   33MOL   H34317687   4.778   4.590   0.600 -0.1209  0.1547 -1.0567
   33MOL   H34417688   4.612   4.622   0.748  1.8871 -0.5865 -0.5546
   33MOL   H34517689   4.546   4.759   0.658 -1.1436 -1.4688 -0.3240
   33MOL   H34617690   4.747   4.890   0.703 -0.9586  0.0909  0.7699
   33MOL   H34717691   4.830   4.749   0.778  0.4719 -0.6216  0.7473
   33MOL   H34817692   4.530   4.754   1.075 -0.5298  0.4174 -0.5923
   33MOL   H34917693   4.546   4.836   1.230  0.4895 -0.2488 -0.9505
   33MOL   H35017694   4.686   4.795   1.139  0.0109  0.0302 -1.3097
   33MOL   H35117695   4.432   5.124   1.007  1.1303  0.1445 -0.8324
   33MOL   H35217696   4.412   5.083   1.163 -0.5562 -2.5666  1.0740
   33MOL   C35317697   4.449   4.288   0.773  0.5697  0.3951  0.0546
   33MOL   C35417698   4.318   4.361   0.814  0.1156 -0.0056 -0.5553
   33MOL   C35517699   4.345   4.470   0.917  0.0469 -0.1271  0.6851
   33MOL   C35617700   4.210   4.502   0.989 -0.0019 -0.6252 -0.6361
   33MOL   C35717701   4.220   4.598   1.104 -0.2986 -0.6660  0.2527
   33MOL   O35817702   4.271   4.716   1.048  0.6043  0.1717 -0.2911
   33MOL   C35917703   4.279   4.828   1.118 -0.1195 -0.1249 -0.7737
   33MOL   O36017704   4.255   4.838   1.238  0.5933  0.3000 -0.0544
   33MOL   C36117705   4.296   4.960   1.034 -0.3860  0.1053 -0.2854
   33MOL   C36217706   4.293   4.935   0.881  0.0112  0.1613 -0.8731
   33MOL   C36317707   4.184   5.068   1.062  0.1309 -0.5113  0.0598
   33MOL   H36417708   4.520   4.369   0.754  1.4785 -0.0103  1.6038
   33MOL   H36517709   4.437   4.241   0.675  3.0554  0.5055 -0.3575
   33MOL   H36617710   4.494   4.221   0.847 -1.2748 -0.4195  0.4606
   33MOL   H36717711   4.256   4.395   0.731  0.1337  0.3834 -0.4095
   33MOL   H36817712   4.264   4.279   0.862 -0.5816  1.4034  1.1276
   33MOL   H36917713   4.399   4.556   0.878 -2.3857  1.5215  0.8117
   33MOL   H37017714   4.411   4.433   0.995 -0.3374 -0.4564  0.8595
   33MOL   H37117715   4.160   4.414   1.029  0.1398 -0.4963 -0.1782
   33MOL   H37217716   4.147   4.540   0.909  0.2840 -2.4496 -1.7481
   33MOL   H37317717   4.121   4.614   1.148 -0.0701  1.9459 -0.1448
   33MOL   H37417718   4.295   4.541   1.159  1.9935 -0.7801 -2.8563
   33MOL   H37517719   4.205   4.883   0.844 -1.5115  1.6758  0.5387
   33MOL   H37617720   4.293   5.034   0.837  0.5772 -0.2465 -1.8159
   33MOL   H37717721   4.380   4.885   0.837  0.1332 -0.5930  0.2072
   33MOL   H37817722   4.194   5.104   1.164  1.0462 -0.3416 -0.0866
   33MOL   H37917723   4.209   5.154   0.998  2.6700 -1.1644  0.1205
   33MOL   C38017724   3.962   5.336   0.247 -0.7261 -0.4569  0.2861
   33MOL   C38117725   3.972   5.265   0.377  0.3192 -0.0743  0.3381
   33MOL   C38217726   4.100   5.290   0.457  1.0411  0.2461 -0.5101
   33MOL   C38317727   4.108   5.194   0.587  0.1960 -0.2214 -0.0743
   33MOL   C38417728   3.985   5.213   0.681 -0.4198 -0.5229 -0.3718
   33MOL   O38517729   4.028   5.187   0.814  0.0839 -0.3195 -0.0365
   33MOL   C38617730   4.014   5.067   0.859 -0.0544  0.4937 -0.3435
   33MOL   O38717731   3.995   4.971   0.787 -0.0729 -0.2903 -0.8264
   33MOL   C38817732   4.034   5.056   1.016 -0.9445 -0.6986  0.1659
   33MOL   C38917733   3.979   4.920   1.066 -0.6255  0.0713  0.6453
   33MOL   C39017734   3.957   5.172   1.086 -0.5160 -0.2496 -0.6222
   33MOL   H39117735   3.984   5.443   0.244  0.6598 -0.7513 -0.7372
   33MOL   H39217736   4.050   5.299   0.194 -0.9993 -2.0151  0.8956
   33MOL   H39317737   3.874   5.300   0.193 -0.6046 -1.1355  0.5452
   33MOL   H39417738   3.952   5.159   0.365  0.6205  0.0995 -1.9425
   33MOL   H39517739   3.884   5.301   0.431 -0.9734  0.9242 -2.3366
   33MOL   H39617740   4.185   5.267   0.392  1.2204 -1.0700  0.1718
   33MOL   H39717741   4.117   5.395   0.482  1.7113  0.6341 -2.4888
   33MOL   H39817742   4.110   5.090   0.554  1.5801 -0.3333  0.3391
   33MOL   H39917743   4.201   5.213   0.640 -0.9998 -0.0710  2.0327
   33MOL   H40017744   3.909   5.145   0.646 -0.0035 -0.6426 -1.0513
   33MOL   H40117745   3.951   5.317   0.682  0.4087 -0.2448  0.1726
   33MOL   H40217746   3.970   4.915   1.174  0.0565  1.1511  0.7550
   33MOL   H40317747   4.036   4.835   1.029 -0.8336  0.2232 -0.0305
   33MOL   H40417748   3.879   4.890   1.034 -0.0773 -1.2972  0.1639
   33MOL   H40517749   3.986   5.270   1.048 -3.1232  1.3668  1.3909
   33MOL   H40617750   4.000   5.175   1.186  0.1320  0.3620 -0.9085
   33MOL   C40717751   3.840   4.459   1.270  0.3310  0.1340  0.1129
   33MOL   C40817752   3.762   4.531   1.371  0.8773 -0.1992  0.6594
   33MOL   C40917753   3.666   4.649   1.329 -0.7308  0.4950 -0.3007
   33MOL   C41017754   3.736   4.770   1.277 -0.2237  0.0900 -0.1609
   33MOL   C41117755   3.637   4.885   1.268  0.2142  0.5763 -0.1790
   33MOL   O41217756   3.686   4.980   1.177  0.3795 -0.6820 -0.6234
   33MOL   C41317757   3.738   5.095   1.218  0.5276 -0.0515  0.2398
   33MOL   O41417758   3.753   5.136   1.333  0.0606 -0.7018 -0.0623
   33MOL   C41517759   3.793   5.184   1.095  0.5978 -0.2713  0.2643
   33MOL   C41617760   3.776   5.326   1.137  0.5354  0.4295  0.7603
   33MOL   C41717761   3.717   5.159   0.962 -0.1542 -0.2491 -0.1030
   33MOL   H41817762   3.895   4.531   1.210  0.4524  1.2819  1.5814
   33MOL   H41917763   3.902   4.374   1.300 -0.5101 -0.6756 -0.4085
   33MOL   H42017764   3.771   4.420   1.195  0.2605  0.2315  0.1267
   33MOL   H42117765   3.823   4.560   1.457 -0.5868 -1.4134  2.1149
   33MOL   H42217766   3.698   4.454   1.413  0.7853 -0.2146  0.4904
   33MOL   H42317767   3.597   4.611   1.254 -0.9097 -0.7740  0.5007
   33MOL   H42417768   3.603   4.679   1.412 -0.1158  1.0247 -0.0204
   33MOL   H42517769   3.781   4.752   1.179 -2.7218  0.0410 -1.3205
   33MOL   H42617770   3.819   4.793   1.344  0.2237  0.8518 -0.9697
   33MOL   H42717771   3.541   4.846   1.232  0.6077 -2.2627  1.7038
   33MOL   H42817772   3.620   4.923   1.369  1.7826  0.8166  0.0088
   33MOL   H42917773   3.794   5.392   1.052 -0.4528 -0.7204 -0.3653
   33MOL   H43017774   3.845   5.361   1.214 -1.6863 -0.5579  3.3166
   33MOL   H43117775   3.676   5.348   1.176  0.2275 -1.7855  1.2993
   33MOL   H43217776   3.733   5.052   0.951  2.2581 -0.1307  1.7829
   33MOL   H43317777   3.780   5.196   0.881 -0.7341  0.1514 -0.3686
   33MOL   C43417778   3.923   5.891   0.504  0.2813 -0.3414 -0.4514
   33MOL   C43517779   3.899   5.742   0.554 -0.3451 -0.2792  0.3613
   33MOL   C43617780   3.763   5.710   0.613  0.4396 -0.1548 -0.0487
   33MOL   C43717781   3.738   5.563   0.647  0.0335  0.4914 -0.3619
   33MOL   C43817782   3.663   5.529   0.780 -0.0176 -0.3147 -0.1254
   33MOL   O43917783   3.649   5.399   0.799  0.4564 -0.2154 -0.2069
   33MOL   C44017784   3.572   5.366   0.902  0.0491  0.2699  0.8286
   33MOL   O44117785   3.511   5.447   0.968 -0.0422  0.5491  0.5514
   33MOL   C44217786   3.567   5.213   0.935  0.4509  0.5845  0.1068
   33MOL   C44317787   3.463   5.194   1.053 -0.2874 -0.5983 -0.4642
   33MOL   C44417788   3.524   5.130   0.803 -0.2258  0.0541  0.3853
   33MOL   H44517789   3.884   5.962   0.577  0.2667 -0.0527 -0.7411
   33MOL   H44617790   4.030   5.903   0.489  0.2867  0.7580  0.4103
   33MOL   H44717791   3.869   5.906   0.411  1.3346 -0.0179 -1.0188
   33MOL   H44817792   3.931   5.666   0.482  3.0697  0.6915  0.7818
   33MOL   H44917793   3.963   5.724   0.640 -0.6730 -1.9223  0.2788
   33MOL   H45017794   3.762   5.752   0.714  3.2096  2.0897 -0.8944
   33MOL   H45117795   3.683   5.745   0.548  0.0361 -1.0087 -0.0272
   33MOL   H45217796   3.822   5.495   0.650  0.9691  1.6250 -0.6870
   33MOL   H45317797   3.679   5.523   0.564 -0.8432 -0.7789  0.8406
   33MOL   H45417798   3.565   5.576   0.767 -0.6724 -2.2145 -2.3653
   33MOL   H45517799   3.720   5.579   0.858 -0.2193 -0.3463  0.0431
   33MOL   H45617800   3.367   5.235   1.023  0.3357  0.8430 -0.5270
   33MOL   H45717801   3.459   5.094   1.098  1.5296 -0.9198 -0.9675
   33MOL   H45817802   3.490   5.253   1.140 -2.4513 -3.2729  2.1265
   33MOL   H45917803   3.565   5.029   0.813 -2.4820 -1.0056 -0.7064
   33MOL   H46017804   3.573   5.170   0.714 -1.0236 -2.8202 -1.3928
   33MOL   C46117805   2.643   5.497   0.921 -0.6700  0.0650 -0.5667
   33MOL   C46217806   2.736   5.373   0.905  0.3020 -0.1098 -0.7220
   33MOL   C46317807   2.852   5.413   0.818  0.8211 -0.1151 -0.5190
   33MOL   C46417808   2.936   5.283   0.803 -0.3215 -0.7481 -0.3009
   33MOL   C46517809   3.062   5.308   0.719 -0.2496 -0.6388 -0.5114
   33MOL   O46617810   3.154   5.199   0.730 -0.3057 -0.3968 -0.0352
   33MOL   C46717811   3.286   5.226   0.738  0.3889  0.1235  0.7886
   33MOL   O46817812   3.339   5.336   0.724 -0.5092  0.0862  0.0261
   33MOL   C46917813   3.374   5.099   0.760  0.5833  0.1111 -0.0545
   33MOL   C47017814   3.297   5.005   0.861  0.2823  0.0515 -0.6013
   33MOL   C47117815   3.366   5.020   0.620  0.4774 -0.4920 -0.8567
   33MOL   H47217816   2.698   5.579   0.966  2.6163 -1.5938 -1.4185
   33MOL   H47317817   2.548   5.468   0.967  0.6478 -2.2806  0.7461
   33MOL   H47417818   2.619   5.524   0.818 -0.3836 -1.0426 -0.9261
   33MOL   H47517819   2.677   5.302   0.847 -1.2883  0.9090 -0.4059
   33MOL   H47617820   2.769   5.332   1.000 -0.1623 -1.0333 -0.9522
   33MOL   H47717821   2.900   5.495   0.873  1.4726 -0.7420 -0.1486
   33MOL   H47817822   2.815   5.460   0.727 -0.3005  0.9437  0.4656
   33MOL   H47917823   2.875   5.198   0.773 -0.0163 -1.6949  1.7008
   33MOL   H48017824   2.950   5.258   0.908 -1.5554 -1.1609 -0.2234
   33MOL   H48117825   3.034   5.329   0.616 -3.5284  0.9397  0.6426
   33MOL   H48217826   3.106   5.399   0.759  1.7516 -2.1759  0.9194
   33MOL   H48317827   3.363   4.924   0.891  0.1740  0.6255  1.2381
   33MOL   H48417828   3.208   4.968   0.812 -1.1218  2.4795  0.0377
   33MOL   H48517829   3.274   5.050   0.957  3.5506  0.4076  0.0797
   33MOL   H48617830   3.262   5.018   0.590 -0.4393  2.0919  1.9175
   33MOL   H48717831   3.390   4.916   0.645  0.1359 -0.5567 -0.8024
   33MOL   C48817832   3.853   4.539   0.879 -0.4900  0.0001  0.3849
   33MOL   C48917833   3.740   4.639   0.900  0.2421 -0.9812  0.0274
   33MOL   C49017834   3.677   4.698   0.771  0.4859 -0.2698 -0.3593
   33MOL   C49117835   3.759   4.803   0.692 -0.1555  0.3219 -0.1566
   33MOL   C49217836   3.725   4.797   0.545 -0.2086  0.3399  0.0801
   33MOL   O49317837   3.603   4.867   0.529 -0.0090 -0.3334  0.4497
   33MOL   C49417838   3.594   5.002   0.496 -0.1270  0.2679 -0.5545
   33MOL   O49517839   3.693   5.068   0.464  0.5123 -0.6648  0.6767
   33MOL   C49617840   3.450   5.054   0.490  0.1666  0.4540 -0.2579
   33MOL   C49717841   3.449   5.208   0.462 -0.2248 -0.5381 -0.7921
   33MOL   C49817842   3.380   4.989   0.369  0.3342 -0.0044  0.8370
   33MOL   H49917843   3.916   4.525   0.967 -1.8065  1.8514  1.6645
   33MOL   H50017844   3.799   4.454   0.838 -0.1700 -0.3047  0.5913
   33MOL   H50117845   3.913   4.585   0.800 -0.6237  1.5237  1.1598
   33MOL   H50217846   3.786   4.727   0.945 -0.6784 -1.2490  1.4881
   33MOL   H50317847   3.665   4.599   0.967 -0.3599 -1.1931 -0.7606
   33MOL   H50417848   3.671   4.606   0.711  1.2097 -0.1558 -0.6138
   33MOL   H50517849   3.573   4.723   0.792  0.3600 -0.1585 -1.0814
   33MOL   H50617850   3.864   4.775   0.704 -0.5583 -1.3203 -0.3592
   33MOL   H50717851   3.750   4.901   0.740 -0.8955  0.3254 -0.3083
   33MOL   H50817852   3.800   4.848   0.485  0.9722 -1.2428  0.1791
   33MOL   H50917853   3.727   4.695   0.508 -1.1228 -0.2467  1.5937
   33MOL   H51017854   3.350   5.247   0.438  0.0175  0.3960 -0.3074
   33MOL   H51117855   3.526   5.229   0.388 -0.3450  2.5568 -0.0899
   33MOL   H51217856   3.490   5.263   0.547 -1.4781 -0.9631  0.1164
   33MOL   H51317857   3.290   5.050   0.361 -0.0679 -0.7572 -0.3832
   33MOL   H51417858   3.336   4.895   0.401  0.3980 -0.1044  0.6255
   33MOL   C51517859   3.689   5.644   0.192  0.0732 -0.0275  0.0814
   33MOL   C51617860   3.541   5.655   0.148 -0.4095  0.4776  0.2693
   33MOL   C51717861   3.483   5.549   0.061 -0.3888 -1.0102 -0.0226
   33MOL   C51817862   3.464   5.415   0.140 -0.3435 -0.1057  0.2588
   33MOL   C51917863   3.441   5.294   0.045  0.6260 -0.2514 -0.0327
   33MOL   O52017864   3.407   5.175   0.110 -0.2384 -0.1193  0.6497
   33MOL   C52117865   3.510   5.087   0.151  0.2024 -0.2212 -0.5823
   33MOL   O52217866   3.630   5.113   0.134 -0.9058 -0.2988 -0.2472
   33MOL   C52317867   3.449   4.960   0.228  0.6698 -0.6950  0.2010
   33MOL   C52417868   3.323   4.908   0.148 -0.5613 -0.3119  0.7472
   33MOL   C52517869   3.555   4.846   0.224  0.3103 -0.4555  0.3329
   33MOL   H52617870   3.715   5.563   0.260 -1.1282 -0.9065 -0.4825
   33MOL   H52717871   3.750   5.633   0.102  1.0174  1.0842  0.5646
   33MOL   H52817872   3.724   5.737   0.237 -0.8218  0.1355  0.4533
   33MOL   H52917873   3.470   5.659   0.232 -1.3667  0.0622 -0.5063
   33MOL   H53017874   3.535   5.739   0.079  2.0258 -0.7935 -1.5740
   33MOL   H53117875   3.383   5.585   0.034  0.4246 -0.5771 -2.6026
   33MOL   H53217876   3.543   5.552   7.784 -0.0429 -0.9956  0.2051
   33MOL   H53317877   3.394   5.407   0.223 -0.0526 -1.4385  0.3980
   33MOL   H53417878   3.558   5.395   0.191 -1.4378 -2.4182  1.4415
   33MOL   H53517879   3.365   5.321   7.787 -0.1819  1.2427  1.3665
   33MOL   H53617880   3.538   5.280   7.810  0.7198  1.2955 -0.2845
   33MOL   H53717881   3.288   4.820   0.203  1.4269 -1.4908  0.1644
   33MOL   H53817882   3.347   4.876   0.047 -0.4606  2.5653 -0.1739
   33MOL   H53917883   3.236   4.973   0.133  0.5929  0.5397 -2.6419
   33MOL   H54017884   3.536   4.772   0.302  0.7404  0.1441  1.0109
   33MOL   H54117885   3.658   4.876   0.242  0.1350  0.7458 -0.6370
   33MOL   H54217886   3.556   4.799   0.125 -0.6720 -1.5499  0.8365
   34MOL     C117887   5.719   2.177   0.250 -0.6634 -0.3626  0.3823
   34MOL     C217888   5.576   2.162   0.311  0.0792  0.1634 -0.5695
   34MOL     C317889   5.588   2.056   0.429  0.1998  0.2568 -0.5334
   34MOL     C417890   5.645   2.111   0.564  0.5760 -0.0220 -0.3337
   34MOL     C517891   5.718   1.997   0.637  0.2808 -0.1799 -0.5644
   34MOL     O617892   5.827   1.951   0.567 -0.7584  0.5437  0.1153
   34MOL     C717893   5.955   1.992   0.592 -0.2458  0.0530 -0.4887
   34MOL     O817894   5.986   2.084   0.662  0.0814 -0.0695 -0.2883
   34MOL     C917895   6.056   1.904   0.521 -0.6902 -0.0471 -0.5858
   34MOL    C1017896   6.075   1.957   0.379 -0.4202 -0.7034  0.0459
   34MOL    C1117897   6.017   1.753   0.530 -0.1915 -0.3885  0.0183
   34MOL    H1217898   5.786   2.232   0.317 -2.1714  1.2163  0.6349
   34MOL    H1317899   5.727   2.230   0.155  0.0379  0.2221  0.7587
   34MOL    H1417900   5.773   2.083   0.244 -2.4810 -1.3509 -0.7694
   34MOL    H1517901   5.524   2.249   0.350 -1.1844 -1.7724  2.1919
   34MOL    H1617902   5.521   2.124   0.225 -0.4874 -2.3970  0.8750
   34MOL    H1717903   5.495   2.000   0.444  0.3876  0.0647 -0.0975
   34MOL    H1817904   5.653   1.979   0.388  1.7346  1.5625 -0.5696
   34MOL    H1917905   5.566   2.148   0.629  1.4627  0.7478  0.3327
   34MOL    H2017906   5.721   2.187   0.544  0.1794 -0.3265 -3.2734
   34MOL    H2117907   5.745   2.035   0.736  0.1888 -0.2330 -0.5186
   34MOL    H2217908   5.649   1.912   0.644 -0.3718  0.4034  0.1078
   34MOL    H2317909   5.981   1.950   0.325 -1.4777 -0.8141  1.8467
   34MOL    H2417910   6.163   1.911   0.334  1.2376  3.2746 -0.9092
   34MOL    H2517911   6.115   2.058   0.386  0.5431 -1.1891  1.8742
   34MOL    H2617912   5.929   1.734   0.468  0.7268 -1.3144 -1.0160
   34MOL    H2717913   5.981   1.748   0.633 -0.1156  0.2466  0.0767
   34MOL    H2817914   6.153   1.917   0.570 -1.2024  0.9396  0.1789
   34MOL    C2917915   6.608   1.896   0.697 -0.6603 -0.0657  0.0477
   34MOL    C3017916   6.592   1.760   0.757 -1.0054 -0.3521  0.0154
   34MOL    C3117917   6.574   1.659   0.641 -0.1604  0.3148  0.7375
   34MOL    C3217918   6.536   1.519   0.685 -0.6804 -0.1774 -0.4537
   34MOL    C3317919   6.392   1.512   0.735 -0.1285  0.3890  0.0805
   34MOL    O3417920   6.305   1.530   0.626  0.6563  0.5472 -0.1367
   34MOL    C3517921   6.225   1.632   0.626  0.3638 -0.1429  0.2065
   34MOL    O3617922   6.227   1.726   0.707  0.9325  0.2943 -0.2922
   34MOL    C3717923   6.111   1.625   0.517 -0.0535 -0.7967 -0.3607
   34MOL    C3817924   6.190   1.627   0.382  0.0809  0.0605 -0.0773
   34MOL    C3917925   6.026   1.487   0.510 -1.1851 -0.4834  0.8313
   34MOL    H4017926   6.630   1.965   0.779  0.7301  0.1967 -0.5465
   34MOL    H4117927   6.683   1.896   0.619 -0.7996 -2.3868 -0.1090
   34MOL    H4217928   6.521   1.929   0.640 -0.0430 -0.0239 -0.8703
   34MOL    H4317929   6.509   1.750   0.827 -0.9887 -0.4849  0.0154
   34MOL    H4417930   6.681   1.743   0.818 -0.0347  0.7419 -1.0459
   34MOL    H4517931   6.666   1.663   0.581  0.6413  1.8189  2.0270
   34MOL    H4617932   6.504   1.692   0.564 -0.4953 -0.8290  0.5463
   34MOL    H4717933   6.544   1.459   0.594 -1.8388  1.6758 -1.8187
   34MOL    H4817934   6.611   1.490   0.758 -0.3058 -0.9934 -1.1524
   34MOL    H4917935   6.369   1.581   0.816 -0.5374  1.1195 -0.6518
   34MOL    H5017936   6.374   1.409   0.766  0.8353  0.5084  1.0543
   34MOL    H5117937   6.224   1.528   0.352 -1.0451  0.0849 -1.5335
   34MOL    H5217938   6.283   1.683   0.388  0.5229 -0.5192 -1.3296
   34MOL    H5317939   6.127   1.676   0.308 -0.3524 -1.4198 -0.7239
   34MOL    H5417940   6.092   1.400   0.500 -0.0118  0.4041  0.6945
   34MOL    H5517941   5.981   1.489   0.411  0.3127 -0.0278  0.1377
   34MOL    C5617942   5.502   1.414   0.102 -0.0509  0.6277  0.0111
   34MOL    C5717943   5.531   1.548   0.161  0.1494 -0.0579 -0.8771
   34MOL    C5817944   5.596   1.532   0.297  0.2335 -0.3697 -0.2555
   34MOL    C5917945   5.616   1.663   0.371 -0.7097 -0.4908  0.4212
   34MOL    C6017946   5.633   1.638   0.520 -0.6759  0.4024 -0.2822
   34MOL    O6117947   5.741   1.545   0.524 -0.2087 -1.1008  0.3662
   34MOL    C6217948   5.810   1.516   0.646 -0.4013 -0.2274 -0.2839
   34MOL    O6317949   5.768   1.553   0.759  0.0761  0.3282  0.1699
   34MOL    C6417950   5.934   1.434   0.626 -0.4280  0.4027  0.2296
   34MOL    C6517951   6.019   1.431   0.758  0.1146 -0.4259  0.0534
   34MOL    C6617952   5.898   1.286   0.578  0.2201  0.0249  0.5415
   34MOL    H6717953   5.426   1.430   0.026 -1.2508  1.9973  1.4636
   34MOL    H6817954   5.453   1.347   0.173 -0.2469 -0.3039 -0.9974
   34MOL    H6917955   5.590   1.363   0.063  1.2932  2.0074  1.1702
   34MOL    H7017956   5.593   1.607   0.094 -0.8606  1.4052 -0.5448
   34MOL    H7117957   5.443   1.612   0.170 -1.2073 -2.0075  0.2367
   34MOL    H7217958   5.529   1.474   0.360  1.5346 -2.3369 -0.6527
   34MOL    H7317959   5.689   1.476   0.302  0.1133 -0.5362  0.1264
   34MOL    H7417960   5.529   1.726   0.354 -1.0161 -0.7776  0.8987
   34MOL    H7517961   5.701   1.724   0.342 -1.7444  1.7291  1.9208
   34MOL    H7617962   5.652   1.731   0.574 -0.9422  0.1719  0.2199
   34MOL    H7717963   5.542   1.592   0.560 -0.9845  0.0240 -1.4150
   34MOL    H7817964   5.987   1.366   0.839 -2.2164 -0.0261 -0.4852
   34MOL    H7917965   6.027   1.530   0.801  0.9215 -0.8229  0.8140
   34MOL    H8017966   6.123   1.400   0.748  0.3544  0.0199  1.1265
   34MOL    H8117967   5.989   1.227   0.572 -1.2099 -2.1708 -0.2001
   34MOL    H8217968   5.876   1.288   0.472 -0.0992  0.8141  0.6200
   34MOL    C8317969   5.559   0.635   0.701  0.2603  0.0352 -0.5294
   34MOL    C8417970   5.682   0.564   0.652  1.2435 -0.4543  0.2792
   34MOL    C8517971   5.794   0.668   0.613  0.0224  0.1831 -0.3261
   34MOL    C8617972   5.860   0.751   0.732  0.5589  0.2899  0.9648
   34MOL    C8717973   5.957   0.859   0.680  0.2315  0.4136 -0.2551
   34MOL    O8817974   5.906   0.987   0.704 -0.2498  0.0460 -0.5286
   34MOL    C8917975   5.829   1.056   0.604  0.4403 -0.3211  0.2746
   34MOL    O9017976   5.803   1.009   0.492  0.1737 -0.1554  0.0640
   34MOL    C9117977   5.784   1.197   0.642  0.2972  0.1040  0.7668
   34MOL    C9217978   5.786   1.206   0.798 -0.4703  0.1901 -0.5268
   34MOL    C9317979   5.637   1.229   0.587 -0.1748 -0.5817 -0.2471
   34MOL    H9417980   5.483   0.562   0.732  2.3740 -1.9517  0.1374
   34MOL    H9517981   5.584   0.700   0.785  2.6021 -0.0156 -1.1592
   34MOL    H9617982   5.512   0.703   0.631 -1.4463  1.4037  1.8503
   34MOL    H9717983   5.654   0.497   0.571  1.8705 -0.0711 -0.2578
   34MOL    H9817984   5.716   0.498   0.732 -0.7892 -0.8513  0.8343
   34MOL    H9917985   5.756   0.730   0.531  0.2982 -0.9102 -1.2885
   34MOL   H10017986   5.882   0.613   0.580 -1.4483 -2.2981 -0.2661
   34MOL   H10117987   5.919   0.693   0.803  1.0922 -0.7627 -0.3349
   34MOL   H10217988   5.771   0.790   0.782 -0.8462 -1.4328 -0.1327
   34MOL   H10317989   5.997   0.844   0.579  0.6469  0.3023 -0.0746
   34MOL   H10417990   6.044   0.848   0.744  1.2161 -0.5461 -1.7176
   34MOL   H10517991   5.732   1.130   0.854  1.8029 -1.1701 -0.1482
   34MOL   H10617992   5.757   1.304   0.837 -0.2866  0.0834 -0.1183
   34MOL   H10717993   5.883   1.185   0.842 -0.6374 -0.5368 -0.5001
   34MOL   H10817994   5.618   1.335   0.604  1.1325 -0.3838  0.0264
   34MOL   H10917995   5.642   1.232   0.478  0.7455 -1.2486 -0.2259
   34MOL   C11017996   5.312   1.904   1.071 -1.0126 -0.4845  0.2290
   34MOL   C11117997   5.361   1.825   0.944 -0.2235  0.2371  0.3251
   34MOL   C11217998   5.388   1.672   0.966 -0.3915 -0.2232 -0.3426
   34MOL   C11317999   5.419   1.595   0.833 -0.0691  0.0994 -0.8383
   34MOL   C11418000   5.421   1.439   0.870 -0.3562  0.2325  0.4752
   34MOL   O11518001   5.449   1.361   0.756 -0.6701 -0.3552  0.1880
   34MOL   C11618002   5.457   1.228   0.766  0.0971 -0.4733 -0.3808
   34MOL   O11718003   5.440   1.169   0.874 -0.2314 -0.5357  0.3685
   34MOL   C11818004   5.505   1.157   0.634  0.0413  0.8571 -0.2423
   34MOL   C11918005   5.522   1.001   0.659 -0.0287  0.3216 -0.2596
   34MOL   C12018006   5.401   1.187   0.515 -0.4440  0.1074  0.4570
   34MOL   H12118007   5.316   2.007   1.037 -0.2972 -0.1738  1.2214
   34MOL   H12218008   5.217   1.870   1.113 -0.1083  0.3212  3.0016
   34MOL   H12318009   5.384   1.876   1.148  2.6466  1.1996 -2.4472
   34MOL   H12418010   5.281   1.839   0.872 -1.4240 -0.5004  1.5008
   34MOL   H12518011   5.456   1.868   0.912  0.4503 -0.5354  1.2724
   34MOL   H12618012   5.466   1.659   1.041  1.2391 -0.9831 -2.1136
   34MOL   H12718013   5.295   1.637   1.012 -0.4945 -0.0725 -0.4371
   34MOL   H12818014   5.511   1.636   0.793  2.4796 -4.3653  0.0666
   34MOL   H12918015   5.345   1.622   0.757 -0.3526  0.5170 -0.4193
   34MOL   H13018016   5.499   1.412   0.941 -0.5580 -3.0792 -0.4771
   34MOL   H13118017   5.326   1.410   0.917 -0.0064  0.8847  1.6236
   34MOL   H13218018   5.600   0.977   0.731 -0.2825  1.8150  0.5296
   34MOL   H13318019   5.428   0.955   0.689 -0.2757  1.1105  0.1969
   34MOL   H13418020   5.550   0.948   0.568  0.5863  2.5702 -1.4147
   34MOL   H13518021   5.407   1.295   0.501 -1.1661  0.5694  3.4257
   34MOL   H13618022   5.429   1.126   0.429 -0.2932  0.4371  0.2688
   34MOL   C13718023   4.827   0.589   0.379  0.1014 -0.2832 -0.9460
   34MOL   C13818024   4.899   0.593   0.245  0.1079 -0.2499  0.4515
   34MOL   C13918025   5.049   0.637   0.269  0.1577  0.1429  0.8844
   34MOL   C14018026   5.078   0.783   0.307  1.0225 -0.0431  0.2067
   34MOL   C14118027   5.220   0.806   0.349 -0.3838  0.5089 -0.2137
   34MOL   O14218028   5.247   0.943   0.376  0.5690  0.0715  0.2535
   34MOL   C14318029   5.222   0.992   0.505  0.0212 -0.9045  0.2103
   34MOL   O14418030   5.190   0.928   0.607 -0.4979  0.9324 -0.3143
   34MOL   C14518031   5.244   1.151   0.523  0.0779  0.1557 -0.3781
   34MOL   C14618032   5.190   1.197   0.658 -0.2996  0.7069 -0.5239
   34MOL   C14718033   5.179   1.239   0.406 -0.1944  0.1419 -0.1224
   34MOL   H14818034   4.839   0.680   0.437 -1.0714  0.3459 -1.6694
   34MOL   H14918035   4.871   0.513   0.443  0.6141  0.1633 -0.7652
   34MOL   H15018036   4.721   0.570   0.363 -0.0065 -0.2177 -0.3109
   34MOL   H15118037   4.836   0.655   0.180  0.8425 -0.7750 -0.7934
   34MOL   H15218038   4.891   0.499   0.189 -0.8209  0.4093 -0.5542
   34MOL   H15318039   5.087   0.567   0.343 -0.8486 -2.1710 -0.7547
   34MOL   H15418040   5.108   0.614   0.180 -0.4970  1.2861  0.1542
   34MOL   H15518041   5.037   0.851   0.232 -0.1464 -1.2394 -0.2632
   34MOL   H15618042   5.015   0.810   0.392 -0.6108 -2.2758 -0.2602
   34MOL   H15718043   5.286   0.774   0.268 -0.0570  0.7671 -0.0495
   34MOL   H15818044   5.240   0.743   0.436 -1.2159  0.7078  0.1209
   34MOL   H15918045   5.218   1.132   0.741 -0.7423  0.4276 -0.5899
   34MOL   H16018046   5.082   1.210   0.648 -0.3178  0.7570 -0.2745
   34MOL   H16118047   5.211   1.303   0.674  1.1239  0.4717 -0.7921
   34MOL   H16218048   5.215   1.339   0.427 -2.2360  0.5711  1.4955
   34MOL   H16318049   5.239   1.204   0.322  1.6994 -1.0468  1.6926
   34MOL   C16418050   5.021   1.627   1.016  0.0629 -0.0513 -0.3289
   34MOL   C16518051   4.882   1.621   0.949 -0.2147 -0.0716 -0.3704
   34MOL   C16618052   4.874   1.639   0.796  0.2284 -0.2551 -0.6239
   34MOL   C16718053   4.938   1.525   0.710 -0.2918 -0.2528  0.5305
   34MOL   C16818054   4.907   1.541   0.561 -0.4565  0.0268  0.1141
   34MOL   O16918055   4.987   1.448   0.494 -0.2394 -0.0665 -0.0521
   34MOL   C17018056   4.949   1.324   0.474 -0.1972 -0.3212 -0.4795
   34MOL   O17118057   4.856   1.270   0.532  0.0743  0.2136  0.1084
   34MOL   C17218058   5.031   1.252   0.365  0.6321 -0.0175 -0.2265
   34MOL   C17318059   4.963   1.113   0.350 -0.0242 -0.2408 -0.7271
   34MOL   C17418060   5.040   1.322   0.223  1.9620 -0.4389  0.3906
   34MOL   H17518061   5.097   1.557   0.980  1.6704  1.1973  0.5509
   34MOL   H17618062   5.002   1.581   1.113 -1.6209  2.7448  0.7203
   34MOL   H17718063   5.062   1.728   1.023  0.6003 -0.3831  1.4600
   34MOL   H17818064   4.820   1.694   1.001  0.1781  0.0229 -0.0280
   34MOL   H17918065   4.840   1.523   0.974 -1.1082  0.2896 -0.4312
   34MOL   H18018066   4.772   1.663   0.766  0.3396 -0.4055 -1.1203
   34MOL   H18118067   4.922   1.730   0.760 -0.2739 -0.5630 -2.1022
   34MOL   H18218068   4.894   1.427   0.730 -0.4092 -0.2625  0.2293
   34MOL   H18318069   5.046   1.525   0.725 -0.4331 -1.0048  1.5988
   34MOL   H18418070   4.931   1.641   0.525  1.0649 -0.2030  0.4639
   34MOL   H18518071   4.798   1.536   0.551 -0.4420  0.8702 -0.5590
   34MOL   H18618072   4.862   1.110   0.309 -0.7399  4.3964  0.4895
   34MOL   H18718073   4.955   1.062   0.446 -1.9075 -2.1952 -1.8854
   34MOL   H18818074   5.031   1.053   0.289  0.4582 -2.2361  1.7304
   34MOL   H18918075   5.083   1.418   0.253 -0.3485 -0.0692  2.6931
   34MOL   H19018076   5.112   1.266   0.163 -0.4032 -0.6337 -2.4094
   34MOL   C19118077   4.372   1.168   0.609  0.0817 -0.3465  0.1687
   34MOL   C19218078   4.358   1.319   0.585 -0.1001  0.0373  0.5019
   34MOL   C19318079   4.412   1.375   0.452  0.5337  0.2349 -0.0026
   34MOL   C19418080   4.560   1.360   0.434 -0.2075 -0.4588 -0.0609
   34MOL   C19518081   4.609   1.442   0.312  1.0622  0.0793 -0.3400
   34MOL   O19618082   4.743   1.428   0.270 -0.0225  0.6318 -1.0284
   34MOL   C19718083   4.774   1.330   0.179  0.6044 -0.2605  0.0859
   34MOL   O19818084   4.700   1.243   0.147 -0.0670  0.1046 -0.5170
   34MOL   C19918085   4.921   1.350   0.125  0.4467  0.7553 -0.6384
   34MOL   C20018086   4.932   1.254   0.001 -0.1924 -0.2719  0.0727
   34MOL   C20118087   4.928   1.500   0.083  0.0442 -0.6573  0.2583
   34MOL   H20218088   4.333   1.134   0.706  0.3585  2.7934  1.4470
   34MOL   H20318089   4.325   1.122   0.522  0.1243  0.6439 -0.3821
   34MOL   H20418090   4.480   1.155   0.607  0.4253  2.4526 -2.1297
   34MOL   H20518091   4.401   1.368   0.672 -0.6706 -1.0146  1.3901
   34MOL   H20618092   4.250   1.332   0.591  0.0014  1.4300 -0.4470
   34MOL   H20718093   4.365   1.471   0.432  0.6379 -0.2150 -2.5025
   34MOL   H20818094   4.366   1.304   0.384  1.4636 -0.3056 -0.0769
   34MOL   H20918095   4.606   1.406   0.521 -1.4640  1.5883 -0.4350
   34MOL   H21018096   4.601   1.259   0.423  1.3832 -0.0757  2.0513
   34MOL   H21118097   4.540   1.422   0.230 -0.7261 -0.0387  1.1565
   34MOL   H21218098   4.592   1.548   0.330 -0.8463 -0.1300 -0.7082
   34MOL   H21318099   4.929   1.151   0.036  0.4971 -1.3984 -3.0823
   34MOL   H21418100   5.011   1.277   7.744  0.4766 -1.0716  0.5585
   34MOL   H21518101   4.841   1.261   7.756  0.1935  0.8786 -0.3924
   34MOL   H21618102   4.944   1.558   0.174 -0.0057 -1.4443  0.7702
   34MOL   H21718103   4.825   1.528   0.061 -0.5786  0.2300  3.8712
   34MOL   C21818104   4.401   1.331   7.751  0.4433  0.0607  0.5729
   34MOL   C21918105   4.438   1.421   7.630 -0.1411 -0.0154 -1.0978
   34MOL   C22018106   4.588   1.426   7.612  0.1824  0.3847 -0.2159
   34MOL   C22118107   4.643   1.519   7.503  0.1579 -0.4088 -0.0701
   34MOL   C22218108   4.798   1.500   7.500 -0.1510  0.6201  0.4375
   34MOL   O22318109   4.860   1.553   7.616  0.3982  1.0007  0.1274
   34MOL   C22418110   4.982   1.513   7.648  0.6706 -1.1321  0.2088
   34MOL   O22518111   5.053   1.438   7.575 -0.3214 -0.6080 -0.3514
   34MOL   C22618112   5.027   1.565   7.789 -0.1743  0.1415  0.1758
   34MOL   C22718113   5.179   1.523   7.813 -0.3612  0.1448  0.2084
   34MOL   C22818114   5.015   1.722   7.797 -0.0129 -0.4971 -0.9256
   34MOL   H22918115   4.385   1.225   7.726  0.3762  0.0666  0.5883
   34MOL   H23018116   4.475   1.318   0.015  1.1760  0.6173 -0.0223
   34MOL   H23118117   4.307   1.361   7.797  0.6700 -0.1388  1.1664
   34MOL   H23218118   4.397   1.522   7.629  0.7336  0.4439  2.3243
   34MOL   H23318119   4.389   1.377   7.543 -0.2860 -1.4649 -0.3152
   34MOL   H23418120   4.611   1.322   7.588  1.7491  0.7952 -0.5192
   34MOL   H23518121   4.619   1.452   7.713  1.7498  1.1744 -0.8887
   34MOL   H23618122   4.609   1.477   7.409  0.4648 -0.4613 -0.1560
   34MOL   H23718123   4.616   1.624   7.500 -0.6832 -0.6637 -1.5283
   34MOL   H23818124   4.838   1.547   7.411 -1.2509  0.1645 -0.3172
   34MOL   H23918125   4.819   1.393   7.498  0.3484  0.7465 -2.9720
   34MOL   H24018126   5.219   1.555   0.094  0.5857 -0.2371 -0.0570
   34MOL   H24118127   5.235   1.558   7.726  1.5299  0.1332  1.3939
   34MOL   H24218128   5.191   1.415   7.802 -1.0323  0.0351  0.5444
   34MOL   H24318129   5.052   1.753   0.081 -3.3283  0.5266  0.0454
   34MOL   H24418130   4.911   1.752   7.803  0.2099  0.0362  0.8816
   34MOL   C24518131   5.888   1.930   7.458 -0.0217 -0.4887 -0.6469
   34MOL   C24618132   5.736   1.912   7.451  0.1712  0.2972 -0.6515
   34MOL   C24718133   5.684   1.832   7.577 -0.4025  0.4978  1.4185
   34MOL   C24818134   5.534   1.835   7.562  0.0544  0.3594 -0.1428
   34MOL   C24918135   5.463   1.756   7.670  0.3843  0.4779  0.9049
   34MOL   O25018136   5.323   1.765   7.651  0.2195  0.1153  0.1015
   34MOL   C25118137   5.241   1.837   7.732 -0.4644 -0.5243 -0.0734
   34MOL   O25218138   5.285   1.904   0.012 -0.2142  0.4640 -0.2168
   34MOL   C25318139   5.087   1.832   7.704  0.1778  0.5028 -0.8793
   34MOL   C25418140   5.024   1.958   7.757  0.0949 -0.3156 -0.3123
   34MOL   C25518141   5.056   1.803   7.553  0.3718  0.2107 -0.5403
   34MOL   H25618142   5.921   1.987   7.371  0.6703  1.1371  0.6641
   34MOL   H25718143   5.908   1.985   7.550  1.2385  0.6043 -1.5664
   34MOL   H25818144   5.941   1.835   7.456 -1.3449 -1.2065 -2.5701
   34MOL   H25918145   5.690   2.010   7.438  2.8763  1.6400 -0.4582
   34MOL   H26018146   5.718   1.849   7.365 -3.3771  1.5004 -0.8551
   34MOL   H26118147   5.729   1.875   7.667  1.8064  0.2820  0.4503
   34MOL   H26218148   5.719   1.728   7.570 -0.1526  0.6079  1.0148
   34MOL   H26318149   5.504   1.940   7.564 -1.1274  0.0060  1.6632
   34MOL   H26418150   5.500   1.802   7.463 -0.0123 -0.2086  0.0682
   34MOL   H26518151   5.510   1.657   7.675 -0.3235  0.1551  1.3053
   34MOL   H26618152   5.499   1.796   7.764  1.5213  1.3570  0.1122
   34MOL   H26718153   4.917   1.969   7.738  0.4101  2.0886 -0.8330
   34MOL   H26818154   5.027   1.971   0.051  1.7792  0.4293 -0.4351
   34MOL   H26918155   5.070   2.049   7.720  0.0020 -0.7464 -1.5110
   34MOL   H27018156   5.119   1.721   7.518  0.0925 -0.9288  1.5413
   34MOL   H27118157   4.952   1.771   7.549  0.2644  0.5872 -0.7668
   34MOL   C27218158   4.879   2.748   7.507 -0.0689 -0.4788 -0.2758
   34MOL   C27318159   4.941   2.617   7.541  0.0355  0.3744  0.4058
   34MOL   C27418160   4.866   2.492   7.505  0.2547 -0.2670 -0.3319
   34MOL   C27518161   4.959   2.373   7.537 -0.5340 -0.0090  0.1680
   34MOL   C27618162   4.897   2.240   7.494 -0.4203 -0.3873  0.1797
   34MOL   O27718163   4.995   2.147   7.482 -0.0064 -0.0042 -0.0857
   34MOL   C27818164   4.955   2.016   7.464  0.2460  0.2658 -0.2054
   34MOL   O27918165   4.837   1.983   7.470 -0.5354 -0.0068 -0.4144
   34MOL   C28018166   5.066   1.911   7.439 -0.2730  0.1256 -1.1163
   34MOL   C28118167   5.201   1.988   7.445  0.1923  0.3170 -0.2824
   34MOL   C28218168   5.036   1.841   7.297  1.2469 -1.3331  0.4219
   34MOL   H28318169   4.774   2.765   7.531 -0.0786 -0.5290 -0.2846
   34MOL   H28418170   4.927   2.823   7.570  0.6315 -1.6216  0.5710
   34MOL   H28518171   4.910   2.781   7.408 -0.9202  1.7691  0.1709
   34MOL   H28618172   5.038   2.604   7.493 -0.1304  1.1556 -0.1411
   34MOL   H28718173   4.967   2.615   7.647 -0.0611  2.6918  0.4936
   34MOL   H28818174   4.767   2.494   7.551 -0.6617 -0.8452 -2.2457
   34MOL   H28918175   4.848   2.485   7.398 -2.2031  0.4666  0.0047
   34MOL   H29018176   5.050   2.380   7.477  0.0845 -1.1835  0.9583
   34MOL   H29118177   4.971   2.368   7.645  1.9558  1.1719  0.0053
   34MOL   H29218178   4.852   2.256   7.396 -1.2572  0.7360  0.7331
   34MOL   H29318179   4.817   2.205   7.559 -0.2206 -2.1845 -0.5163
   34MOL   H29418180   5.229   2.044   7.534  0.7359  1.5768 -1.2198
   34MOL   H29518181   5.284   1.919   7.433  1.1784  1.1972  1.3326
   34MOL   H29618182   5.211   2.066   7.369 -2.0620  2.6174  1.6877
   34MOL   H29718183   4.953   1.773   7.315  1.2586 -1.3368  0.4606
   34MOL   H29818184   4.989   1.917   7.234  2.2972 -1.0032  0.0122
   34MOL   C29918185   5.104   2.536   7.183 -0.2688 -0.4931 -0.2754
   34MOL   C30018186   5.192   2.453   7.087  0.3089 -1.1259  0.3179
   34MOL   C30118187   5.204   2.314   7.140  0.9165  0.7049  0.2291
   34MOL   C30218188   5.232   2.212   7.025  0.8837  0.3413 -0.1198
   34MOL   C30318189   5.297   2.083   7.072 -0.1242 -0.3981 -0.3093
   34MOL   O30418190   5.208   2.000   7.134 -0.2086 -0.1179 -0.4088
   34MOL   C30518191   5.257   1.880   7.167  0.1745 -0.2198  0.6144
   34MOL   O30618192   5.379   1.847   7.171 -0.2932  0.7679  0.4427
   34MOL   C30718193   5.146   1.775   7.205 -0.2560 -1.6108  0.6422
   34MOL   C30818194   5.220   1.672   7.290  0.3285 -0.2472  0.5896
   34MOL   C30918195   5.079   1.683   7.082 -0.6901  0.1746  0.4858
   34MOL   H31018196   5.001   2.502   7.174 -0.1788 -0.6327 -0.8121
   34MOL   H31118197   5.110   2.643   7.162 -0.4634 -0.4662 -0.1958
   34MOL   H31218198   5.145   2.525   7.283 -0.6572  0.5087 -0.0017
   34MOL   H31318199   5.291   2.498   7.087 -0.2299  0.0650  1.2416
   34MOL   H31418200   5.147   2.453   6.987 -0.3251  0.0149  0.5961
   34MOL   H31518201   5.101   2.293   7.170  1.2977 -0.1488  0.9560
   34MOL   H31618202   5.266   2.316   7.229 -0.3156  2.4119  1.0752
   34MOL   H31718203   5.296   2.266   6.956  1.6498 -0.7463 -0.2731
   34MOL   H31818204   5.145   2.196   6.961  1.1324 -2.1918  0.1279
   34MOL   H31918205   5.332   2.037   6.980  2.9151 -0.2471  0.7180
   34MOL   H32018206   5.386   2.092   7.135 -1.0689  2.6447  0.6843
   34MOL   H32118207   5.273   1.607   7.221  2.2664  1.0204  0.8630
   34MOL   H32218208   5.292   1.712   7.362 -1.8471  0.6892  2.3088
   34MOL   H32318209   5.151   1.607   7.346 -0.7370 -1.1806 -1.7419
   34MOL   H32418210   4.980   1.657   7.121  0.1807 -0.6990  2.1922
   34MOL   H32518211   5.134   1.589   7.081 -0.7306  0.1490  0.6496
   34MOL   C32618212   5.356   1.193   6.684  0.0303  0.1145  0.3824
   34MOL   C32718213   5.420   1.281   6.793 -0.4503  0.2292 -0.0932
   34MOL   C32818214   5.424   1.427   6.761  0.4204 -0.5918  0.1633
   34MOL   C32918215   5.470   1.504   6.884 -0.4178 -0.5018 -0.4957
   34MOL   C33018216   5.430   1.645   6.888  0.0239  0.3284  0.2601
   34MOL   O33118217   5.294   1.652   6.907  0.4076 -0.1491  0.6671
   34MOL   C33218218   5.216   1.756   6.885 -0.5774  0.1330 -0.1417
   34MOL   O33318219   5.259   1.866   6.837 -0.0654  0.5401 -0.1934
   34MOL   C33418220   5.069   1.737   6.937  0.1848 -0.7126  0.1467
   34MOL   C33518221   4.996   1.622   6.850  0.3911  0.8011  0.9656
   34MOL   C33618222   4.976   1.867   6.937 -0.2047  1.2493 -0.6862
   34MOL   H33718223   5.344   1.089   6.714  0.3765  0.0291  0.2257
   34MOL   H33818224   5.431   1.184   6.606  0.5843 -1.0556  1.0412
   34MOL   H33918225   5.262   1.235   6.648 -0.0118 -1.1808 -1.0473
   34MOL   H34018226   5.519   1.251   6.826 -0.4304 -0.0437 -0.4010
   34MOL   H34118227   5.357   1.271   6.882 -1.5587 -0.2402 -0.9073
   34MOL   H34218228   5.323   1.463   6.738  0.7422 -0.2263 -0.6675
   34MOL   H34318229   5.478   1.442   6.668 -0.0269  0.2701  0.0400
   34MOL   H34418230   5.577   1.504   6.905 -0.7079  1.1080  1.0583
   34MOL   H34518231   5.415   1.468   6.971 -3.1102  0.1924 -1.8379
   34MOL   H34618232   5.455   1.688   6.792  2.7383  0.3074  0.9244
   34MOL   H34718233   5.482   1.700   6.967  0.6868 -1.5950  1.2020
   34MOL   H34818234   4.894   1.611   6.885  1.1229 -1.9712  2.3657
   34MOL   H34918235   5.050   1.528   6.860  1.8134  1.5383  0.3904
   34MOL   H35018236   4.997   1.635   6.742 -1.3228 -1.7165  0.6221
   34MOL   H35118237   5.038   1.944   6.984 -1.8184  0.3095  3.2139
   34MOL   H35218238   4.893   1.846   7.005 -0.8126  0.6148 -1.6229
   34MOL   C35318239   4.320   1.633   6.811  0.2923  0.2749  0.5947
   34MOL   C35418240   4.421   1.659   6.702 -0.7158  0.2587  0.7456
   34MOL   C35518241   4.548   1.585   6.740  0.3988  0.2087  0.1418
   34MOL   C35618242   4.651   1.584   6.620 -0.8777 -0.1260  0.4560
   34MOL   C35718243   4.704   1.721   6.582  0.0385  1.0108  0.3841
   34MOL   O35818244   4.812   1.770   6.655 -0.3636 -0.1675  0.0464
   34MOL   C35918245   4.796   1.852   6.766 -0.4283 -0.3005 -0.4091
   34MOL   O36018246   4.689   1.864   6.825 -0.0738  0.0565  0.1222
   34MOL   C36118247   4.912   1.941   6.803  1.3035 -0.3353 -0.4088
   34MOL   C36218248   5.006   1.961   6.682  0.0612 -0.0924 -0.2565
   34MOL   C36318249   4.848   2.082   6.851  0.0721 -0.4066  0.6173
   34MOL   H36418250   4.355   1.676   6.905 -2.9735  0.2021  1.9394
   34MOL   H36518251   4.300   1.526   6.820 -0.4702  0.4033  0.4587
   34MOL   H36618252   4.219   1.670   6.794  0.5871  0.9970  0.3923
   34MOL   H36718253   4.388   1.626   6.604  1.1890  1.7784 -0.4455
   34MOL   H36818254   4.447   1.762   6.676 -0.4003  0.6397  2.4411
   34MOL   H36918255   4.522   1.481   6.760 -0.5451  0.1722 -1.2048
   34MOL   H37018256   4.581   1.612   6.840 -2.2766  0.4475  0.9873
   34MOL   H37118257   4.602   1.545   6.531 -1.6360  1.4875  0.1459
   34MOL   H37218258   4.734   1.515   6.639  0.5235  1.7781  1.4769
   34MOL   H37318259   4.750   1.714   6.483  0.2290  1.3272  0.4510
   34MOL   H37418260   4.624   1.794   6.573 -1.3547 -0.5771 -0.2067
   34MOL   H37518261   5.083   2.036   6.702 -0.2791  0.4895 -1.0988
   34MOL   H37618262   5.059   1.867   6.666 -0.1659  0.0193 -1.6746
   34MOL   H37718263   4.966   1.976   6.582 -0.1425 -0.7004 -0.2639
   34MOL   H37818264   4.784   2.058   6.936 -1.0512  1.9171  0.4563
   34MOL   H37918265   4.927   2.145   6.893 -0.0832  1.5369 -1.9117
   34MOL   C38018266   4.497   2.697   6.451  0.1771 -0.3259 -0.2025
   34MOL   C38118267   4.630   2.749   6.526  0.7871  0.1639 -0.2799
   34MOL   C38218268   4.705   2.632   6.585 -0.3030 -0.2252 -0.2823
   34MOL   C38318269   4.798   2.564   6.473  0.1645  0.3369  0.7290
   34MOL   C38418270   4.897   2.464   6.527  0.1791 -0.0803 -0.9943
   34MOL   O38518271   4.827   2.379   6.617 -0.0026 -0.2689 -0.1881
   34MOL   C38618272   4.885   2.280   6.686 -0.1032  0.6309  0.3323
   34MOL   O38718273   5.006   2.260   6.680 -0.7486  0.2812  0.7212
   34MOL   C38818274   4.777   2.189   6.757  0.0755  0.3599  0.8450
   34MOL   C38918275   4.711   2.114   6.638 -0.0796 -0.1542 -0.6486
   34MOL   C39018276   4.670   2.282   6.826  0.7837  0.3988  0.3013
   34MOL   H39118277   4.426   2.775   6.422 -0.8501 -0.8877  0.7844
   34MOL   H39218278   4.534   2.642   6.364 -2.0844  1.1715 -2.1867
   34MOL   H39318279   4.437   2.634   6.516  0.9565 -0.1298  0.7144
   34MOL   H39418280   4.594   2.817   6.604 -0.3816  2.6164 -2.8527
   34MOL   H39518281   4.688   2.800   6.449  0.0998 -0.3444 -1.1385
   34MOL   H39618282   4.758   2.668   6.674 -0.3356 -1.5361  0.2970
   34MOL   H39718283   4.637   2.561   6.632 -0.3656  1.1426  1.7395
   34MOL   H39818284   4.734   2.515   6.399 -0.5614 -0.5000  1.8882
   34MOL   H39918285   4.844   2.640   6.409  1.0740 -0.4615  0.4371
   34MOL   H40018286   4.965   2.528   6.582  0.5097  0.4164 -1.9739
   34MOL   H40118287   4.951   2.423   6.442 -0.1979  1.4053 -1.9701
   34MOL   H40218288   4.623   2.052   6.655  1.2146 -1.3091  2.2948
   34MOL   H40318289   4.785   2.071   6.571 -0.3531  1.5129 -2.0570
   34MOL   H40418290   4.677   2.181   6.559 -1.5222  0.0338  0.1255
   34MOL   H40518291   4.593   2.213   6.859 -0.2693  0.8121 -1.2470
   34MOL   H40618292   4.614   2.335   6.749 -0.8538 -0.7724  0.6645
   34MOL   C40718293   4.650   1.699   7.136 -0.0240 -0.1276 -0.1075
   34MOL   C40818294   4.627   1.831   7.220  0.3613 -0.5192 -0.3731
   34MOL   C40918295   4.529   1.936   7.153 -0.3231  0.4960 -0.1747
   34MOL   C41018296   4.503   2.062   7.248 -0.3427 -0.6891  0.0493
   34MOL   C41118297   4.627   2.153   7.247  0.5311  1.0913 -0.5768
   34MOL   O41218298   4.619   2.224   7.126  0.7481  0.4168  0.2692
   34MOL   C41318299   4.730   2.291   7.080 -0.4524  0.7529  0.7272
   34MOL   O41418300   4.836   2.295   7.142  0.1197  0.6677  0.1302
   34MOL   C41518301   4.702   2.375   6.953 -0.5751  0.4847  0.8714
   34MOL   C41618302   4.824   2.461   6.924 -0.2951  0.1404 -0.6686
   34MOL   C41718303   4.579   2.464   6.981 -0.0793  0.1700  0.3971
   34MOL   H41818304   4.693   1.711   7.037 -1.8772 -0.0927 -0.9373
   34MOL   H41918305   4.701   1.623   7.195  2.0987  1.0350 -0.4138
   34MOL   H42018306   4.553   1.654   7.112 -0.9157  1.8795 -0.3805
   34MOL   H42118307   4.731   1.860   7.234 -0.2585  1.1642  0.8717
   34MOL   H42218308   4.586   1.800   7.316  3.4063  1.1936  1.5443
   34MOL   H42318309   4.564   1.966   7.054 -3.4107  4.1498 -0.2851
   34MOL   H42418310   4.432   1.886   7.142 -0.2482  0.1411  0.7129
   34MOL   H42518311   4.487   2.023   7.348 -1.5652  0.6639  0.3968
   34MOL   H42618312   4.420   2.130   7.228 -0.3730 -1.1560 -1.5459
   34MOL   H42718313   4.639   2.235   7.318  0.7855  1.8701 -1.4931
   34MOL   H42818314   4.712   2.086   7.258  0.4469  1.0971  0.1344
   34MOL   H42918315   4.836   2.532   7.006 -0.7621  0.3464 -0.7750
   34MOL   H43018316   4.814   2.521   6.834 -3.4266 -1.1740 -1.2607
   34MOL   H43118317   4.918   2.406   6.919  0.7384  1.8443 -0.4628
   34MOL   H43218318   4.505   2.388   7.006  0.6850 -0.9928 -0.7853
   34MOL   H43318319   4.542   2.489   6.882 -0.1584 -0.8247  0.1653
   34MOL   C43418320   5.021   3.299   7.300 -0.1298 -0.2734 -0.4193
   34MOL   C43518321   4.946   3.163   7.296 -0.1865 -0.7915  0.8786
   34MOL   C43618322   4.866   3.126   7.162  0.0416 -1.0171  0.3943
   34MOL   C43718323   4.812   2.982   7.164  0.5550  0.4344 -0.0659
   34MOL   C43818324   4.728   2.924   7.045  0.0026  0.0491 -0.3942
   34MOL   O43918325   4.668   2.807   7.091 -0.1304  0.1132  0.1874
   34MOL   C44018326   4.621   2.708   7.004 -0.0001 -0.4713 -0.1153
   34MOL   O44118327   4.632   2.716   6.886 -0.0956 -0.1217 -0.7298
   34MOL   C44218328   4.561   2.584   7.077  0.4357 -0.6741  0.4060
   34MOL   C44318329   4.636   2.556   7.213 -0.3404  0.4148  0.2131
   34MOL   C44418330   4.405   2.603   7.112 -0.2320 -0.2280 -0.2182
   34MOL   H44518331   5.099   3.295   7.223  1.2418 -1.5169  1.0052
   34MOL   H44618332   4.956   3.379   7.262 -0.0668  1.1057  2.2629
   34MOL   H44718333   5.066   3.330   7.394  0.9402 -0.6237 -0.8017
   34MOL   H44818334   5.036   3.101   7.302  0.6809  0.4712  0.9371
   34MOL   H44918335   4.889   3.145   7.387 -2.1254 -0.4165 -0.2479
   34MOL   H45018336   4.778   3.190   7.163  2.1071  1.9306  1.7667
   34MOL   H45118337   4.921   3.131   7.068 -2.7395  1.8343 -1.2020
   34MOL   H45218338   4.749   2.965   7.251 -1.8603  1.2165 -1.6158
   34MOL   H45318339   4.890   2.910   7.186  0.3791  0.2789  0.0427
   34MOL   H45418340   4.794   2.896   6.964 -0.6473 -0.7173 -0.6702
   34MOL   H45518341   4.655   3.004   7.038 -0.3473 -0.1842  0.4640
   34MOL   H45618342   4.744   2.553   7.204 -0.3284 -2.8525  1.0150
   34MOL   H45718343   4.617   2.636   7.285 -2.3966  0.4804 -0.3495
   34MOL   H45818344   4.623   2.457   7.256  2.7101 -0.8933 -1.7318
   34MOL   H45918345   4.401   2.700   7.163 -1.7117 -1.8059  2.8332
   34MOL   H46018346   4.392   2.534   7.195 -1.5684 -1.7414 -1.6625
   34MOL   C46118347   4.200   1.999   6.673  0.7472 -0.1619  0.0042
   34MOL   C46218348   4.162   1.980   6.825  0.1193  0.6100 -0.1054
   34MOL   C46318349   4.285   2.015   6.917  0.1782 -0.3726  0.9835
   34MOL   C46418350   4.320   2.161   6.941  0.6311  0.0732 -0.2315
   34MOL   C46518351   4.220   2.242   7.021  0.8128 -0.1495 -0.8617
   34MOL   O46618352   4.256   2.373   7.057 -0.2837 -0.2465  0.6494
   34MOL   C46718353   4.245   2.472   6.964  0.3048  0.1706  0.1341
   34MOL   O46818354   4.195   2.450   6.847 -0.0593  0.6395 -0.2364
   34MOL   C46918355   4.284   2.610   7.016 -0.5803  0.1580 -0.3820
   34MOL   C47018356   4.309   2.701   6.887 -0.8178  0.3500 -0.1539
   34MOL   C47118357   4.167   2.654   7.111  0.5409  0.3344  0.4165
   34MOL   H47218358   4.278   1.926   6.650  0.2617 -0.0980 -1.9266
   34MOL   H47318359   4.234   2.097   6.642  0.2367  0.3252  0.9576
   34MOL   H47418360   4.117   1.974   6.607  1.6404  0.4286 -1.3503
   34MOL   H47518361   4.128   1.877   6.836  1.6502  0.0045 -0.8080
   34MOL   H47618362   4.077   2.040   6.856  1.4335  2.8525 -0.7042
   34MOL   H47718363   4.374   1.971   6.874 -0.3432 -1.0115  0.5411
   34MOL   H47818364   4.270   1.973   7.017 -1.7120  0.6596  1.1747
   34MOL   H47918365   4.348   2.213   6.850  1.3506  0.5212  0.2288
   34MOL   H48018366   4.414   2.180   6.994  0.6205  1.8340 -0.8249
   34MOL   H48118367   4.124   2.259   6.973 -0.1843  0.3919  1.2598
   34MOL   H48218368   4.195   2.191   7.114  2.0780  0.8543  0.0683
   34MOL   H48318369   4.388   2.652   6.831 -0.8606  0.3641 -0.2257
   34MOL   H48418370   4.347   2.796   6.926  0.6609 -0.2717 -0.0534
   34MOL   H48518371   4.224   2.711   6.820 -1.0554 -0.5072  0.0182
   34MOL   H48618372   4.193   2.760   7.122 -0.2399  0.4621  1.0781
   34MOL   H48718373   4.186   2.624   7.214  0.1073 -0.8577  0.1557
   34MOL   C48818374   3.712   1.987   7.533 -0.0290 -0.2714  0.2579
   34MOL   C48918375   3.721   2.121   7.466 -0.4398 -0.2457 -0.0944
   34MOL   C49018376   3.861   2.158   7.421  0.3129  0.1269 -0.1958
   34MOL   C49118377   3.879   2.298   7.359  0.2736 -0.1844  0.3032
   34MOL   C49218378   3.996   2.324   7.274 -0.0039  0.1934  0.7497
   34MOL   O49318379   4.001   2.461   7.235 -0.1946  1.0853  0.1526
   34MOL   C49418380   3.955   2.502   7.118 -0.2047  0.0189 -0.2774
   34MOL   O49518381   3.885   2.439   7.041  0.5382 -0.1948 -0.2092
   34MOL   C49618382   4.009   2.647   7.087  0.4452  0.7956 -0.5013
   34MOL   C49718383   3.982   2.688   6.937  0.2201  0.6907  0.0978
   34MOL   C49818384   3.962   2.744   7.206 -0.3091 -0.3920  0.1253
   34MOL   H49918385   3.789   1.990   7.610  0.0047 -0.0419  0.2146
   34MOL   H50018386   3.617   1.958   7.578  0.2964  0.1715  1.2468
   34MOL   H50118387   3.737   1.917   7.453  0.2024 -1.0066  0.9629
   34MOL   H50218388   3.688   2.204   7.529  2.0015  2.9275 -2.7731
   34MOL   H50318389   3.654   2.133   7.381 -0.4363  0.4975  0.0025
   34MOL   H50418390   3.927   2.147   7.507  0.4233 -0.7968 -0.3948
   34MOL   H50518391   3.892   2.082   7.349 -0.6121 -1.7375  1.3396
   34MOL   H50618392   3.882   2.371   7.440 -0.9771 -0.2038  0.3752
   34MOL   H50718393   3.792   2.321   7.297  0.1186 -0.0425  0.5736
   34MOL   H50818394   4.087   2.313   7.333 -0.3693 -0.7399  1.1562
   34MOL   H50918395   4.012   2.265   7.184 -0.2189  0.2435  0.6794
   34MOL   H51018396   4.016   2.622   6.857 -2.6772  0.5874 -1.1248
   34MOL   H51118397   4.030   2.784   6.922 -1.6457  1.6765  0.2398
   34MOL   H51218398   3.876   2.681   6.913  1.1293 -0.9164 -3.7951
   34MOL   H51318399   4.001   2.843   7.182 -0.8052  0.4176  2.5543
   34MOL   H51418400   4.014   2.720   7.298  0.6231  1.1994  0.0262
   34MOL   C51518401   3.596   3.426   6.750  0.8928 -0.0075  0.0177
   34MOL   C51618402   3.707   3.357   6.815 -0.2246 -0.6581 -0.3755
   34MOL   C51718403   3.689   3.205   6.820  0.6443 -0.0494 -0.5022
   34MOL   C51818404   3.771   3.151   6.933 -0.1754  0.1215 -0.1481
   34MOL   C51918405   3.727   3.000   6.956 -0.5183 -0.4675 -0.2639
   34MOL   O52018406   3.793   2.943   7.063  0.2995 -0.0944 -0.2965
   34MOL   C52118407   3.745   2.827   7.104  0.2901  0.6421  0.4762
   34MOL   O52218408   3.671   2.755   7.039  0.3879 -0.1685 -0.0237
   34MOL   C52318409   3.810   2.777   7.235 -0.5986  0.7031  0.1339
   34MOL   C52418410   3.807   2.892   7.341 -0.4584 -0.2008  1.1872
   34MOL   C52518411   3.731   2.665   7.302 -0.8534  0.1955  0.3194
   34MOL   H52618412   3.499   3.412   6.799  0.4611 -1.6738 -1.2564
   34MOL   H52718413   3.618   3.532   6.739  1.9917 -0.1397  0.7998
   34MOL   H52818414   3.584   3.381   6.651 -2.6853  0.8406 -0.0149
   34MOL   H52918415   3.798   3.388   6.764  0.7979 -1.4242  0.9508
   34MOL   H53018416   3.728   3.404   6.911  1.0632 -0.8394 -0.5605
   34MOL   H53118417   3.584   3.179   6.831  0.4686  0.7208 -0.3270
   34MOL   H53218418   3.722   3.150   6.732  0.7504 -0.8774  0.0486
   34MOL   H53318419   3.753   3.205   7.026 -0.5529 -0.0374 -0.1319
   34MOL   H53418420   3.877   3.164   6.908 -0.4365  1.3404 -0.6036
   34MOL   H53518421   3.618   3.000   6.964 -0.4222  0.6637  1.2177
   34MOL   H53618422   3.759   2.938   6.872 -1.6020  1.2987 -2.0497
   34MOL   H53718423   3.704   2.924   7.361  0.0578  2.5143 -0.2476
   34MOL   H53818424   3.868   2.978   7.314 -0.4102 -0.3777  0.7381
   34MOL   H53918425   3.839   2.848   7.435 -2.0639  0.0325  1.8757
   34MOL   H54018426   3.732   2.574   7.241 -1.7039 -0.6687  1.5551
   34MOL   H54118427   3.627   2.695   7.314 -0.9651  0.2064 -0.6003
   34MOL   H54218428   3.773   2.630   7.396  0.7602 -0.2933 -0.5466
   35MOL     C118429   0.441   0.703   3.295 -0.1608  0.3600  0.0081
   35MOL     C218430   0.308   0.631   3.333 -0.8205  0.1772 -0.3738
   35MOL     C318431   0.308   0.577   3.479 -0.5457 -0.3478  0.2820
   35MOL     C418432   0.187   0.491   3.521  0.0126 -0.8011  0.1976
   35MOL     C518433   0.197   0.444   3.666  1.0079 -0.1649  0.4324
   35MOL     O618434   0.319   0.395   3.696  0.2201 -0.0141 -0.5001
   35MOL     C718435   0.360   0.373   3.818  0.3828  0.3963 -0.1663
   35MOL     O818436   0.294   0.404   3.916  0.5580 -0.0091  0.4939
   35MOL     C918437   0.492   0.295   3.833  0.3057  0.8463 -0.7584
   35MOL    C1018438   0.603   0.359   3.753 -0.1317 -0.4826 -0.4192
   35MOL    C1118439   0.484   0.145   3.798 -0.0416 -0.3249  0.3712
   35MOL    H1218440   0.426   0.744   3.195 -1.7779  0.6945  0.3769
   35MOL    H1318441   0.525   0.634   3.294  1.6312  2.4803 -1.1933
   35MOL    H1418442   0.462   0.792   3.354  3.2599  0.1525 -0.7787
   35MOL    H1518443   0.221   0.696   3.323 -2.2979 -1.7436 -0.2107
   35MOL    H1618444   0.302   0.548   3.264  1.9811  1.1411 -1.8798
   35MOL    H1718445   0.397   0.514   3.489  0.0658  0.5343  0.4659
   35MOL    H1818446   0.319   0.655   3.554  1.9938  0.6146 -1.0288
   35MOL    H1918447   0.181   0.408   3.450 -0.6113 -1.3976  0.9437
   35MOL    H2018448   0.098   0.553   3.517  0.9244  0.5803  0.8891
   35MOL    H2118449   0.174   0.530   3.728  0.2725 -1.2760  1.7149
   35MOL    H2218450   0.133   0.359   3.689  1.9705 -0.5137  1.8660
   35MOL    H2318451   0.612   0.327   3.649  0.0043 -1.7402 -0.0246
   35MOL    H2418452   0.689   0.323   3.809 -1.4342 -2.9931  0.0249
   35MOL    H2518453   0.615   0.467   3.759 -2.0969 -0.1907 -1.3515
   35MOL    H2618454   0.589   0.123   3.779 -0.5412 -1.1512 -1.4760
   35MOL    H2718455   0.450   0.126   3.697  2.6978 -1.5291 -0.3898
   35MOL    H2818456   0.528   0.305   3.935  2.0771 -0.1227 -1.2557
   35MOL    C2918457   7.504   0.407   4.241  0.0294  0.0049 -0.4111
   35MOL    C3018458   7.645   0.395   4.190 -0.2699  0.0195  0.6771
   35MOL    C3118459   7.693   0.248   4.175  0.1724 -1.1293  0.7075
   35MOL    C3218460   0.008   0.242   4.082  0.7595 -0.2330  0.4733
   35MOL    C3318461   0.072   0.096   4.076 -0.4504 -0.1956 -0.0599
   35MOL    O3418462   0.209   0.112   4.040  0.6447  0.6628  0.3642
   35MOL    C3518463   0.266   0.071   3.914 -0.1553 -0.3858 -0.2960
   35MOL    O3618464   0.200   0.059   3.810  0.1853  0.2198 -0.4492
   35MOL    C3718465   0.416   0.047   3.911  0.1025  0.3469  0.2731
   35MOL    C3818466   0.469   0.077   4.054  0.3465 -0.2740  0.7062
   35MOL    C3918467   0.446   7.716   3.859 -0.4671  0.2429 -0.0738
   35MOL    H4018468   7.491   0.377   4.345  1.5923  0.8232  0.0325
   35MOL    H4118469   7.480   0.512   4.227 -0.2053 -0.0528 -0.4499
   35MOL    H4218470   7.440   0.347   4.176  0.8338  0.1333 -1.3460
   35MOL    H4318471   7.707   0.440   4.267 -1.5965 -0.1904  1.8879
   35MOL    H4418472   7.657   0.443   4.093 -0.5107  0.9750  1.1169
   35MOL    H4518473   7.615   0.176   4.151  0.6466 -2.2780  2.5350
   35MOL    H4618474   7.728   0.228   4.276  1.9518  0.7114  0.4853
   35MOL    H4718475   7.804   0.268   3.978  0.7312  1.5530  0.9238
   35MOL    H4818476   0.080   0.316   4.116 -2.4844  2.3642  1.9391
   35MOL    H4918477   0.026   0.034   4.000  0.8258  0.2644 -1.2377
   35MOL    H5018478   0.064   0.042   4.170 -0.3524 -0.0101  0.0572
   35MOL    H5118479   0.449   0.176   4.095  0.7790 -0.1565  0.6355
   35MOL    H5218480   0.575   0.055   4.065  1.1671  2.5047 -0.9959
   35MOL    H5318481   0.423   0.005   4.122 -0.9854  0.7179  0.8936
   35MOL    H5418482   0.550   7.708   3.828  0.2360 -2.0183  2.6229
   35MOL    H5518483   0.391   7.693   3.768  0.6970  1.9216 -1.2412
   35MOL    C5618484   1.183   7.700   3.946 -0.7338  0.1504 -0.2849
   35MOL    C5718485   1.081   7.633   3.857  0.2317  0.2601  0.4844
   35MOL    C5818486   0.940   7.641   3.909  0.4080  0.4345 -0.3965
   35MOL    C5918487   0.904   7.542   4.008  0.4463 -0.4083  0.1499
   35MOL    C6018488   0.778   7.568   4.085  0.6058 -0.8522  0.4242
   35MOL    O6118489   0.667   7.572   4.002 -0.0223 -0.0818 -0.7427
   35MOL    C6218490   0.545   7.579   4.051  0.4841 -0.4812 -0.6851
   35MOL    O6318491   0.516   7.583   4.171 -0.2807  0.0772  0.3656
   35MOL    C6418492   0.430   7.581   3.947 -0.3822  0.4919  0.0446
   35MOL    C6518493   0.450   7.464   3.849  0.1028 -0.2713 -1.1140
   35MOL    C6618494   0.280   7.578   3.996 -0.4237 -0.4037  0.0094
   35MOL    H6718495   1.180   7.654   4.045  0.1833  2.2542  0.7566
   35MOL    H6818496   1.165   7.806   3.968 -0.4019 -0.1415  1.4945
   35MOL    H6918497   1.285   7.701   3.909  0.2017  1.1300  2.1801
   35MOL    H7018498   1.097   7.685   3.763  3.6062  0.1801  0.9491
   35MOL    H7118499   1.112   7.530   3.840  1.1411  0.3667  1.4036
   35MOL    H7218500   0.926   7.739   3.955  0.2642  1.2043 -2.0435
   35MOL    H7318501   0.869   7.631   3.828 -1.1965 -1.1089  1.1533
   35MOL    H7418502   0.989   7.532   4.076  0.5490  3.3334  0.6430
   35MOL    H7518503   0.891   7.441   3.968  1.4184 -0.8774  1.0010
   35MOL    H7618504   0.769   7.478   4.146 -1.4163  0.4113  2.0350
   35MOL    H7718505   0.776   7.656   4.149  1.1405  0.6863 -1.6062
   35MOL    H7818506   0.376   7.462   3.769  0.7188 -0.1827 -1.6961
   35MOL    H7918507   0.445   7.364   3.892  0.4962  0.3756  0.4733
   35MOL    H8018508   0.534   7.482   3.782  0.4772  2.0292 -0.0694
   35MOL    H8118509   0.221   7.633   3.923  2.1048  2.9102  0.3436
   35MOL    H8218510   0.277   7.648   4.080  1.7681 -0.0998 -0.1154
   35MOL    C8318511   7.386   7.341   3.797  0.3252  0.5611 -0.0419
   35MOL    C8418512   7.509   7.260   3.788  0.5340 -0.1693 -0.0477
   35MOL    C8518513   7.638   7.334   3.751 -0.0103 -0.1954  0.1769
   35MOL    C8618514   7.757   7.232   3.759 -0.1522 -0.0284  0.1563
   35MOL    C8718515   0.072   7.309   3.722 -0.3528  0.1328 -0.8540
   35MOL    O8818516   0.110   7.391   3.829  0.5337 -0.4853  0.3167
   35MOL    C8918517   0.170   7.338   3.944 -0.9946 -0.2761  0.4951
   35MOL    O9018518   0.203   7.221   3.960 -0.3579 -0.1372  0.0461
   35MOL    C9118519   0.207   7.444   4.049 -0.5242 -0.8189 -0.6598
   35MOL    C9218520   0.297   7.383   4.158  0.1132 -0.0169 -0.6004
   35MOL    C9318521   0.072   7.499   4.117  0.4602 -0.0246 -0.1945
   35MOL    H9418522   7.298   7.280   3.820 -1.5303  2.1203 -2.6173
   35MOL    H9518523   7.397   7.409   3.880  0.8800  0.4554 -0.0284
   35MOL    H9618524   7.360   7.392   3.704 -0.2569  1.5092  0.6375
   35MOL    H9718525   7.501   7.169   3.729  0.5044 -1.0845  1.3403
   35MOL    H9818526   7.522   7.210   3.884  1.9347 -1.5448 -0.9290
   35MOL    H9918527   7.669   7.409   3.823  0.7595 -1.4358  1.1672
   35MOL   H10018528   7.627   7.391   3.659 -2.1352  1.4754  1.4092
   35MOL   H10118529   7.753   7.151   3.686  0.0932  0.9911 -1.0002
   35MOL   H10218530   7.767   7.177   3.853 -0.6903  0.0555  0.2622
   35MOL   H10318531   0.058   7.356   3.625 -2.6873  1.6280  0.1516
   35MOL   H10418532   0.143   7.228   3.709 -0.8972 -0.6184  0.7385
   35MOL   H10518533   0.393   7.351   4.117  1.0099 -1.0774  2.1752
   35MOL   H10618534   0.261   7.293   4.208  0.9418 -0.1088 -0.1605
   35MOL   H10718535   0.325   7.453   4.237 -1.3432  1.1100 -1.0757
   35MOL   H10818536   0.081   7.606   4.136 -1.0675  0.2955 -1.1632
   35MOL   H10918537   7.813   7.495   4.035 -0.3795  0.9768  0.4890
   35MOL   C11018538   0.522   0.117   4.471  0.2370 -0.0738  0.0138
   35MOL   C11118539   0.529   7.793   4.539 -0.3294 -0.1320 -0.4854
   35MOL   C11218540   0.393   7.740   4.577  0.2468 -0.1287 -0.3105
   35MOL   C11318541   0.305   7.704   4.460  0.2450 -0.0131 -0.2733
   35MOL   C11418542   0.193   7.604   4.505  0.6470  0.6290  0.1732
   35MOL   O11518543   0.110   7.569   4.397  0.4858 -0.1437 -0.2859
   35MOL   C11618544   0.080   7.441   4.366 -0.5584  0.1425  0.8287
   35MOL   O11718545   0.121   7.347   4.431  0.3381 -0.4397  0.5127
   35MOL   C11818546   7.801   7.426   4.234 -0.5861 -0.7926  0.0358
   35MOL   C11918547   7.781   7.285   4.203  0.3978 -0.0115 -0.0684
   35MOL   C12018548   7.670   7.512   4.260  0.1472  0.1239  0.6196
   35MOL   H12118549   0.476   0.199   4.527  0.7456  1.1380 -1.3141
   35MOL   H12218550   0.620   0.144   4.432  0.3552  1.1307  1.0937
   35MOL   H12318551   0.451   0.102   4.390 -0.2303 -0.6313  0.5198
   35MOL   H12418552   0.582   7.721   4.476 -0.8699 -0.1066 -0.9718
   35MOL   H12518553   0.591   7.795   4.628 -1.8411 -1.0405  0.6193
   35MOL   H12618554   0.402   7.653   4.642 -0.9736 -0.9118 -1.1828
   35MOL   H12718555   0.348   7.805   4.653 -3.4507 -1.2706 -1.4344
   35MOL   H12818556   0.369   7.653   4.388  1.4735 -2.0065  2.1661
   35MOL   H12918557   0.249   7.792   4.425 -0.8678 -1.2895 -1.7741
   35MOL   H13018558   0.242   7.514   4.542 -2.6137 -1.6669 -0.8292
   35MOL   H13118559   0.126   7.638   4.585  1.4375  1.5074  0.4659
   35MOL   H13218560   7.721   7.235   4.279 -1.8076  1.5005 -0.7626
   35MOL   H13318561   7.742   7.257   4.105  2.4785  0.0463 -0.9324
   35MOL   H13418562   0.064   7.237   4.204 -0.2865 -1.3982  0.8073
   35MOL   H13518563   7.707   7.614   4.267  1.8879 -0.0921 -3.9033
   35MOL   H13618564   7.615   7.516   4.166  1.0326 -1.3867  0.0048
   35MOL   C13718565   7.112   6.844   4.014 -0.1133 -0.7247  0.2104
   35MOL   C13818566   7.155   6.988   4.028 -0.1667 -0.4813  0.2326
   35MOL   C13918567   7.249   7.013   4.153  0.5118 -0.4909 -0.3078
   35MOL   C14018568   7.304   7.155   4.149  0.1365 -0.0346 -0.5449
   35MOL   C14118569   7.400   7.173   4.270 -0.0600 -0.5114 -0.4102
   35MOL   O14218570   7.455   7.306   4.270 -0.6829 -0.6862 -0.0031
   35MOL   C14318571   7.520   7.343   4.385 -0.2549 -0.2241  0.3082
   35MOL   O14418572   7.547   7.272   4.479  0.3157 -0.2215  0.4892
   35MOL   C14518573   7.571   7.487   4.382 -0.2354 -0.1532  0.1509
   35MOL   C14618574   7.625   7.523   4.526 -0.7265  0.5821  0.3215
   35MOL   C14718575   7.449   7.592   4.346 -0.5223  0.3038 -0.4247
   35MOL   H14818576   7.076   6.819   3.915  0.8118  3.4459 -1.3104
   35MOL   H14918577   7.031   6.820   4.083 -2.1701  3.0814 -0.7060
   35MOL   H15018578   7.193   6.778   4.045 -0.2753  0.3291  3.0846
   35MOL   H15118579   7.061   7.043   4.018  0.1391  0.3860  1.8481
   35MOL   H15218580   7.213   7.010   3.939  0.3734 -3.0180 -0.0529
   35MOL   H15318581   7.202   6.982   4.247 -1.1009 -0.0459 -0.9537
   35MOL   H15418582   7.333   6.944   4.149 -0.3584 -1.6466  0.7941
   35MOL   H15518583   7.370   7.168   4.064  1.3149  1.1483  0.5202
   35MOL   H15618584   7.227   7.232   4.143  2.7598  2.6290 -0.8817
   35MOL   H15718585   7.480   7.099   4.265 -0.3641 -1.0753  2.1550
   35MOL   H15818586   7.351   7.161   4.367 -0.0753 -0.8571 -0.4605
   35MOL   H15918587   7.681   7.617   4.526  0.1317  0.0749  0.4404
   35MOL   H16018588   7.685   7.439   4.563  1.2043  1.2264 -1.2403
   35MOL   H16118589   7.549   7.543   4.601 -1.5202 -2.1128  0.2939
   35MOL   H16218590   7.494   7.678   4.298 -0.1428 -0.6850 -1.8639
   35MOL   H16318591   7.393   7.539   4.269  0.1293  0.9664 -1.3595
   35MOL   C16418592   7.408   7.808   5.248 -0.0397 -0.6561  0.3283
   35MOL   C16518593   7.288   0.054   5.177 -0.4621 -0.7234  0.2923
   35MOL   C16618594   7.322   0.088   5.031 -0.0487  0.1475  0.0467
   35MOL   C16718595   7.312   7.790   4.925  0.3320 -0.4520 -0.5108
   35MOL   C16818596   7.357   0.026   4.786  0.2714  0.0654  0.4373
   35MOL   O16918597   7.317   7.744   4.682 -0.0284  0.4450 -0.4371
   35MOL   C17018598   7.390   7.735   4.569  0.4023 -0.6459 -0.2613
   35MOL   O17118599   7.491   7.806   4.552 -0.7990 -0.4926 -0.0172
   35MOL   C17218600   7.339   7.638   4.456  0.6860  0.3127 -0.1241
   35MOL   C17318601   7.281   7.513   4.529 -0.1676  0.3345 -0.0222
   35MOL   C17418602   7.210   7.710   4.395 -0.1635  0.1335  0.4686
   35MOL   H17518603   7.474   0.075   5.278  0.0885 -0.3731 -0.7016
   35MOL   H17618604   7.463   7.725   5.203  0.6759 -0.3334  0.5933
   35MOL   H17718605   7.377   7.776   5.347 -2.3134  1.2796  0.2735
   35MOL   H17818606   7.284   0.152   5.224  1.0283 -1.8102  2.7795
   35MOL   H17918607   7.205   7.800   5.196 -1.5313  1.2253  2.8965
   35MOL   H18018608   7.246   0.162   5.006 -0.7213 -0.6213 -0.1975
   35MOL   H18118609   7.413   0.145   5.014  0.7708 -1.4204 -0.9943
   35MOL   H18218610   7.209   7.756   4.915  0.2428 -1.1525  2.3988
   35MOL   H18318611   7.373   7.708   4.964 -1.3057 -1.3219  0.2571
   35MOL   H18418612   7.457   0.069   4.782 -0.2488  1.1960 -0.7141
   35MOL   H18518613   7.297   0.108   4.747 -1.3486 -2.0093 -1.5043
   35MOL   H18618614   7.208   7.541   4.605 -0.8076  0.2354 -0.5945
   35MOL   H18718615   7.361   7.448   4.565  1.2637  0.0810 -3.4835
   35MOL   H18818616   7.237   7.457   4.447  0.7936  0.8244 -0.8832
   35MOL   H18918617   7.158   7.623   4.353  0.3641  0.3374 -0.6395
   35MOL   H19018618   7.143   7.737   4.476 -1.3738 -0.1698 -0.4077
   35MOL   C19118619   7.240   0.155   3.642 -0.1351 -0.2296 -0.1837
   35MOL   C19218620   7.127   0.071   3.703 -0.1630  0.5362  0.1129
   35MOL   C19318621   7.182   7.804   3.819 -0.3042  0.0182  0.0815
   35MOL   C19418622   7.092   7.676   3.849  0.7728  0.4398  0.4464
   35MOL   C19518623   7.151   7.597   3.976  0.2678  0.1721 -0.0021
   35MOL   O19618624   7.141   7.657   4.104  0.3533 -0.1827 -0.1825
   35MOL   C19718625   7.233   7.753   4.149 -0.3253 -0.5456  0.0855
   35MOL   O19818626   7.326   7.795   4.082 -0.0586  0.0298  0.4219
   35MOL   C19918627   7.206   0.003   4.289  0.1542  0.3015  0.0783
   35MOL   C20018628   7.302   0.127   4.313  0.5472  0.2090 -0.5944
   35MOL   C20118629   7.053   0.052   4.275  0.9134  0.7490 -0.3416
   35MOL   H20218630   7.296   0.215   3.715  1.7898  1.3082 -2.8109
   35MOL   H20318631   7.305   0.077   3.602  0.3220  0.5578 -1.0021
   35MOL   H20418632   7.226   0.232   3.566 -0.9461 -1.8566 -1.6819
   35MOL   H20518633   7.080   0.001   3.635 -0.9468  2.1861 -1.0776
   35MOL   H20618634   7.039   0.126   3.738 -1.8546 -2.2167  0.3577
   35MOL   H20718635   7.184   0.063   3.901 -2.3687  0.5725 -0.3272
   35MOL   H20818636   7.282   7.762   3.808 -1.3674 -2.3580 -0.6797
   35MOL   H20918637   6.989   7.701   3.875  0.3042  0.5856 -1.4300
   35MOL   H21018638   7.075   7.602   3.770  0.4913 -1.1065  1.9267
   35MOL   H21118639   7.093   7.505   3.982 -0.1640  0.3482 -1.1613
   35MOL   H21218640   7.255   7.579   3.951  0.9299  1.3176  1.8860
   35MOL   H21318641   7.294   0.210   4.243 -2.3671  0.7891  0.3850
   35MOL   H21418642   7.406   0.096   4.302  0.7160  0.5516 -0.0191
   35MOL   H21518643   7.295   0.171   4.412  1.8790  1.0174 -0.8488
   35MOL   H21618644   6.990   7.778   4.287 -0.2143  1.1812 -2.5995
   35MOL   H21718645   7.026   0.095   4.178  0.9535  1.4557 -0.0437
   35MOL   C21818646   7.277   0.713   3.745 -0.2104  0.3930  0.2956
   35MOL   C21918647   7.217   0.595   3.811 -0.0764 -0.1826 -0.0706
   35MOL   C22018648   7.246   0.573   3.957  0.0087 -0.9044 -0.2445
   35MOL   C22118649   7.180   0.446   4.015  0.1190 -0.0365 -0.3255
   35MOL   C22218650   7.139   0.453   4.163  0.3352 -0.4332  0.2232
   35MOL   O22318651   7.080   0.327   4.208  0.0111 -0.3724 -0.3394
   35MOL   C22418652   7.058   0.304   4.338 -0.1104  0.0668 -0.7418
   35MOL   O22518653   7.088   0.390   4.419  0.0715  0.1086  0.3749
   35MOL   C22618654   6.988   0.165   4.370  0.1008  0.2668  0.0397
   35MOL   C22718655   7.001   0.133   4.522 -0.1804  0.6385 -0.2391
   35MOL   C22818656   6.832   0.192   4.330 -0.4324 -0.0471 -0.4511
   35MOL   H22918657   7.257   0.809   3.793  0.8272  0.2063  1.1232
   35MOL   H23018658   7.385   0.697   3.751  0.1174  1.5720 -1.8728
   35MOL   H23118659   7.260   0.711   3.637 -1.7007  1.4069  0.5024
   35MOL   H23218660   7.247   0.505   3.757 -0.1770 -0.8401  0.9427
   35MOL   H23318661   7.108   0.599   3.804 -0.1665 -0.7488  0.9397
   35MOL   H23418662   7.218   0.649   4.029  0.2130  0.4711 -1.5813
   35MOL   H23518663   7.352   0.554   3.975 -0.1654 -1.3274  0.3385
   35MOL   H23618664   7.096   0.427   3.948  0.0090  0.8823 -0.4548
   35MOL   H23718665   7.260   0.374   4.000 -0.2121 -0.3492 -0.5782
   35MOL   H23818666   7.080   0.540   4.193  1.2173  0.3974 -0.4530
   35MOL   H23918667   7.224   0.492   4.218 -1.2613 -0.4059  2.7674
   35MOL   H24018668   6.949   0.218   4.566 -4.6008 -1.1364 -1.7242
   35MOL   H24118669   7.101   0.154   4.560 -0.1685 -1.0707  0.7442
   35MOL   H24218670   6.967   0.039   4.567  1.6494  0.7510  1.4377
   35MOL   H24318671   6.825   0.264   4.248 -0.8863  2.7701  1.9508
   35MOL   H24418672   6.791   0.250   4.413  0.3567 -0.1464  0.0125
   35MOL   C24518673   6.593   0.450   3.822 -0.3282 -0.2091 -0.5059
   35MOL   C24618674   6.742   0.422   3.780  0.3521 -0.3441 -0.1335
   35MOL   C24718675   6.804   0.302   3.857 -0.4914 -0.7276 -0.0539
   35MOL   C24818676   6.733   0.169   3.843  0.2485 -0.5057  0.6974
   35MOL   C24918677   6.801   0.062   3.926  1.0750  0.0933 -0.5413
   35MOL   O25018678   6.753   0.099   4.056 -0.4695  0.4276  0.2161
   35MOL   C25118679   6.746   0.017   4.160 -0.1777  0.5313 -0.2315
   35MOL   O25218680   6.777   7.710   4.151  0.0949  0.0771 -0.3976
   35MOL   C25318681   6.726   0.082   4.297 -0.0396 -0.0633  0.2152
   35MOL   C25418682   6.598   0.157   4.275  0.5146  0.3446  0.2633
   35MOL   C25518683   6.717   7.798   4.421 -0.3886 -0.0771 -0.0231
   35MOL   H25618684   6.525   0.366   3.836  0.2090 -0.5732 -0.0376
   35MOL   H25718685   6.606   0.488   3.923 -1.7879 -1.2536  0.0919
   35MOL   H25818686   6.541   0.519   3.755 -0.7034 -0.9571 -0.9933
   35MOL   H25918687   6.739   0.399   3.674  1.3502  0.1873 -0.2821
   35MOL   H26018688   6.801   0.512   3.798 -0.6947  0.5970 -1.3769
   35MOL   H26118689   6.802   0.338   3.960 -0.3010 -0.0907 -0.2679
   35MOL   H26218690   6.905   0.292   3.820 -0.6305  2.1423 -1.3375
   35MOL   H26318691   6.631   0.179   3.880  0.4769  2.0248  0.7597
   35MOL   H26418692   6.743   0.146   3.737 -0.4434 -0.4387  0.6109
   35MOL   H26518693   6.760   7.779   3.895  4.1248 -0.3605 -3.4906
   35MOL   H26618694   6.910   0.058   3.914  0.9733 -0.7168 -1.2893
   35MOL   H26718695   6.617   0.243   4.210 -1.4892 -0.6177 -1.6731
   35MOL   H26818696   6.523   0.097   4.224  0.3241  0.1989  0.7099
   35MOL   H26918697   6.561   0.201   4.368 -0.6304  0.9972 -0.4820
   35MOL   H27018698   6.806   7.736   4.406  1.3813  1.7919  2.3488
   35MOL   H27118699   6.745   0.047   4.506  0.6253  1.1305 -1.2130
   35MOL   C27218700   6.186   0.332   4.423  0.1296 -0.3122 -0.3588
   35MOL   C27318701   6.091   0.236   4.343  0.8584  0.8833  0.1133
   35MOL   C27418702   6.139   0.095   4.339 -0.8481 -0.0691  0.5268
   35MOL   C27518703   6.147   0.029   4.478 -0.6821  0.3379  0.4571
   35MOL   C27618704   6.276   0.030   4.557  0.1491 -0.0873  0.0279
   35MOL   O27718705   6.378   7.779   4.479 -0.2963 -0.1969  0.0069
   35MOL   C27818706   6.493   7.789   4.532  0.1756  0.2536  1.1540
   35MOL   O27918707   6.513   0.055   4.629  0.3080  0.0098 -0.1593
   35MOL   C28018708   6.601   7.702   4.472 -0.2379  0.3142  0.0696
   35MOL   C28118709   6.550   7.625   4.349  0.3519  0.2869  0.1863
   35MOL   C28218710   6.662   7.613   4.584  0.2710 -0.4002 -0.8056
   35MOL   H28318711   6.288   0.320   4.386  0.5956  2.2987 -0.0068
   35MOL   H28418712   6.164   0.435   4.396 -0.5300 -0.1748  0.6900
   35MOL   H28518713   6.183   0.314   4.530  2.3592  0.5622 -0.1248
   35MOL   H28618714   5.995   0.248   4.393 -0.9263 -0.1613 -2.8886
   35MOL   H28718715   6.084   0.278   4.242  0.0868 -0.0729 -0.2482
   35MOL   H28818716   6.077   0.042   4.267  1.3836 -2.3399  0.1871
   35MOL   H28918717   6.240   0.085   4.299 -1.0576 -1.0398  0.2389
   35MOL   H29018718   6.071   0.077   4.538 -2.5293 -1.6090 -0.2604
   35MOL   H29118719   6.114   7.739   4.468 -1.9129  0.6107  1.5615
   35MOL   H29218720   6.263   7.788   4.649 -0.0887  1.4995  0.9865
   35MOL   H29318721   6.307   0.131   4.584 -0.1789  0.8256 -2.7886
   35MOL   H29418722   6.546   7.686   4.258 -1.7789  0.5342  0.4319
   35MOL   H29518723   6.625   7.552   4.319 -1.2148 -1.1632 -0.2980
   35MOL   H29618724   6.454   7.575   4.354  0.7092 -0.2459  2.0181
   35MOL   H29718725   6.741   7.566   4.525  3.7434  0.7477  2.7280
   35MOL   H29818726   6.721   7.672   4.655  0.1827  0.2848 -1.2904
   35MOL   C29918727   6.741   6.858   4.427  0.5024 -0.3923  0.2919
   35MOL   C30018728   6.618   6.930   4.492 -0.8106  0.0635 -0.0861
   35MOL   C30118729   6.600   7.077   4.452 -0.1280 -0.7187 -0.0811
   35MOL   C30218730   6.460   7.131   4.482  1.0027 -0.2237  0.2204
   35MOL   C30318731   6.449   7.275   4.417 -0.4492  0.1779 -0.0990
   35MOL   O30418732   6.534   7.359   4.490 -0.2762 -0.1182  1.2096
   35MOL   C30518733   6.478   7.435   4.581 -0.1616 -0.0622  0.0249
   35MOL   O30618734   6.351   7.450   4.591  0.3546 -0.1394 -0.0801
   35MOL   C30718735   6.581   7.508   4.670 -0.2933 -0.1750 -0.0592
   35MOL   C30818736   6.692   7.408   4.714  0.0426 -0.0057  0.0166
   35MOL   C30918737   6.517   7.582   4.798  0.4535  0.5358 -0.2113
   35MOL   H31018738   6.763   6.897   4.327 -1.8086  1.1505  0.3554
   35MOL   H31118739   6.729   6.750   4.431 -0.3121 -0.3439 -0.6578
   35MOL   H31218740   6.828   6.881   4.489 -0.0979  0.7767  0.6938
   35MOL   H31318741   6.635   6.921   4.600 -0.0134 -0.7549 -0.2743
   35MOL   H31418742   6.534   6.871   4.456 -2.2779  3.1926 -1.9673
   35MOL   H31518743   6.612   7.075   4.343  2.8809  1.5458  0.1553
   35MOL   H31618744   6.685   7.129   4.495  0.7269 -1.5484 -0.7380
   35MOL   H31718745   6.436   7.134   4.588  0.0018 -0.6208  0.0031
   35MOL   H31818746   6.380   7.069   4.442 -0.6498  2.9400 -1.6403
   35MOL   H31918747   6.471   7.279   4.310 -1.0196  1.9827 -0.1650
   35MOL   H32018748   6.349   7.318   4.412  0.2053  2.2209  2.9553
   35MOL   H32118749   6.771   7.463   4.766 -0.3522  1.0623 -0.4864
   35MOL   H32218750   6.652   7.330   4.779 -0.4458 -0.0106 -0.2833
   35MOL   H32318751   6.739   7.349   4.636  0.2328  0.0802  0.0676
   35MOL   H32418752   6.434   7.639   4.755  0.3858  0.6159  0.0246
   35MOL   H32518753   6.585   7.664   4.821  1.0116 -0.6127  2.3264
   35MOL   C32618754   5.816   7.402   5.279 -0.2255 -0.2294  0.3357
   35MOL   C32718755   5.933   7.503   5.279 -0.6447 -0.3758  0.5493
   35MOL   C32818756   6.013   7.511   5.146 -0.1931  0.9133 -0.1923
   35MOL   C32918757   6.083   7.643   5.130 -0.2956 -0.2885  1.0552
   35MOL   C33018758   6.143   7.660   4.984  0.9622  1.2293 -0.5887
   35MOL   O33118759   6.248   7.567   4.969  0.5213 -0.5105  0.6387
   35MOL   C33218760   6.380   7.598   4.985 -0.5728 -0.6380  0.5181
   35MOL   O33318761   6.422   7.696   5.051 -0.5791  0.2633 -0.1638
   35MOL   C33418762   6.477   7.494   4.925  0.1062  0.1575  0.0716
   35MOL   C33518763   6.414   7.354   4.895  0.2215  0.3093 -0.5625
   35MOL   C33618764   6.608   7.484   5.020 -0.1481 -0.1949  0.7764
   35MOL   H33718765   5.750   7.412   5.193 -3.6304 -2.3913  2.5797
   35MOL   H33818766   5.754   7.411   5.368  0.6492 -1.5854  1.1055
   35MOL   H33918767   5.853   7.301   5.261 -1.5832 -0.6990  0.1380
   35MOL   H34018768   6.000   7.488   5.363  0.0988  0.7491  0.1772
   35MOL   H34118769   5.887   7.601   5.288 -1.0678 -0.3915 -1.2207
   35MOL   H34218770   5.947   7.497   5.060  1.0881  1.0058 -1.2017
   35MOL   H34318771   6.093   7.440   5.127  0.5021  1.2662  1.3693
   35MOL   H34418772   6.166   7.651   5.201  1.4857  0.4358 -1.0446
   35MOL   H34518773   6.018   7.727   5.152  0.1296  0.1390  0.6699
   35MOL   H34618774   6.166   7.766   4.976 -0.8303  1.6110 -0.8836
   35MOL   H34718775   6.063   7.644   4.913  0.2459 -0.6634  0.6071
   35MOL   H34818776   6.339   7.375   4.818 -1.2563 -1.3200  0.3940
   35MOL   H34918777   6.345   7.323   4.973  0.5467 -4.8937 -2.1072
   35MOL   H35018778   6.467   7.261   4.875  0.8061  0.5710 -0.2352
   35MOL   H35118779   6.640   7.582   5.055 -0.8412  0.6738 -0.9576
   35MOL   H35218780   6.701   7.453   4.973  0.7654 -0.5814  2.7893
   35MOL   C35318781   7.225   7.706   5.684  0.1244  0.0340 -0.1772
   35MOL   C35418782   7.115   7.601   5.650 -1.1085  0.2206  0.1856
   35MOL   C35518783   7.071   7.612   5.503 -0.4137  0.0640  0.6606
   35MOL   C35618784   6.944   7.538   5.452 -0.0838  1.0851  0.5333
   35MOL   C35718785   6.906   7.584   5.311  1.3088  0.4612 -0.2161
   35MOL   O35818786   6.772   7.553   5.265 -0.3784 -0.2485  0.2491
   35MOL   C35918787   6.746   7.429   5.222  0.1831 -0.0252  0.1359
   35MOL   O36018788   6.827   7.336   5.237 -0.5555 -0.4342 -0.0702
   35MOL   C36118789   6.607   7.412   5.162  0.0502 -0.5990 -0.5862
   35MOL   C36218790   6.594   7.258   5.139  0.3937  0.8677 -0.1632
   35MOL   C36318791   6.493   7.477   5.261 -0.2837 -0.1760  0.2078
   35MOL   H36418792   7.310   7.693   5.617 -0.6337  1.3088 -1.4167
   35MOL   H36518793   7.263   7.696   5.786 -0.0095 -0.8668 -0.2138
   35MOL   H36618794   7.200   7.807   5.652 -1.1796  0.1544  1.1585
   35MOL   H36718795   7.154   7.500   5.663 -0.1578  0.3225 -1.7494
   35MOL   H36818796   7.029   7.613   5.716 -0.6159  0.5219  0.7733
   35MOL   H36918797   7.150   7.595   5.429 -0.6780  0.7346  0.2128
   35MOL   H37018798   7.049   7.718   5.488 -1.7584 -0.5221 -1.8246
   35MOL   H37118799   6.870   7.577   5.522 -1.8293  1.7562 -1.6361
   35MOL   H37218800   6.964   7.432   5.467 -0.5365  0.8380 -0.5872
   35MOL   H37318801   6.917   7.692   5.307 -3.1153  1.0612  0.9278
   35MOL   H37418802   6.983   7.557   5.239  2.8688 -0.6529  1.8155
   35MOL   H37518803   6.649   7.229   5.050 -0.2758  3.0060 -1.2996
   35MOL   H37618804   6.633   7.200   5.223  3.0123  1.8270 -0.6721
   35MOL   H37718805   6.490   7.229   5.129  0.4717  0.6203 -0.2621
   35MOL   H37818806   6.493   7.584   5.237  2.4651 -0.0533  0.5307
   35MOL   H37918807   6.409   7.449   5.198  1.9789  0.3911 -3.1762
   35MOL   C38018808   5.862   6.981   5.192  0.4903  0.3240  0.4112
   35MOL   C38118809   5.990   6.925   5.126  0.3647 -0.3581 -0.4353
   35MOL   C38218810   6.122   6.964   5.217  0.8199 -0.1879 -0.4903
   35MOL   C38318811   6.169   7.106   5.205  0.0520  0.3092  0.3927
   35MOL   C38418812   6.272   7.124   5.312  0.5994  0.3114  0.9215
   35MOL   O38518813   6.321   7.261   5.322 -0.3182 -0.9546 -0.5385
   35MOL   C38618814   6.414   7.287   5.405 -0.2966 -0.2564  0.6215
   35MOL   O38718815   6.475   7.196   5.463 -0.2130 -0.2094  0.8195
   35MOL   C38818816   6.456   7.436   5.406 -0.3737  0.9698 -0.4965
   35MOL   C38918817   6.574   7.460   5.504 -0.1255  0.5367 -0.0935
   35MOL   C39018818   6.329   7.521   5.453  0.4260 -0.5227  0.6062
   35MOL   H39118819   5.773   6.922   5.167 -1.0245  2.7595 -0.1527
   35MOL   H39218820   5.891   6.976   5.296  1.7645  1.3143  0.1082
   35MOL   H39318821   5.843   7.083   5.158 -4.0465 -1.0260 -1.5828
   35MOL   H39418822   6.014   6.971   5.030 -1.4959  1.0357 -0.2696
   35MOL   H39518823   5.981   6.817   5.121 -2.2159 -0.2549  0.9903
   35MOL   H39618824   6.094   6.939   5.319 -0.6216  0.8400 -0.6230
   35MOL   H39718825   6.195   6.890   5.184  1.7509  1.3168 -1.8972
   35MOL   H39818826   6.216   7.139   5.112  0.2428  0.8082  0.6668
   35MOL   H39918827   6.090   7.181   5.209 -1.9502 -1.5764 -1.6930
   35MOL   H40018828   6.353   7.056   5.286 -2.4033 -2.5424 -1.4002
   35MOL   H40118829   6.236   7.092   5.410  1.8921 -0.1421  1.2653
   35MOL   H40218830   6.655   7.393   5.475 -0.9149  0.0627 -1.2259
   35MOL   H40318831   6.552   7.453   5.611  1.5011  1.1584  0.2989
   35MOL   H40418832   6.605   7.563   5.486 -1.9536  1.3240  1.0750
   35MOL   H40518833   6.294   7.456   5.533  1.0023  0.2441  1.4994
   35MOL   H40618834   6.254   7.514   5.374  2.0562 -0.9047 -0.9531
   35MOL   C40718835   6.009   7.706   6.166 -0.2024  0.6040  0.6286
   35MOL   C40818836   6.119   7.608   6.122 -0.2628 -0.1575  0.2799
   35MOL   C40918837   6.209   7.658   6.003  0.7800 -0.4921 -0.4259
   35MOL   C41018838   6.330   7.566   5.971 -0.3958  0.5619 -0.2962
   35MOL   C41118839   6.424   7.618   5.858 -0.5898 -0.7141  0.4324
   35MOL   O41218840   6.352   7.621   5.728 -0.5906 -0.1645 -0.0935
   35MOL   C41318841   6.412   7.688   5.628  1.3268 -0.2651  0.3402
   35MOL   O41418842   6.517   7.749   5.636 -0.1360  0.2408 -0.0690
   35MOL   C41518843   6.336   7.677   5.490  0.0725  0.0768  0.3580
   35MOL   C41618844   6.402   7.772   5.382 -0.4135 -0.1743 -0.3841
   35MOL   C41718845   6.194   7.729   5.504  0.0674 -0.5154  0.6249
   35MOL   H41818846   5.959   7.673   6.257  3.1126 -0.0051  2.3086
   35MOL   H41918847   6.067   7.794   6.194  0.1136  0.5038  0.3003
   35MOL   H42018848   5.943   7.718   6.080  0.4068  1.4388  0.2741
   35MOL   H42118849   6.055   7.526   6.088  0.5243 -1.4911  1.9131
   35MOL   H42218850   6.172   7.579   6.213  0.9377  0.1816 -0.2984
   35MOL   H42318851   6.161   7.679   5.908 -0.8728  1.6982  0.8463
   35MOL   H42418852   6.257   7.752   6.032  0.8041 -0.9120  0.9169
   35MOL   H42518853   6.298   7.464   5.953 -0.5336  0.5110  0.2328
   35MOL   H42618854   6.380   7.543   6.066 -1.0802 -1.1153 -0.3269
   35MOL   H42718855   6.446   7.721   5.883 -0.9425 -0.2332 -1.1623
   35MOL   H42818856   6.516   7.560   5.855 -0.2081 -0.1915  1.6428
   35MOL   H42918857   6.508   7.755   5.363 -0.9150 -3.4765 -0.5745
   35MOL   H43018858   6.386   0.064   5.401  1.4480 -0.0042  0.4451
   35MOL   H43118859   6.356   7.755   5.285 -0.1521 -2.3406 -0.1656
   35MOL   H43218860   6.154   7.673   5.589 -0.7771 -0.4544  0.2758
   35MOL   H43318861   6.135   7.702   5.416  1.7607  0.6050 -0.8945
   35MOL   C43418862   5.650   0.515   5.342  0.5233 -0.2847  0.2030
   35MOL   C43518863   5.761   0.432   5.267  0.6314  0.7108  0.5922
   35MOL   C43618864   5.905   0.452   5.334 -0.2655 -0.3131  0.2056
   35MOL   C43718865   6.011   0.388   5.248  0.1720 -0.4342 -0.2207
   35MOL   C43818866   6.148   0.377   5.317  0.3540  0.4432 -0.0488
   35MOL   O43918867   6.155   0.285   5.424  0.5664 -0.8424 -0.7094
   35MOL   C44018868   6.147   0.155   5.403  0.3646 -0.8407 -0.0674
   35MOL   O44118869   6.134   0.107   5.289 -0.1542  0.2304 -0.0834
   35MOL   C44218870   6.154   0.068   5.533  0.4071  0.0775  0.6869
   35MOL   C44318871   6.254   0.134   5.628 -0.4899  0.3171 -0.1134
   35MOL   C44418872   6.024   0.099   5.616  0.0104 -0.6931  0.2009
   35MOL   H44518873   5.664   0.623   5.331  0.4689 -0.5137 -2.6082
   35MOL   H44618874   5.553   0.489   5.299  0.2228 -0.4011  0.9432
   35MOL   H44718875   5.643   0.489   5.447 -1.9499  0.4927  0.2720
   35MOL   H44818876   5.732   0.328   5.286  0.8723  0.5570  0.1459
   35MOL   H44918877   5.767   0.447   5.159 -2.7115 -0.7151  0.1436
   35MOL   H45018878   5.917   0.554   5.369  2.0161 -0.6641  0.5103
   35MOL   H45118879   5.900   0.391   5.424 -0.7438 -0.5540  0.0180
   35MOL   H45218880   6.023   0.432   5.148 -1.2686  0.4789 -0.0007
   35MOL   H45318881   5.978   0.285   5.238 -0.7352 -0.0610 -1.1051
   35MOL   H45418882   6.173   0.476   5.355  0.1174  0.5512 -0.1741
   35MOL   H45518883   6.233   0.357   5.252  0.3306 -1.2988  0.4352
   35MOL   H45618884   6.262   0.082   5.724  0.1785  2.8474  1.2400
   35MOL   H45718885   6.351   0.137   5.578 -1.2124 -0.1585 -1.5500
   35MOL   H45818886   6.236   0.241   5.638  2.1221  0.7001  1.0443
   35MOL   H45918887   6.020   0.208   5.625  1.7033 -0.4421 -1.5771
   35MOL   H46018888   6.045   0.078   5.721  1.2602 -0.9624 -0.0946
   35MOL   C46118889   6.005   7.077   5.630 -0.3235  0.6516 -0.5263
   35MOL   C46218890   6.055   7.221   5.631  0.4738  0.4770 -0.3957
   35MOL   C46318891   5.975   7.307   5.729  0.3571  0.0995  0.1042
   35MOL   C46418892   6.024   7.448   5.721 -0.1205 -0.2511  0.4356
   35MOL   C46518893   5.930   7.546   5.806  0.1143 -0.3727  0.4549
   35MOL   O46618894   5.923   7.684   5.755 -0.0019 -0.3416 -1.1905
   35MOL   C46718895   5.872   7.715   5.635 -0.4617  0.2095  0.3976
   35MOL   O46818896   5.816   7.628   5.568  0.0883  0.4959 -0.4575
   35MOL   C46918897   5.879   0.046   5.591  0.0824  0.0165  0.5291
   35MOL   C47018898   5.835   0.054   5.438 -0.3079  0.0345 -0.3032
   35MOL   C47118899   5.790   0.124   5.685 -0.2456 -0.0722  0.6201
   35MOL   H47218900   5.913   7.067   5.571  1.7780  0.0650 -3.8159
   35MOL   H47318901   5.998   7.039   5.732  0.1888  0.1527 -0.6777
   35MOL   H47418902   6.081   7.018   5.581 -0.6709  0.5344 -0.9301
   35MOL   H47518903   6.039   7.263   5.532 -1.5303  1.0518  0.1415
   35MOL   H47618904   6.161   7.220   5.654  0.0932 -0.8255  1.5071
   35MOL   H47718905   5.968   7.266   5.830 -0.4197  1.4745  0.6158
   35MOL   H47818906   5.871   7.309   5.696  0.2188 -1.4381  0.3627
   35MOL   H47918907   6.034   7.485   5.619 -0.9631 -0.3715  0.3054
   35MOL   H48018908   6.127   7.449   5.758 -0.1672 -2.4879  0.6966
   35MOL   H48118909   5.827   7.509   5.810  0.2411 -0.5410  2.6027
   35MOL   H48218910   5.960   7.547   5.910 -1.1039 -0.1749  0.8070
   35MOL   H48318911   5.818   0.152   5.394 -3.6451  0.2732  1.3509
   35MOL   H48418912   5.738   0.007   5.425 -1.0468  0.7129  2.3120
   35MOL   H48518913   5.917   0.013   5.380  0.9635  1.1665  0.6583
   35MOL   H48618914   5.801   0.226   5.648  0.2281 -0.0824  0.7305
   35MOL   H48718915   5.837   0.128   5.784 -0.8001  1.2839  0.8390
   35MOL   C48818916   5.606   0.020   6.542  0.2663 -0.3787  0.6586
   35MOL   C48918917   5.675   7.795   6.416 -0.1039 -0.5866  0.1846
   35MOL   C49018918   5.599   0.031   6.290 -0.0826 -0.2697  0.1933
   35MOL   C49118919   5.666   0.027   6.159 -0.0653  0.2223 -0.0553
   35MOL   C49218920   5.576   0.097   6.060 -0.4249 -0.4528 -0.9858
   35MOL   O49318921   5.622   0.087   5.931  0.0527  0.0634  0.4361
   35MOL   C49418922   5.591   0.165   5.832  0.5704 -0.3877  0.4562
   35MOL   O49518923   5.531   0.274   5.848  0.3497  0.0532  0.1413
   35MOL   C49618924   5.626   0.097   5.696 -0.9882  0.2734  0.1411
   35MOL   C49718925   5.578   7.765   5.705 -0.6371  0.3834 -0.0685
   35MOL   C49818926   5.561   0.182   5.578 -0.7321 -0.6361  0.2188
   35MOL   H49918927   5.503   7.800   6.550 -0.0653  0.5581  0.4314
   35MOL   H50018928   5.661   7.786   6.624  1.9797 -0.6342 -0.5941
   35MOL   H50118929   5.606   0.127   6.560 -0.2796 -0.3090  0.2489
   35MOL   H50218930   5.676   7.686   6.413  1.4617 -0.5892 -0.0566
   35MOL   H50318931   5.781   0.005   6.430  0.1066 -1.9318  0.9872
   35MOL   H50418932   5.501   7.799   6.278 -0.3515  0.5927 -1.0535
   35MOL   H50518933   5.564   0.132   6.304 -1.6924 -1.0699  2.0431
   35MOL   H50618934   5.677   7.736   6.134  1.1530  0.5613 -1.0070
   35MOL   H50718935   5.762   0.080   6.165  0.2364 -0.2568 -0.6544
   35MOL   H50818936   5.471   0.070   6.066 -0.8815  1.5686  0.6780
   35MOL   H50918937   5.574   0.205   6.075  1.8286 -0.6931  1.2802
   35MOL   H51018938   5.592   7.711   5.612 -1.8611 -0.6069  0.3180
   35MOL   H51118939   5.483   7.750   5.756 -0.7082  1.6959  0.2099
   35MOL   H51218940   5.652   7.717   5.769 -0.9801 -1.3769 -0.9570
   35MOL   H51318941   5.617   0.177   5.484 -1.5009 -0.9740 -0.2304
   35MOL   H51418942   5.568   0.287   5.607 -1.7857 -0.5664  0.2667
   35MOL   C51518943   5.787   7.808   4.990  0.7991  0.2071  0.4517
   35MOL   C51618944   5.706   7.717   5.066  0.4345 -0.5114  0.0656
   35MOL   C51718945   5.561   7.768   5.073 -0.0357  0.5200 -0.6902
   35MOL   C51818946   5.479   7.676   5.156 -0.4043  0.8132 -0.2176
   35MOL   C51918947   5.503   7.676   5.309  0.4319 -0.4660 -0.8204
   35MOL   O52018948   5.486   7.808   5.356 -1.0892 -0.1332 -0.0271
   35MOL   C52118949   5.399   0.020   5.460  0.6564 -0.6039  0.0373
   35MOL   O52218950   5.324   7.749   5.502 -0.0343  0.1569 -0.2359
   35MOL   C52318951   5.413   0.162   5.527  0.5705  0.2629 -0.2699
   35MOL   C52418952   5.386   0.263   5.419 -0.0653 -0.0089 -0.3750
   35MOL   C52518953   5.317   0.180   5.645 -0.2498 -0.0560 -0.8036
   35MOL   H52618954   5.755   0.000   4.886  0.8934 -0.2942  0.3919
   35MOL   H52718955   5.788   0.093   5.035  1.7679  0.3170  0.2121
   35MOL   H52818956   5.893   7.783   4.995  1.1827  1.3609 -1.4905
   35MOL   H52918957   5.690   7.620   5.019 -0.8590  0.3086 -1.2245
   35MOL   H53018958   5.749   7.706   5.166 -0.5961  1.1212  0.7055
   35MOL   H53118959   5.565   0.053   5.119 -1.8856  0.5944 -0.6593
   35MOL   H53218960   5.517   7.788   4.975  1.1533  2.6139 -0.8337
   35MOL   H53318961   5.491   7.575   5.116 -0.9834  1.0158 -0.9071
   35MOL   H53418962   5.375   7.705   5.139 -0.8318 -0.3547  0.3086
   35MOL   H53518963   5.433   7.607   5.355  1.1086 -0.3434  0.4523
   35MOL   H53618964   5.599   7.639   5.347  1.3587 -0.5927 -3.1920
   35MOL   H53718965   5.366   0.364   5.454 -1.7106 -0.4171 -0.0874
   35MOL   H53818966   5.294   0.225   5.376 -1.0257  1.1607  0.6428
   35MOL   H53918967   5.469   0.274   5.349 -0.7415  0.7113 -1.0727
   35MOL   H54018968   5.327   0.100   5.718 -1.1428  0.6346  0.0836
   35MOL   H54118969   5.211   0.174   5.621 -0.0692  1.9155 -2.1748
   35MOL   H54218970   5.340   0.277   5.687  1.1071 -0.4725 -0.5584
   36MOL     C118971   1.710   5.717   5.945  0.5817 -0.0953 -0.1044
   36MOL     C218972   1.640   5.717   5.808 -0.4878  0.6315  0.1538
   36MOL     C318973   1.543   5.829   5.804  0.2136  0.0063 -0.5138
   36MOL     C418974   1.412   5.803   5.879  0.3817  0.1199 -0.2932
   36MOL     C518975   1.323   5.920   5.852  0.4474  0.5457  0.3894
   36MOL     O618976   1.265   5.921   5.724  0.1815 -0.9065  0.1718
   36MOL     C718977   1.155   5.844   5.696  0.0611  0.3769  0.1727
   36MOL     O818978   1.096   5.776   5.777 -0.1979  0.3730  0.5316
   36MOL     C918979   1.110   5.854   5.546 -0.1320 -0.2101  0.5003
   36MOL    C1018980   1.223   5.812   5.449  0.1594 -0.2998 -0.1550
   36MOL    C1118981   1.063   5.996   5.507  0.6827 -0.4781  1.0659
   36MOL    H1218982   1.780   5.633   5.948 -0.1001 -0.6489  0.5084
   36MOL    H1318983   1.639   5.700   6.025  2.3217 -0.2933  1.4319
   36MOL    H1418984   1.762   5.809   5.973 -0.9914  0.7946 -0.0470
   36MOL    H1518985   1.718   5.732   5.733 -1.9590  0.3038 -1.5052
   36MOL    H1618986   1.598   5.620   5.781 -0.3963  0.1842  1.5750
   36MOL    H1718987   1.591   5.925   5.824 -0.2950  0.0645  0.4355
   36MOL    H1818988   1.520   5.839   5.698 -0.6702 -1.9211 -0.5240
   36MOL    H1918989   1.429   5.790   5.986  1.8766 -2.4303 -0.8002
   36MOL    H2018990   1.371   5.703   5.866 -0.9213  0.6304 -0.2173
   36MOL    H2118991   1.245   5.907   5.928  0.9005 -0.6688  0.6651
   36MOL    H2218992   1.373   6.013   5.877 -0.5913  1.2942 -0.2974
   36MOL    H2318993   1.194   5.809   5.344  0.6434  0.2251 -0.3086
   36MOL    H2418994   1.255   5.712   5.480 -1.4851 -0.5943  0.6365
   36MOL    H2518995   1.314   5.871   5.459  0.9630 -1.0730 -2.5925
   36MOL    H2618996   1.091   6.000   5.402  1.4143  2.7057  1.3325
   36MOL    H2718997   1.122   6.080   5.543  0.2319  1.2200 -1.9620
   36MOL    H2818998   1.040   5.771   5.538  0.4466 -0.7125  0.5897
   36MOL    C2918999   0.636   6.011   4.847  0.0222  0.3215 -0.0269
   36MOL    C3019000   0.613   5.914   4.963 -0.2530  0.0137  0.0209
   36MOL    C3119001   0.717   5.910   5.070  0.4062  0.1497 -0.6730
   36MOL    C3219002   0.712   5.785   5.168 -0.0378 -0.4163 -0.0517
   36MOL    C3319003   0.824   5.786   5.271  0.0339 -0.1730 -0.2183
   36MOL    O3419004   0.839   5.911   5.340 -0.1787  0.9551  0.6862
   36MOL    C3519005   0.831   5.920   5.477  0.0850 -0.1789 -0.1242
   36MOL    O3619006   0.775   5.840   5.553  0.2840  0.0065 -0.1231
   36MOL    C3719007   0.915   6.041   5.542 -0.7416  0.1847  0.0041
   36MOL    C3819008   0.896   6.166   5.451  0.1770  0.6707 -0.6697
   36MOL    C3919009   0.897   6.072   5.701  0.7722 -0.1741 -0.2459
   36MOL    H4019010   0.672   6.108   4.881  1.2421 -0.6765  1.6464
   36MOL    H4119011   0.704   5.977   4.769 -1.3802  1.7541 -1.9419
   36MOL    H4219012   0.542   6.031   4.796  0.6374  2.8953 -0.1930
   36MOL    H4319013   0.596   5.814   4.923 -1.2976  0.4393 -0.6131
   36MOL    H4419014   0.528   5.949   5.022  0.9573  1.9402  0.6837
   36MOL    H4519015   0.700   6.004   5.123  0.4547  0.2254 -0.7913
   36MOL    H4619016   0.812   5.921   5.019  0.8859  0.9512  0.3698
   36MOL    H4719017   0.623   5.787   5.231  0.3007  2.9210  0.4018
   36MOL    H4819018   0.722   5.689   5.116 -0.8110 -0.8319  0.5530
   36MOL    H4919019   0.914   5.770   5.211 -0.0141 -1.1644 -0.0324
   36MOL    H5019020   0.817   5.703   5.341  2.6125 -1.1532 -1.0659
   36MOL    H5119021   0.941   6.259   5.486  3.7781 -0.4193 -2.1895
   36MOL    H5219022   0.790   6.188   5.449  0.5905  2.8582  0.1981
   36MOL    H5319023   0.931   6.141   5.351 -1.0263 -1.8626 -0.4974
   36MOL    H5419024   0.991   6.112   5.738  0.8804  1.3305 -2.0511
   36MOL    H5519025   0.881   5.972   5.741 -0.9519  0.7215  1.4066
   36MOL    C5619026   0.149   6.022   5.279 -0.1623 -1.0886 -1.4508
   36MOL    C5719027   0.264   6.014   5.377  0.2574 -0.4562 -0.0354
   36MOL    C5819028   0.382   6.108   5.333 -0.4555  0.1263  0.4647
   36MOL    C5919029   0.493   6.093   5.440  0.3733 -0.0849 -0.1330
   36MOL    C6019030   0.458   6.149   5.582  0.1592  0.5210  0.2250
   36MOL    O6119031   0.576   6.185   5.638  0.4944  0.3325 -0.1202
   36MOL    C6219032   0.643   6.100   5.721  0.3065  0.4667 -0.5877
   36MOL    O6319033   0.592   5.995   5.759  0.0458 -0.0840  0.0067
   36MOL    C6419034   0.782   6.147   5.769 -0.1653 -0.2444 -0.3679
   36MOL    C6519035   0.795   6.298   5.742  1.0395  0.0720  0.3531
   36MOL    C6619036   0.797   6.121   5.929  1.4263 -0.8004  0.2860
   36MOL    H6719037   0.078   5.941   5.288 -0.4760 -0.5585  1.3518
   36MOL    H6819038   0.187   6.014   5.177  0.0530  0.0054 -1.4674
   36MOL    H6919039   0.095   6.116   5.293 -0.7351 -1.7868  1.2680
   36MOL    H7019040   0.234   6.049   5.475 -0.3954  0.5887 -0.5999
   36MOL    H7119041   0.288   5.908   5.385  2.5956 -0.0060 -0.6941
   36MOL    H7219042   0.420   6.084   5.234 -1.0395  1.1356 -0.0084
   36MOL    H7319043   0.343   6.210   5.331  1.5933  0.9293  0.2798
   36MOL    H7419044   0.574   6.154   5.399  1.2190 -0.2354  1.2868
   36MOL    H7519045   0.525   5.989   5.445 -0.5965 -0.3812  0.0159
   36MOL    H7619046   0.395   6.235   5.561 -0.8736 -0.1693  0.4895
   36MOL    H7719047   0.398   6.078   5.639 -1.6400  1.5745 -0.3051
   36MOL    H7819048   0.717   6.367   5.775  3.5434  2.5729  1.1930
   36MOL    H7919049   0.800   6.318   5.635 -1.1269 -0.5320  0.1224
   36MOL    H8019050   0.886   6.333   5.790 -0.5214  1.6001  2.2728
   36MOL    H8119051   0.905   6.124   5.945  1.5076  1.6191 -0.4949
   36MOL    H8219052   0.771   6.015   5.937  0.1305 -0.6422 -1.5692
   36MOL    C8319053   1.355   6.275   5.805 -0.3511  0.2709  0.4504
   36MOL    C8419054   1.294   6.398   5.857  0.5005 -0.2722  0.4087
   36MOL    C8519055   1.206   6.371   5.983 -0.3861 -0.1247 -0.2848
   36MOL    C8619056   1.096   6.473   6.006 -0.5639  0.5320  0.6785
   36MOL    C8719057   1.010   6.441   6.129  0.3395  0.5679 -0.3893
   36MOL    O8819058   0.926   6.325   6.109  0.1951 -0.0720 -0.0572
   36MOL    C8919059   0.799   6.343   6.061  0.1505 -0.2670 -0.1086
   36MOL    O9019060   0.737   6.446   6.043  0.1910 -0.3075 -0.0875
   36MOL    C9119061   0.723   6.209   6.046  0.3264  0.2105  0.0837
   36MOL    C9219062   0.582   6.228   5.993  0.1605 -0.6000 -0.3988
   36MOL    C9319063   0.731   6.112   6.174 -0.2177  0.9283 -0.0023
   36MOL    H9419064   1.396   6.276   5.704  0.2640 -1.6514  0.6520
   36MOL    H9519065   1.435   6.237   5.869  0.6836 -0.5371 -1.2940
   36MOL    H9619066   1.286   6.190   5.800 -0.5417  0.2944  2.1368
   36MOL    H9719067   1.234   6.441   5.777 -1.3854 -1.1097  1.3401
   36MOL    H9819068   1.362   6.483   5.862 -0.8356  0.7864  0.7311
   36MOL    H9919069   1.279   6.362   6.063  0.8586  0.0039 -1.3875
   36MOL   H10019070   1.158   6.274   5.975  1.9317 -1.2567 -0.9449
   36MOL   H10119071   1.027   6.460   5.922 -0.0906 -1.2823  0.5564
   36MOL   H10219072   1.135   6.575   6.008 -1.7219  0.9944  0.1116
   36MOL   H10319073   0.954   6.533   6.143  0.1689  0.5307 -0.8374
   36MOL   H10419074   1.062   6.423   6.224 -0.8975  2.0362  0.5836
   36MOL   H10519075   0.573   6.287   5.902 -0.5970 -1.7485 -1.0890
   36MOL   H10619076   0.535   6.277   6.078 -0.6963 -0.8253 -0.7363
   36MOL   H10719077   0.541   6.129   5.973 -0.1656 -0.3876 -0.8001
   36MOL   H10819078   0.696   6.011   6.152  2.7349 -0.3684  0.9416
   36MOL   H10919079   0.836   6.090   6.190 -0.1595  0.7268 -0.6418
   36MOL   C11019080   0.297   5.601   6.525 -0.1325 -0.2284 -0.2228
   36MOL   C11119081   0.295   5.661   6.385  0.8011 -0.0694 -0.3811
   36MOL   C11219082   0.299   5.810   6.379 -0.5492  0.9142  0.6276
   36MOL   C11319083   0.258   5.874   6.250 -0.2011 -0.2096 -0.2203
   36MOL   C11419084   0.298   6.026   6.252 -0.6162  0.4061  0.3193
   36MOL   O11519085   0.443   6.035   6.255 -0.1474 -0.4660  0.0248
   36MOL   C11619086   0.497   6.148   6.305  0.6955  0.4436 -0.2611
   36MOL   O11719087   0.437   6.244   6.350 -0.0419 -0.6133  0.6895
   36MOL   C11819088   0.659   6.147   6.312 -0.1339 -0.7047 -0.4225
   36MOL   C11919089   0.702   6.291   6.348  0.3099 -1.0811 -0.1848
   36MOL   C12019090   0.712   6.032   6.403 -0.0026 -0.1189 -0.0375
   36MOL   H12119091   0.383   5.637   6.582  1.2027 -1.4270 -1.4238
   36MOL   H12219092   0.202   5.611   6.576  0.1345 -0.7556  0.3804
   36MOL   H12319093   0.320   5.495   6.511 -0.1975 -0.1010 -1.3811
   36MOL   H12419094   0.383   5.630   6.328 -0.1392 -1.0392 -1.3190
   36MOL   H12519095   0.205   5.628   6.333  0.2789  0.9066 -0.1139
   36MOL   H12619096   0.249   5.839   6.471  0.7103  1.1152  1.2625
   36MOL   H12719097   0.405   5.831   6.396  0.7263 -2.8289 -2.0045
   36MOL   H12819098   0.153   5.850   6.236  0.1365 -0.9382 -1.5521
   36MOL   H12919099   0.305   5.828   6.163 -0.9627  0.6258 -1.0871
   36MOL   H13019100   0.267   6.083   6.165  3.1301  1.0866 -0.6699
   36MOL   H13119101   0.253   6.079   6.336 -2.8855  1.7152 -1.6739
   36MOL   H13219102   0.811   6.297   6.352  0.2245  0.5853  0.1596
   36MOL   H13319103   0.662   6.360   6.273 -0.3103 -1.8530 -0.5696
   36MOL   H13419104   0.661   6.324   6.443 -0.3505 -4.5730  0.7851
   36MOL   H13519105   0.675   5.935   6.370 -2.3965 -0.2521  2.8185
   36MOL   H13619106   0.820   6.027   6.389  0.1284 -1.2296  1.2000
   36MOL   C13719107   1.197   6.589   6.576  0.1447  0.1758  1.1169
   36MOL   C13819108   1.060   6.648   6.618  0.0999 -0.3675  0.2919
   36MOL   C13919109   0.980   6.545   6.705 -0.3398 -0.3505  0.9671
   36MOL   C14019110   0.904   6.436   6.626 -0.4233 -0.0718 -0.0030
   36MOL   C14119111   0.830   6.339   6.718 -0.6923  0.0382  0.1914
   36MOL   O14219112   0.753   6.241   6.650  0.4480 -0.8628  0.2720
   36MOL   C14319113   0.809   6.125   6.609 -0.0289  0.0060 -0.6997
   36MOL   O14419114   0.928   6.095   6.604 -0.3642  0.1541 -0.2478
   36MOL   C14519115   0.695   6.026   6.557 -0.0069 -0.0397 -0.6376
   36MOL   C14619116   0.554   6.066   6.606  0.2935  0.0468 -0.7726
   36MOL   C14719117   0.731   5.886   6.622  0.6336  0.0965 -0.3014
   36MOL   H14819118   1.256   6.657   6.515 -0.8253  0.6366  0.6885
   36MOL   H14919119   1.184   6.500   6.514  1.1300 -0.1374  1.3515
   36MOL   H15019120   1.261   6.561   6.660  2.0817 -0.0612 -0.4000
   36MOL   H15119121   0.999   6.673   6.531  0.0733 -0.1104  0.3847
   36MOL   H15219122   1.086   6.744   6.662  0.8819 -0.4922  0.1134
   36MOL   H15319123   1.045   6.486   6.771 -0.0745 -1.3259 -0.1536
   36MOL   H15419124   0.908   6.596   6.770 -2.9112 -0.0443 -2.0281
   36MOL   H15519125   0.835   6.485   6.558  0.5467  0.0348 -0.9226
   36MOL   H15619126   0.978   6.382   6.567  0.0546 -1.8383  2.1415
   36MOL   H15719127   0.780   6.393   6.798  0.5881  0.4398  0.7273
   36MOL   H15819128   0.900   6.294   6.788  1.1067  1.0863 -0.8880
   36MOL   H15919129   0.541   6.089   6.712 -0.5260  0.7739 -1.0307
   36MOL   H16019130   0.480   5.988   6.587  1.3170 -1.1410  0.0282
   36MOL   H16119131   0.530   6.162   6.561 -2.8030 -0.1061  0.4809
   36MOL   H16219132   0.661   5.816   6.575 -1.4776  1.3078  0.9801
   36MOL   H16319133   0.828   5.859   6.579  1.5937 -0.3423  2.0521
   36MOL   C16419134   0.340   5.742   7.500 -0.2898  0.6153 -0.2992
   36MOL   C16519135   0.408   5.791   7.379  0.4048  0.4082  0.6985
   36MOL   C16619136   0.448   5.680   7.279 -0.0757  0.8388 -0.8836
   36MOL   C16719137   0.550   5.725   7.172 -0.5132  0.0965 -0.3786
   36MOL   C16819138   0.482   5.791   7.047 -0.3165  0.1683  0.5239
   36MOL   O16919139   0.595   5.810   6.965  0.4276  0.8186  0.7698
   36MOL   C17019140   0.591   5.815   6.832  0.3778  0.4357 -0.0480
   36MOL   O17119141   0.494   5.789   6.760 -0.0927  0.1328  0.3028
   36MOL   C17219142   0.732   5.845   6.771 -0.4631 -0.2133  1.0528
   36MOL   C17319143   0.799   5.956   6.859  0.0188 -0.3269 -0.2526
   36MOL   C17419144   0.832   5.717   6.789  0.1833  1.0592  0.2954
   36MOL   H17519145   0.409   5.701   7.573 -2.3848 -1.2338  0.6867
   36MOL   H17619146   0.269   5.661   7.482  0.5623 -0.0649 -0.6456
   36MOL   H17719147   0.282   5.822   7.548 -2.3486 -0.1213 -1.4756
   36MOL   H17819148   0.495   5.852   7.405 -0.9824  3.1178 -0.7513
   36MOL   H17919149   0.351   5.872   7.332  0.9992  0.2717 -0.2666
   36MOL   H18019150   0.493   5.600   7.338 -1.0945  1.7573  1.2086
   36MOL   H18119151   0.366   5.620   7.239 -0.2986 -1.5784  2.9647
   36MOL   H18219152   0.612   5.641   7.140 -0.4952  0.3699 -1.0779
   36MOL   H18319153   0.619   5.800   7.210 -3.0084  1.7730  1.0367
   36MOL   H18419154   0.448   5.890   7.077  0.5445  1.2087 -1.7619
   36MOL   H18519155   0.406   5.725   7.004  0.3921 -0.4897  0.2820
   36MOL   H18619156   0.898   5.989   6.827  0.0782  1.6114  1.7965
   36MOL   H18719157   0.812   5.925   6.963 -2.0580 -0.9122 -0.1496
   36MOL   H18819158   0.736   6.045   6.866  0.9665  0.3198  0.1866
   36MOL   H18919159   0.918   5.733   6.723  1.1390  0.3440  1.3457
   36MOL   H19019160   0.875   5.708   6.888 -0.6669 -2.5213  0.4295
   36MOL   C19119161   0.695   5.758   5.941  0.4476  0.0282 -0.7549
   36MOL   C19219162   0.793   5.724   6.058  0.0967  0.4952  0.3843
   36MOL   C19319163   0.713   5.649   6.163  0.1558  0.5572 -0.1022
   36MOL   C19419164   0.795   5.635   6.287 -0.5502 -0.0907 -0.2823
   36MOL   C19519165   0.717   5.554   6.394  0.5723 -0.4796  0.3501
   36MOL   O19619166   0.778   5.579   6.521  0.0133  0.4812 -0.6225
   36MOL   C19719167   0.713   5.540   6.632 -0.6588 -0.3873  0.0299
   36MOL   O19819168   0.596   5.502   6.629 -0.2150  0.3864 -0.3706
   36MOL   C19919169   0.789   5.560   6.764  0.2516 -0.4142 -0.3857
   36MOL   C20019170   0.699   5.519   6.884 -0.0494  0.2995 -0.3000
   36MOL   C20119171   0.924   5.473   6.756  0.2361  0.2038  0.1296
   36MOL   H20219172   0.748   5.802   5.856  1.5866  2.6529  1.2000
   36MOL   H20319173   0.654   5.664   5.906  1.3595 -0.0518 -1.6487
   36MOL   H20419174   0.612   5.821   5.971  0.4625 -0.0818 -0.4797
   36MOL   H20519175   0.836   5.818   6.094 -2.6375  1.8908  0.0993
   36MOL   H20619176   0.874   5.662   6.021 -0.7969  0.4049 -1.4595
   36MOL   H20719177   0.674   5.557   6.119  0.2449  1.2889 -1.7277
   36MOL   H20819178   0.625   5.706   6.195  0.0489  0.4087 -0.1273
   36MOL   H20919179   0.892   5.590   6.266 -0.4540  0.8090 -1.8706
   36MOL   H21019180   0.808   5.738   6.322 -0.1709 -1.2833  3.2975
   36MOL   H21119181   0.611   5.580   6.400  0.3849 -0.9241 -0.9649
   36MOL   H21219182   0.721   5.449   6.364  1.4446  0.0402 -1.3869
   36MOL   H21319183   0.650   5.422   6.871  1.8110 -0.9100  1.3582
   36MOL   H21419184   0.616   5.587   6.904  1.0492  1.6064 -0.1384
   36MOL   H21519185   0.756   5.510   6.976  3.5681  0.2314 -2.4626
   36MOL   H21619186   0.988   5.519   6.831  0.7519 -2.2073  1.2280
   36MOL   H21719187   0.981   5.503   6.669 -1.4059  3.7187  0.1887
   36MOL   C21819188   1.045   4.956   7.511 -0.3511  0.4952 -0.1290
   36MOL   C21919189   1.037   4.981   7.354 -0.0531 -0.0423 -0.2317
   36MOL   C22019190   1.012   5.130   7.321 -0.5592 -0.9194  1.4537
   36MOL   C22119191   1.007   5.145   7.176 -0.0958 -0.2621  0.6605
   36MOL   C22219192   0.972   5.290   7.139 -0.4638 -0.1368  1.0226
   36MOL   O22319193   0.996   5.316   7.002  0.1248 -0.5442  0.2528
   36MOL   C22419194   0.900   5.282   6.910 -0.2436  0.6626 -0.4051
   36MOL   O22519195   0.789   5.230   6.938  0.4428 -0.5274  0.0521
   36MOL   C22619196   0.943   5.318   6.763  0.3167 -1.0647 -0.0625
   36MOL   C22719197   1.089   5.287   6.737  0.3606 -0.4795 -0.1769
   36MOL   C22819198   0.846   5.259   6.657  0.3929  1.1028  0.1832
   36MOL   H22919199   1.071   4.851   7.520  1.5534  0.8523 -1.2249
   36MOL   H23019200   1.102   5.033   7.563  2.3992 -1.7615  0.3150
   36MOL   H23119201   0.940   4.971   7.538 -0.0181  2.4104  0.1698
   36MOL   H23219202   0.964   4.918   7.303 -0.1423  0.1730 -0.3705
   36MOL   H23319203   1.126   4.948   7.301 -1.7236  0.5350 -3.5035
   36MOL   H23419204   1.086   5.192   7.372 -1.4915  0.3387  1.3158
   36MOL   H23519205   0.914   5.156   7.362 -1.4017 -0.0142 -1.0383
   36MOL   H23619206   1.100   5.120   7.125 -0.5795 -0.0543 -0.3400
   36MOL   H23719207   0.927   5.083   7.134 -0.1011  0.3614 -0.2653
   36MOL   H23819208   1.039   5.352   7.198 -1.1675  0.3388  1.3421
   36MOL   H23919209   0.866   5.314   7.154 -1.0994 -1.0558 -1.7540
   36MOL   H24019210   1.095   5.265   6.630  0.6923 -1.8773  0.1183
   36MOL   H24119211   1.130   5.191   6.771  0.6538 -0.1204  0.4782
   36MOL   H24219212   1.163   5.364   6.759 -0.8228  1.3882 -2.5015
   36MOL   H24319213   0.856   5.309   6.560  2.3311 -0.5900 -0.5136
   36MOL   H24419214   0.744   5.279   6.689  0.1891  0.8032 -0.2647
   36MOL   C24519215   1.179   5.540   6.085 -0.9029 -0.3816 -0.0895
   36MOL   C24619216   1.120   5.405   6.040 -0.5944  0.6117  0.0205
   36MOL   C24719217   1.142   5.299   6.151 -0.3171  0.4308  1.0439
   36MOL   C24819218   1.030   5.293   6.249  0.1746  0.1103 -0.4975
   36MOL   C24919219   0.989   5.152   6.275  0.3329 -0.0505  0.4085
   36MOL   O25019220   0.901   5.155   6.385 -0.0509 -0.3797 -0.4174
   36MOL   C25119221   0.942   5.084   6.498  0.1057 -0.3400  0.8859
   36MOL   O25219222   1.053   5.041   6.509 -0.0750 -0.1786  0.1608
   36MOL   C25319223   0.841   5.099   6.614  0.0715  0.4571  0.0894
   36MOL   C25419224   0.696   5.088   6.565 -0.2322  0.2175  0.3328
   36MOL   C25519225   0.864   5.000   6.732 -0.4326  0.6304 -0.5086
   36MOL   H25619226   1.116   5.579   6.164  1.1194 -0.0091  1.3762
   36MOL   H25719227   1.280   5.527   6.123 -0.3913  3.8610  0.1981
   36MOL   H25819228   1.191   5.610   6.002 -1.6178  0.0495  0.1670
   36MOL   H25919229   1.015   5.416   6.010 -1.0418 -0.8551  0.9744
   36MOL   H26019230   1.183   5.375   5.957 -1.9525 -1.0488 -0.4298
   36MOL   H26119231   1.241   5.300   6.196  0.0130  1.3311  0.3067
   36MOL   H26219232   1.128   5.209   6.090  3.1663 -0.4967  1.5382
   36MOL   H26319233   1.069   5.327   6.345  0.9459 -4.7224  1.0526
   36MOL   H26419234   0.941   5.352   6.227 -1.3079 -1.9961 -0.3807
   36MOL   H26519235   0.936   5.114   6.188  0.9094 -2.5874  1.1083
   36MOL   H26619236   1.086   5.103   6.279  0.2626 -0.1922  0.3829
   36MOL   H26719237   0.675   5.159   6.484 -0.2216 -1.1296 -0.8603
   36MOL   H26819238   0.687   4.991   6.517  1.3804  0.0123  0.4158
   36MOL   H26919239   0.632   5.090   6.653 -0.1761  0.6107  0.3674
   36MOL   H27019240   0.968   5.021   6.758 -1.1447 -0.0118  3.1638
   36MOL   H27119241   0.805   5.039   6.815  1.1086  1.5882  0.1558
   36MOL   C27219242   0.085   4.837   7.057 -0.0027  0.4905 -0.1819
   36MOL   C27319243   0.234   4.871   7.027 -0.4347  0.6907  0.1548
   36MOL   C27419244   0.257   4.938   6.895  0.0416  0.0162  0.4371
   36MOL   C27519245   0.406   4.966   6.859 -0.1354  0.4320  0.2868
   36MOL   C27619246   0.476   4.846   6.792 -0.1593 -0.1575 -0.5914
   36MOL   O27719247   0.614   4.871   6.798 -0.0845 -0.5054  0.7037
   36MOL   C27819248   0.694   4.807   6.711 -0.2535  0.3590  0.2998
   36MOL   O27919249   0.655   4.723   6.627  0.0764 -0.0103 -0.4525
   36MOL   C28019250   0.849   4.843   6.730  0.2911  0.6811  0.2278
   36MOL   C28119251   0.922   4.776   6.607  0.0131 -0.4594 -0.4425
   36MOL   C28219252   0.888   4.779   6.878 -0.9171  0.7958  1.0012
   36MOL   H28319253   0.039   4.793   6.968 -3.2255  1.8241  0.7406
   36MOL   H28419254   0.061   4.765   7.136 -2.7306  1.7481  0.2042
   36MOL   H28519255   0.038   4.935   7.068 -2.4923 -0.8444  1.7146
   36MOL   H28619256   0.273   4.931   7.109 -1.4139 -1.0143  1.9182
   36MOL   H28719257   0.294   4.780   7.031 -0.1496  0.9424  2.1910
   36MOL   H28819258   0.227   4.872   6.813  0.4160 -0.4514  0.6712
   36MOL   H28919259   0.193   5.025   6.902  0.1933  0.1922 -0.2990
   36MOL   H29019260   0.412   5.058   6.800 -0.0396  1.1160  1.3613
   36MOL   H29119261   0.449   4.983   6.957  0.5349 -1.5137  0.3422
   36MOL   H29219262   0.450   4.831   6.688  0.2738  1.2776 -0.9216
   36MOL   H29319263   0.444   4.752   6.836  0.1163 -0.4339 -0.9823
   36MOL   H29419264   0.910   4.668   6.604 -2.9989 -0.2214  1.5708
   36MOL   H29519265   0.887   4.810   6.510 -0.3773 -1.4579 -0.6566
   36MOL   H29619266   1.031   4.781   6.615 -0.0798 -1.5792  2.1186
   36MOL   H29719267   0.864   4.861   6.946  1.5381  1.8690  0.6369
   36MOL   H29819268   0.804   4.711   6.890 -0.3084 -0.6722 -2.4774
   36MOL   C29919269   1.349   4.802   6.235 -0.1827  0.5783  0.3415
   36MOL   C30019270   1.413   4.799   6.375 -0.4061 -0.5843  0.3171
   36MOL   C30119271   1.314   4.847   6.485  0.3045  0.1353  0.1710
   36MOL   C30219272   1.385   4.888   6.610 -0.4979 -0.2244  0.2955
   36MOL   C30319273   1.291   4.926   6.722 -0.4838 -0.6600  0.7164
   36MOL   O30419274   1.205   4.821   6.766 -0.1628 -0.0068 -0.3402
   36MOL   C30519275   1.132   4.829   6.880 -0.0706  0.6450 -0.1218
   36MOL   O30619276   1.140   4.932   6.949 -0.0252 -0.6226  0.1551
   36MOL   C30719277   1.037   4.712   6.918  0.8786 -0.2212 -0.1810
   36MOL   C30819278   1.045   4.706   7.078 -0.1404  0.2833  0.1890
   36MOL   C30919279   1.079   4.579   6.840 -0.2051 -0.6551  0.3297
   36MOL   H31019280   1.306   4.900   6.212 -0.2555  0.3897 -0.3270
   36MOL   H31119281   1.274   4.723   6.223  0.4903 -0.2008  1.2521
   36MOL   H31219282   1.430   4.783   6.166 -0.0969  2.4608 -0.0960
   36MOL   H31319283   1.494   4.871   6.379  0.3793 -1.4536  0.3091
   36MOL   H31419284   1.464   4.706   6.400 -0.1447 -0.7088 -0.6408
   36MOL   H31519285   1.254   4.758   6.504 -0.9557  1.1368  0.9844
   36MOL   H31619286   1.251   4.925   6.443  0.6300 -0.0676 -0.7092
   36MOL   H31719287   1.443   4.980   6.599 -0.2033 -0.7339 -2.7288
   36MOL   H31819288   1.467   4.820   6.632 -0.2959 -0.3983 -0.9973
   36MOL   H31919289   1.355   4.957   6.804  0.1940  0.5051 -0.2345
   36MOL   H32019290   1.240   5.016   6.690  1.0743  0.3332  0.9733
   36MOL   H32119291   0.950   4.671   7.118  0.0059 -0.7516 -0.3345
   36MOL   H32219292   1.125   4.642   7.117 -1.9392 -0.9259  1.9615
   36MOL   H32319293   1.064   4.801   7.126  0.3559 -0.0023  0.5668
   36MOL   H32419294   1.186   4.561   6.856  0.1547  0.0002 -1.2952
   36MOL   H32519295   1.076   4.611   6.736 -1.9281  0.2125  0.6252
   36MOL   C32619296   1.139   4.591   7.527 -0.0274 -0.9673  0.8853
   36MOL   C32719297   1.205   4.456   7.547 -0.0961 -0.5062 -0.4551
   36MOL   C32819298   1.187   4.352   7.441 -0.0961  0.1692 -0.5001
   36MOL   C32919299   1.213   4.403   7.299 -0.2934  0.5985 -0.4411
   36MOL   C33019300   1.167   4.308   7.194 -0.5578 -0.2558  0.1023
   36MOL   O33119301   1.144   4.376   7.068 -0.1031  0.4171 -0.4308
   36MOL   C33219302   1.021   4.396   7.018 -0.1548  0.0010 -0.3708
   36MOL   O33319303   0.916   4.392   7.085  0.0009  0.2426 -0.0333
   36MOL   C33419304   1.009   4.440   6.867 -0.4660 -0.3004 -0.0484
   36MOL   C33519305   0.854   4.450   6.826  0.0367  0.5463  0.1764
   36MOL   C33619306   1.082   4.336   6.773 -0.6040 -0.8944  0.7684
   36MOL   H33719307   1.155   4.636   7.625  0.5142 -0.1699  0.4473
   36MOL   H33819308   1.033   4.587   7.504  0.2283 -1.9328 -0.1631
   36MOL   H33919309   1.190   4.641   7.444 -1.6018 -0.3689  0.2652
   36MOL   H34019310   1.170   4.416   7.642  0.2749  1.6375  0.6162
   36MOL   H34119311   1.312   4.469   7.563 -0.4266  3.4231 -1.0590
   36MOL   H34219312   1.084   4.319   7.435  0.3053 -0.7058 -3.6189
   36MOL   H34319313   1.255   4.270   7.465 -4.6549 -3.8302 -0.6264
   36MOL   H34419314   1.319   4.426   7.282  0.1194 -1.3882 -0.7046
   36MOL   H34519315   1.157   4.496   7.292  2.2279  2.2302  0.2502
   36MOL   H34619316   1.075   4.268   7.237  0.7218 -1.2263  1.9961
   36MOL   H34719317   1.232   4.221   7.184 -1.8175 -0.9367 -2.5033
   36MOL   H34819318   0.793   4.515   6.889 -1.3402 -0.7896  0.2506
   36MOL   H34919319   0.802   4.355   6.840  2.6648 -0.9799 -0.2293
   36MOL   H35019320   0.833   4.458   6.719 -2.5330  2.5952  0.7712
   36MOL   H35119321   1.189   4.345   6.792 -1.0036  3.1967  1.5239
   36MOL   H35219322   1.071   4.371   6.670 -0.6309 -2.7233  0.1398
   36MOL   C35319323   0.389   4.132   6.676 -0.1562 -0.0369 -0.1550
   36MOL   C35419324   0.516   4.146   6.589  0.0207  0.9319 -0.2684
   36MOL   C35519325   0.576   4.286   6.607  0.2704 -0.2404 -0.4969
   36MOL   C35619326   0.671   4.319   6.487  0.0589  1.0955 -0.0876
   36MOL   C35719327   0.800   4.230   6.468 -0.0836  0.2844  0.1033
   36MOL   O35819328   0.907   4.248   6.566 -0.0346  0.1737 -0.2282
   36MOL   C35919329   0.925   4.153   6.661  0.7118  0.4031 -0.0468
   36MOL   O36019330   0.851   4.052   6.676  0.6337 -0.2673  0.7045
   36MOL   C36119331   1.040   4.179   6.759  0.2491  0.4239  0.0907
   36MOL   C36219332   0.995   4.126   6.893 -0.4310 -0.0985 -0.4972
   36MOL   C36319333   1.164   4.094   6.716 -0.6508 -0.3374 -0.4281
   36MOL   H36419334   0.334   4.038   6.669 -0.0500  0.0143 -1.8282
   36MOL   H36519335   0.312   4.200   6.642 -1.5620  0.8304  4.4380
   36MOL   H36619336   0.408   4.140   6.783  0.9037 -4.7845  0.1617
   36MOL   H36719337   0.591   4.069   6.605  0.0001  1.3065  1.7830
   36MOL   H36819338   0.493   4.130   6.484  1.2631 -0.9855 -0.2592
   36MOL   H36919339   0.634   4.276   6.698 -0.8327  4.2102  0.8110
   36MOL   H37019340   0.501   4.362   6.627  0.1433 -0.5973  0.3745
   36MOL   H37119341   0.703   4.423   6.492 -0.4211  1.3281 -1.7145
   36MOL   H37219342   0.608   4.318   6.399  0.7758  0.5766 -0.6037
   36MOL   H37319343   0.769   4.125   6.465 -1.3771  0.6324  0.8233
   36MOL   H37419344   0.841   4.256   6.370  0.7803  1.7785  0.8460
   36MOL   H37519345   0.911   4.186   6.930 -0.0173  0.5339 -0.5927
   36MOL   H37619346   0.968   4.020   6.896  1.6571 -0.6468 -0.5266
   36MOL   H37719347   1.078   4.138   6.962  0.7435 -0.4341 -1.8450
   36MOL   H37819348   1.236   4.125   6.792 -1.0216  3.1870 -1.4386
   36MOL   H37919349   1.142   3.989   6.734 -2.6415  0.2087  0.4230
   36MOL   C38019350   0.828   4.442   6.069  0.1798 -0.7890 -0.7461
   36MOL   C38119351   0.904   4.520   6.185 -0.6349  0.4967  0.7723
   36MOL   C38219352   1.029   4.454   6.242  0.2665  0.0934  0.2970
   36MOL   C38319353   1.078   4.514   6.375  0.6175  0.3415  0.3295
   36MOL   C38419354   1.203   4.442   6.426 -0.5711  0.1357  0.7227
   36MOL   O38519355   1.175   4.304   6.475 -0.0820  0.6298 -0.0139
   36MOL   C38619356   1.279   4.231   6.528  0.1281  0.5540 -0.3391
   36MOL   O38719357   1.397   4.268   6.534  0.0255  0.0495 -0.0791
   36MOL   C38819358   1.239   4.087   6.582  0.0996  0.0242 -0.0192
   36MOL   C38919359   1.367   4.007   6.616  0.1472  0.2676 -0.4318
   36MOL   C39019360   1.163   4.001   6.469 -0.5970 -0.3921 -0.2465
   36MOL   H39119361   0.796   4.341   6.094  0.1223 -1.2203 -2.4689
   36MOL   H39219362   0.741   4.501   6.039 -1.0620 -3.6370 -2.9737
   36MOL   H39319363   0.891   4.431   5.981  1.6860 -0.4314  0.2600
   36MOL   H39419364   0.830   4.539   6.263 -1.8968 -0.7905 -0.0960
   36MOL   H39519365   0.938   4.618   6.153  0.6310 -0.5967 -1.3103
   36MOL   H39619366   1.018   4.345   6.251  3.0231 -0.1709  0.7881
   36MOL   H39719367   1.109   4.446   6.169 -0.0274  1.0474 -0.1296
   36MOL   H39819368   1.106   4.619   6.366  0.0212  0.8195  3.4462
   36MOL   H39919369   1.001   4.508   6.452 -0.4087  3.3949 -0.3755
   36MOL   H40019370   1.231   4.498   6.515 -3.5373  2.2089  0.4293
   36MOL   H40119371   1.289   4.464   6.363 -1.0242 -1.8084 -0.6415
   36MOL   H40219372   1.349   3.905   6.650 -2.4972  1.2542  1.2742
   36MOL   H40319373   1.419   4.050   6.702  0.3344 -0.3302 -0.2443
   36MOL   H40419374   1.441   4.010   6.536  1.1139 -1.6125  0.3557
   36MOL   H40519375   1.065   4.041   6.442 -0.7013 -0.3500  0.1992
   36MOL   H40619376   1.137   3.907   6.518 -1.9250 -0.9079 -1.8569
   36MOL   C40719377   1.526   3.209   6.105  0.1037 -0.1448  0.0457
   36MOL   C40819378   1.445   3.342   6.101 -0.0927  0.0328 -0.5986
   36MOL   C40919379   1.485   3.445   6.208 -0.2877 -0.3210  0.4550
   36MOL   C41019380   1.379   3.551   6.247  0.0383  0.2945  1.2795
   36MOL   C41119381   1.424   3.651   6.349  0.6105  0.2964 -0.8891
   36MOL   O41219382   1.324   3.745   6.370 -0.4002  0.5120  0.4793
   36MOL   C41319383   1.352   3.871   6.345  0.0065  0.5971  0.2744
   36MOL   O41419384   1.464   3.915   6.327 -0.5750  0.1127 -0.0137
   36MOL   C41519385   1.221   3.959   6.328  0.2023 -0.8321  0.7963
   36MOL   C41619386   1.118   3.865   6.272  0.1744  0.2712  0.0196
   36MOL   C41719387   1.235   4.086   6.233 -0.5072  0.1211 -0.2855
   36MOL   H41819388   1.631   3.235   6.088  0.5369 -3.5677 -3.1694
   36MOL   H41919389   1.520   3.163   6.203  0.0112 -1.2138 -0.4544
   36MOL   H42019390   1.513   3.132   6.029 -1.8087 -0.2859  0.4951
   36MOL   H42119391   1.339   3.324   6.120 -0.1483  0.9713 -0.0053
   36MOL   H42219392   1.449   3.386   6.001 -1.1224 -1.3597 -1.2634
   36MOL   H42319393   1.534   3.411   6.299  2.2079  2.2352  0.1588
   36MOL   H42419394   1.564   3.508   6.166  1.0064  0.0633  3.3320
   36MOL   H42519395   1.292   3.493   6.278 -0.4701 -0.8340 -2.0306
   36MOL   H42619396   1.350   3.600   6.154 -0.6624  0.7568  1.7325
   36MOL   H42719397   1.442   3.593   6.439 -1.9071 -0.4926 -0.8631
   36MOL   H42819398   1.516   3.689   6.304  1.1477 -2.4527 -2.2198
   36MOL   H42919399   1.109   3.777   6.336  0.8857 -0.3154 -0.6640
   36MOL   H43019400   1.152   3.824   6.177 -0.7448  1.5301 -0.8618
   36MOL   H43119401   1.021   3.905   6.247  1.6094  1.8610 -3.1778
   36MOL   H43219402   1.323   4.134   6.275 -0.7224 -0.7422  1.1789
   36MOL   H43319403   1.160   4.163   6.250 -0.4402  0.3769 -1.1184
   36MOL   C43419404   1.824   4.488   6.402  0.4813  0.4734  0.0922
   36MOL   C43519405   1.782   4.443   6.253 -0.1491  0.3985  0.3051
   36MOL   C43619406   1.639   4.430   6.227  0.5021 -0.2412  0.6112
   36MOL   C43719407   1.607   4.419   6.073  0.2746 -1.2412 -0.0882
   36MOL   C43819408   1.458   4.411   6.049  0.1810  0.4270 -0.3397
   36MOL   O43919409   1.414   4.279   6.072  0.0305  0.2413 -0.0409
   36MOL   C44019410   1.302   4.226   6.029  0.2089 -0.8778 -0.6399
   36MOL   O44119411   1.212   4.282   5.967  0.3259 -0.1331  0.1601
   36MOL   C44219412   1.283   4.078   6.075 -0.2416 -0.0492 -0.2375
   36MOL   C44319413   1.173   4.008   5.993 -0.5050 -0.0587  0.4206
   36MOL   C44419414   1.421   4.001   6.047  0.0776 -0.5187 -0.3117
   36MOL   H44519415   1.775   4.409   6.459  2.2956 -0.4109  0.4826
   36MOL   H44619416   1.932   4.490   6.417  0.5878  1.6014 -0.7615
   36MOL   H44719417   1.777   4.579   6.438 -0.6351 -0.0620  0.0168
   36MOL   H44819418   1.835   4.512   6.188  2.0256 -0.2742  1.3021
   36MOL   H44919419   1.821   4.343   6.234 -1.0484 -0.0994  1.0300
   36MOL   H45019420   1.600   4.341   6.277 -0.3466 -0.1229  0.1759
   36MOL   H45119421   1.597   4.523   6.267  1.7812  0.2610  0.8069
   36MOL   H45219422   1.657   4.332   6.029  1.0559 -0.2786 -1.1095
   36MOL   H45319423   1.645   4.508   6.023  1.4526 -0.8276  1.4844
   36MOL   H45419424   1.426   4.436   5.947 -2.2647 -1.3592 -0.0630
   36MOL   H45519425   1.398   4.479   6.109  1.0952  0.6408  0.3461
   36MOL   H45619426   1.077   4.012   6.045 -0.9445 -1.2818 -0.2630
   36MOL   H45719427   1.143   4.053   5.899 -4.5517  1.9082  2.5287
   36MOL   H45819428   1.185   3.900   5.980 -1.0722 -0.2836  1.6762
   36MOL   H45919429   1.415   3.901   6.091 -1.1768  0.2505  1.3143
   36MOL   H46019430   1.502   4.053   6.097 -0.5314 -0.1670  0.3252
   36MOL   C46119431   2.018   3.926   6.370 -0.0815 -0.0456 -0.3445
   36MOL   C46219432   1.905   4.034   6.371  0.5170  0.1271  0.6345
   36MOL   C46319433   1.803   4.013   6.265  0.0007  0.2572  0.8800
   36MOL   C46419434   1.854   4.061   6.125  0.1072  0.2845 -0.4402
   36MOL   C46519435   1.842   3.945   6.023  0.2971  0.0464  0.7660
   36MOL   O46619436   1.702   3.909   5.990 -0.8290 -0.3110  0.2515
   36MOL   C46719437   1.632   3.992   5.910  1.0003 -0.8035  0.1365
   36MOL   O46819438   1.684   4.087   5.847 -0.4540  0.2636 -0.0416
   36MOL   C46919439   1.476   3.974   5.904  0.0167 -0.5799  0.0382
   36MOL   C47019440   1.423   4.080   5.798  0.2199 -0.7621  0.1919
   36MOL   C47119441   1.441   3.825   5.851  0.3199 -1.1773  0.4568
   36MOL   H47219442   2.061   3.943   6.469 -1.5807  2.4781 -0.0781
   36MOL   H47319443   2.098   3.940   6.296  0.4462 -0.0534  0.2202
   36MOL   H47419444   1.985   3.823   6.377 -2.8013  0.8449  0.4560
   36MOL   H47519445   1.945   4.135   6.372 -1.8600  1.1206 -0.2056
   36MOL   H47619446   1.858   4.031   6.469 -0.8209 -1.7925 -0.0374
   36MOL   H47719447   1.710   4.067   6.285 -1.2623 -1.8743  0.9300
   36MOL   H47819448   1.767   3.910   6.264  2.4831 -0.6488  1.5842
   36MOL   H47919449   1.958   4.091   6.127 -0.3558  1.9403 -0.2253
   36MOL   H48019450   1.802   4.151   6.092  0.0664  0.8408  1.1108
   36MOL   H48119451   1.893   3.964   5.928 -1.0676  0.3265  0.0825
   36MOL   H48219452   1.898   3.856   6.054  1.7335  0.3512 -0.9089
   36MOL   H48319453   1.320   4.071   5.765 -0.2311  0.8318  1.1159
   36MOL   H48419454   1.484   4.082   5.708 -0.8016  1.7721 -0.4881
   36MOL   H48519455   1.423   4.186   5.824 -1.4794 -0.7529  0.1966
   36MOL   H48619456   1.333   3.819   5.866  0.5348 -1.6398  1.9426
   36MOL   H48719457   1.477   3.763   5.933 -0.3469 -0.3864  1.3603
   36MOL   C48819458   0.829   3.644   5.849  0.6089 -0.0956 -0.0329
   36MOL   C48919459   0.862   3.771   5.770  0.1290  0.5189  0.7291
   36MOL   C49019460   0.986   3.757   5.689  0.0459 -0.0652 -0.3661
   36MOL   C49119461   1.027   3.894   5.622  0.6551 -0.0350 -0.2094
   36MOL   C49219462   1.159   3.873   5.546  0.1585 -0.5061 -0.2419
   36MOL   O49319463   1.255   3.818   5.627  0.3541 -0.2913 -0.3111
   36MOL   C49419464   1.381   3.842   5.600  0.3780  0.2637 -0.0133
   36MOL   O49519465   1.415   3.918   5.514  0.4420 -0.2816  0.5466
   36MOL   C49619466   1.470   3.770   5.697 -0.1158 -0.5132 -0.3311
   36MOL   C49719467   1.447   3.619   5.706  0.4511 -0.0614 -0.3238
   36MOL   C49819468   1.622   3.793   5.651 -0.0796  0.1248  0.5789
   36MOL   H49919469   0.798   3.557   5.791 -0.1102  0.2265 -0.1358
   36MOL   H50019470   0.921   3.602   5.890  0.4245 -0.0182  0.4558
   36MOL   H50119471   0.762   3.651   5.934 -1.1526 -1.9885 -1.2195
   36MOL   H50219472   0.876   3.845   5.849 -0.7003 -0.5827  1.9368
   36MOL   H50319473   0.778   3.806   5.710 -0.4365 -0.6290  0.8373
   36MOL   H50419474   1.068   3.711   5.745 -0.6378  0.9600  1.5218
   36MOL   H50519475   0.955   3.684   5.614 -3.3864  1.2855 -0.3556
   36MOL   H50619476   1.044   3.977   5.691 -2.5633  0.4230  0.0980
   36MOL   H50719477   0.953   3.926   5.549 -0.4805 -0.6212  0.6797
   36MOL   H50819478   1.152   3.816   5.453 -0.2880  1.0853 -1.2052
   36MOL   H50919479   1.200   3.965   5.503 -1.8341 -0.3495 -1.8868
   36MOL   H51019480   1.445   3.579   5.605 -0.6725  1.2024 -0.8264
   36MOL   H51119481   1.350   3.604   5.754 -0.2482 -2.4366 -2.3808
   36MOL   H51219482   1.518   3.564   5.767  0.2923  0.1622  0.0735
   36MOL   H51319483   1.681   3.783   5.742  0.1043  0.6031  0.5146
   36MOL   H51419484   1.632   3.899   5.629 -2.4919  0.4034  0.7690
   36MOL   C51519485   2.113   3.618   6.098 -0.2868  0.1797 -0.0802
   36MOL   C51619486   2.041   3.541   5.994  0.2229  0.2265  0.3227
   36MOL   C51719487   1.890   3.546   5.998  0.0206 -0.1391 -0.0139
   36MOL   C51819488   1.832   3.429   5.919  0.4595  0.4648  0.1650
   36MOL   C51919489   1.840   3.445   5.766  0.6763  0.8204  0.0678
   36MOL   O52019490   1.809   3.575   5.713  0.0027 -0.3812  0.3913
   36MOL   C52119491   1.747   3.582   5.590 -0.0437 -0.5991  0.5905
   36MOL   O52219492   1.723   3.484   5.516  0.3593  0.8697 -0.1642
   36MOL   C52319493   1.708   3.724   5.535  0.2344  0.5448 -0.0361
   36MOL   C52419494   1.842   3.801   5.501 -0.3970  0.3765  0.2027
   36MOL   C52519495   1.635   3.715   5.404  0.4472 -0.2170  1.4979
   36MOL   H52619496   2.129   3.723   6.074  1.4332 -0.2287 -0.8292
   36MOL   H52719497   2.070   3.604   6.198  0.7136  0.4570  0.3957
   36MOL   H52819498   2.216   3.581   6.102 -0.1343  0.4762 -1.3302
   36MOL   H52919499   2.081   3.570   5.897 -0.5318  0.3304  0.0453
   36MOL   H53019500   2.061   3.436   6.013  1.6879  0.2646 -0.8492
   36MOL   H53119501   1.852   3.556   6.100  0.9574  1.9984  0.1513
   36MOL   H53219502   1.863   3.642   5.954  0.0363 -0.1439 -0.0343
   36MOL   H53319503   1.724   3.428   5.935  0.5350 -0.2181  0.6045
   36MOL   H53419504   1.863   3.334   5.962 -0.7141  1.0462  2.3664
   36MOL   H53519505   1.943   3.426   5.736  0.7278  1.3843 -0.1138
   36MOL   H53619506   1.786   3.364   5.716 -0.2776  0.6199  1.3870
   36MOL   H53719507   1.923   3.734   5.472 -1.0630  0.2346 -1.3919
   36MOL   H53819508   1.870   3.859   5.589  2.4751 -0.1103 -0.3305
   36MOL   H53919509   1.822   3.876   5.424 -0.3147 -1.4171 -1.6221
   36MOL   H54019510   1.590   3.799   5.352 -1.6104 -2.1790 -0.0156
   36MOL   H54119511   1.545   3.656   5.422 -0.4723 -0.5845 -3.5582
   36MOL   H54219512   1.695   3.666   5.328 -2.0551  0.0760 -0.7377
   37MOL     C119513   5.948   5.285   5.066  0.0966  0.0920 -0.0385
   37MOL     C219514   6.033   5.298   5.186  0.0054  0.2975  0.5928
   37MOL     C319515   6.091   5.440   5.203  0.3586  0.3319 -0.0537
   37MOL     C419516   5.992   5.546   5.245 -0.2260  0.7848  0.1792
   37MOL     C519517   5.909   5.611   5.133 -0.3526 -0.2821 -0.1470
   37MOL     O619518   5.997   5.648   5.025  0.1399  0.3927 -0.3129
   37MOL     C719519   6.005   5.777   4.975  0.0239  0.8593  0.3668
   37MOL     O819520   5.926   5.869   5.006  0.7649  0.2217  0.2909
   37MOL     C919521   6.131   5.792   4.885  0.0443 -0.7667 -0.3701
   37MOL    C1019522   6.117   5.697   4.770  0.2194  0.3739  0.1506
   37MOL    C1119523   6.257   5.772   4.975 -0.3945  0.0619 -0.3684
   37MOL    H1219524   5.997   5.317   4.974  0.3533 -1.5104 -0.4863
   37MOL    H1319525   5.851   5.333   5.077  0.8385  1.9505 -1.4074
   37MOL    H1419526   5.940   5.177   5.052  1.2803 -0.0723  0.5345
   37MOL    H1519527   5.987   5.253   5.274 -1.7419 -1.3713 -1.1396
   37MOL    H1619528   6.126   5.241   5.175 -0.5071  0.0422 -3.2307
   37MOL    H1719529   6.164   5.437   5.284  0.5933  0.7371 -0.2518
   37MOL    H1819530   6.135   5.476   5.110  1.1903 -0.5606 -0.0097
   37MOL    H1919531   6.049   5.615   5.307  0.9620 -1.1283  1.2788
   37MOL    H2019532   5.923   5.501   5.316 -2.0286  3.0818 -0.0469
   37MOL    H2119533   5.850   5.531   5.088  0.2442  0.1893 -1.8226
   37MOL    H2219534   5.848   5.692   5.173 -0.1716  0.0211 -0.4779
   37MOL    H2319535   6.021   5.701   4.717  1.9466  0.0273 -3.1370
   37MOL    H2419536   6.136   5.593   4.795 -0.1231  0.0489 -0.9046
   37MOL    H2519537   6.188   5.731   4.695 -0.4449  1.2340 -0.1039
   37MOL    H2619538   6.268   5.670   5.014  0.6041  0.2908 -0.0540
   37MOL    H2719539   6.250   5.836   5.063  1.5068  1.3004 -1.0945
   37MOL    H2819540   6.119   5.892   4.845  0.3665 -1.0117 -1.0916
   37MOL    C2919541   6.681   5.927   4.268  0.5865 -0.0636  0.0768
   37MOL    C3019542   6.627   6.024   4.372 -0.3334 -0.0179 -0.2353
   37MOL    C3119543   6.508   5.974   4.452  0.2702  0.4360 -0.5539
   37MOL    C3219544   6.468   6.078   4.557 -0.4285 -0.0732  0.2619
   37MOL    C3319545   6.329   6.041   4.630  0.2034  0.2160 -0.6517
   37MOL    O3419546   6.353   5.919   4.708  0.1554 -0.2259 -0.2874
   37MOL    C3519547   6.377   5.933   4.843  0.1559 -0.0651  0.1446
   37MOL    O3619548   6.357   6.040   4.901  0.0973  0.2364  0.0733
   37MOL    C3719549   6.403   5.810   4.924  0.2207 -0.1033 -0.4507
   37MOL    C3819550   6.453   5.691   4.837  0.2202  0.3974 -0.0501
   37MOL    C3919551   6.498   5.828   5.048  0.8598 -0.2789  0.4081
   37MOL    H4019552   6.611   5.923   4.185  1.0749 -0.9320 -0.3036
   37MOL    H4119553   6.771   5.965   4.219  0.1423 -1.7975 -2.1285
   37MOL    H4219554   6.702   5.826   4.303  4.2644  0.5682 -0.1073
   37MOL    H4319555   6.598   6.119   4.328  1.1310 -0.0580 -1.3172
   37MOL    H4419556   6.707   6.047   4.442  1.5932 -3.7782 -1.0700
   37MOL    H4519557   6.513   5.875   4.497  0.5206  1.6955  2.2747
   37MOL    H4619558   6.421   5.961   4.388  0.3354 -0.9946 -0.3691
   37MOL    H4719559   6.544   6.101   4.632  1.9522  1.0094 -2.4244
   37MOL    H4819560   6.454   6.173   4.506  0.5510  0.4247  0.8930
   37MOL    H4919561   6.255   6.017   4.553  1.4917 -1.7816 -1.2964
   37MOL    H5019562   6.290   6.124   4.689 -0.3807  0.3557 -1.2250
   37MOL    H5119563   6.382   5.669   4.757  1.2276  0.9038 -1.1013
   37MOL    H5219564   6.462   5.607   4.906  2.8742  0.1714 -0.6486
   37MOL    H5319565   6.553   5.707   4.798  1.2556 -0.8958  1.9616
   37MOL    H5419566   6.482   5.739   5.108  0.1535  0.1446  0.8606
   37MOL    H5519567   6.450   5.912   5.099  2.1510  0.8682 -0.2481
   37MOL    C5619568   6.526   5.385   5.303  0.5825 -0.0319 -0.0178
   37MOL    C5719569   6.518   5.394   5.155  0.2735 -0.1388  0.5450
   37MOL    C5819570   6.627   5.314   5.076  0.2303  0.5603 -0.6233
   37MOL    C5919571   6.764   5.368   5.098  0.1329  0.1392 -0.1011
   37MOL    C6019572   6.790   5.507   5.033 -0.1529  0.0205  0.4072
   37MOL    O6119573   6.719   5.618   5.074  0.4098  0.9547  0.4497
   37MOL    C6219574   6.740   5.733   5.005  0.1038 -0.8463  0.5180
   37MOL    O6319575   6.801   5.745   4.899  0.0433 -0.4890 -0.5650
   37MOL    C6419576   6.656   5.854   5.053  0.0220  0.4853 -0.1581
   37MOL    C6519577   6.678   5.873   5.205  0.3757  0.2654 -0.0570
   37MOL    C6619578   6.678   5.990   4.965  0.4911  0.7232  0.3474
   37MOL    H6719579   6.612   5.441   5.340  0.1455  2.0231 -2.0121
   37MOL    H6819580   6.516   5.286   5.349  1.0417  1.0706  2.5127
   37MOL    H6919581   6.441   5.439   5.345 -0.4593 -1.1216 -0.6747
   37MOL    H7019582   6.426   5.339   5.134  0.7477 -1.3442  1.6039
   37MOL    H7119583   6.512   5.493   5.109 -0.0570 -0.0863  0.6995
   37MOL    H7219584   6.620   5.214   5.117  0.9495 -0.5289 -3.0910
   37MOL    H7319585   6.603   5.314   4.970 -0.3876  1.1607 -0.4929
   37MOL    H7419586   6.836   5.290   5.071 -0.2192 -0.3972  0.4782
   37MOL    H7519587   6.785   5.385   5.204  1.0571 -0.8702 -0.1189
   37MOL    H7619588   6.891   5.544   5.051 -1.1401  2.9847  0.0496
   37MOL    H7719589   6.783   5.499   4.924 -2.0165  1.4886  0.4027
   37MOL    H7819590   6.784   5.866   5.229  1.1200 -0.2487 -3.2932
   37MOL    H7919591   6.632   5.793   5.264 -1.8456  2.4745  1.3055
   37MOL    H8019592   6.646   5.968   5.247 -0.5613  0.1330 -0.4468
   37MOL    H8119593   6.596   6.061   4.975  0.0050  0.4066 -1.1494
   37MOL    H8219594   6.658   5.961   4.862 -0.4091  0.4520  0.5913
   37MOL    C8319595   6.281   6.427   5.379 -0.2471 -0.4854 -0.1031
   37MOL    C8419596   6.334   6.303   5.449 -0.0220  0.6847  0.4049
   37MOL    C8519597   6.490   6.285   5.430 -0.1539 -0.1967  0.0859
   37MOL    C8619598   6.542   6.298   5.288  0.1830 -0.2968  0.1453
   37MOL    C8719599   6.683   6.255   5.269  0.0038  0.3312  0.0485
   37MOL    O8819600   6.703   6.227   5.130  0.6342  0.0372  0.5588
   37MOL    C8919601   6.816   6.172   5.092 -0.4658 -0.0749  0.2326
   37MOL    O9019602   6.912   6.167   5.166 -0.0227 -0.0574  0.5303
   37MOL    C9119603   6.802   6.087   4.966  1.0945  0.1911 -0.1354
   37MOL    C9219604   6.929   5.996   4.955  0.2306  0.2299 -0.0191
   37MOL    C9319605   6.790   6.183   4.834  0.8008 -0.3595 -0.7484
   37MOL    H9419606   6.297   6.419   5.272  0.9186  3.0628 -0.2559
   37MOL    H9519607   6.173   6.430   5.386 -0.5113 -2.8984 -2.3196
   37MOL    H9619608   6.320   6.523   5.415  0.0323  0.1983 -2.1698
   37MOL    H9719609   6.279   6.217   5.411 -0.0598  1.8889 -2.3523
   37MOL    H9819610   6.321   6.308   5.557 -4.5463  3.3286 -0.1571
   37MOL    H9919611   6.529   6.192   5.472  3.6849  1.5550  0.5902
   37MOL   H10019612   6.538   6.359   5.493 -1.1675  1.6603 -1.2815
   37MOL   H10119613   6.532   6.400   5.251  2.6656 -0.2067 -0.3961
   37MOL   H10219614   6.483   6.231   5.226  0.7696 -1.4503  0.8294
   37MOL   H10319615   6.695   6.157   5.316 -0.6169 -0.5012 -1.4898
   37MOL   H10419616   6.759   6.325   5.303  1.5811 -0.0345 -2.5593
   37MOL   H10519617   6.942   5.949   4.858  1.6973 -0.0034  0.2846
   37MOL   H10619618   6.930   5.924   5.037 -0.6524 -0.1000 -0.2960
   37MOL   H10719619   7.019   6.056   4.969 -0.1526  0.3476  2.1372
   37MOL   H10819620   6.762   6.117   4.751 -0.2900 -1.9208  0.8188
   37MOL   H10919621   6.701   6.235   4.867  1.1876 -0.3356  0.2918
   37MOL   C11019622   6.256   6.705   4.535 -0.2437  0.6341 -0.6277
   37MOL   C11119623   6.286   6.579   4.448  0.5083 -0.5791  0.6276
   37MOL   C11219624   6.435   6.551   4.439  0.1986 -0.3235  0.5263
   37MOL   C11319625   6.500   6.492   4.570 -0.8665  0.4093  0.6036
   37MOL   C11419626   6.655   6.469   4.548  0.3529 -0.0854  0.7114
   37MOL   O11519627   6.713   6.407   4.664  0.0836 -0.7010  0.0981
   37MOL   C11619628   6.828   6.337   4.653 -0.1311 -0.6423 -0.0523
   37MOL   O11719629   6.867   6.299   4.543  0.1664  0.8048 -0.1164
   37MOL   C11819630   6.901   6.285   4.785 -0.5488  0.7563  0.3760
   37MOL   C11919631   7.027   6.211   4.740 -1.0544  0.9690 -0.4861
   37MOL   C12019632   6.925   6.391   4.894  0.5259  0.1341 -0.4276
   37MOL   H12119633   6.150   6.699   4.561 -0.1116 -2.1993 -0.6218
   37MOL   H12219634   6.317   6.720   4.624  0.2913 -0.3229 -0.8333
   37MOL   H12319635   6.269   6.799   4.481  2.5495  0.7184  0.1418
   37MOL   H12419636   6.250   6.482   4.482  2.0968 -1.1128  0.8310
   37MOL   H12519637   6.229   6.602   4.358  0.4889 -1.1015  0.5077
   37MOL   H12619638   6.455   6.477   4.361  0.0638  0.9028 -0.7055
   37MOL   H12719639   6.483   6.635   4.389 -0.8305  0.5413  0.9734
   37MOL   H12819640   6.451   6.400   4.602  1.2713 -0.4311  1.5065
   37MOL   H12919641   6.492   6.564   4.651  1.4124  1.8657 -0.4054
   37MOL   H13019642   6.658   6.406   4.460  1.8119 -0.0712  0.7415
   37MOL   H13119643   6.702   6.561   4.514 -0.6794  0.2710  0.2197
   37MOL   H13219644   7.099   6.211   4.821 -1.6003  1.7357  0.0090
   37MOL   H13319645   7.015   6.114   4.692  1.1001  0.6200 -0.3797
   37MOL   H13419646   7.083   6.277   4.673 -2.2359  0.8912 -1.5646
   37MOL   H13519647   6.826   6.416   4.931 -0.1958 -1.0269 -1.5134
   37MOL   H13619648   6.982   6.337   4.970  0.4046  1.5541  0.6950
   37MOL   C13719649   6.279   6.923   4.868 -0.6582 -0.2836  0.0205
   37MOL   C13819650   6.402   6.843   4.925 -0.8676 -0.2552  0.9257
   37MOL   C13919651   6.532   6.923   4.939  0.0194  0.1796  0.0910
   37MOL   C14019652   6.661   6.847   4.978  0.6874 -1.1296 -0.1693
   37MOL   C14119653   6.716   6.762   4.865  0.6006 -0.2259  0.0451
   37MOL   O14219654   6.815   6.677   4.912 -0.4985  0.7859  0.1441
   37MOL   C14319655   6.898   6.626   4.817  0.3332  0.1533 -0.4384
   37MOL   O14419656   6.893   6.653   4.699 -0.8297  0.3800 -0.0108
   37MOL   C14519657   6.999   6.527   4.870  0.2053 -0.7709 -0.4778
   37MOL   C14619658   7.039   6.566   5.024  0.6047  0.0633 -0.7442
   37MOL   C14719659   7.131   6.516   4.778  0.3559  0.2577  0.5591
   37MOL   H14819660   6.257   7.017   4.918 -1.7382 -0.3659 -0.2906
   37MOL   H14919661   6.191   6.859   4.874 -0.3860 -0.6156  0.5057
   37MOL   H15019662   6.307   6.952   4.766  1.5881 -3.4651 -0.3497
   37MOL   H15119663   6.423   6.760   4.858 -0.4659 -0.0575  0.8059
   37MOL   H15219664   6.366   6.798   5.017 -1.9806  1.3798  1.3180
   37MOL   H15319665   6.547   6.982   4.849 -1.4136  1.1409  0.4559
   37MOL   H15419666   6.515   7.001   5.013 -0.6083  1.6907 -1.6014
   37MOL   H15519667   6.733   6.920   5.015 -1.1239  0.9781 -0.7492
   37MOL   H15619668   6.642   6.784   5.066 -0.5607  0.9245  1.0640
   37MOL   H15719669   6.754   6.822   4.782 -0.4037  1.3205  0.6833
   37MOL   H15819670   6.627   6.708   4.832  1.7279 -0.7028 -2.3543
   37MOL   H15919671   7.060   6.672   5.038 -0.7333  0.3634 -0.9947
   37MOL   H16019672   7.114   6.494   5.058  0.1009  0.1684  0.5912
   37MOL   H16119673   6.958   6.551   5.095  0.5793  0.1543 -0.7545
   37MOL   H16219674   7.177   6.423   4.813 -0.8602 -1.1108 -1.3578
   37MOL   H16319675   7.088   6.494   4.680  2.6748  2.7786 -1.0787
   37MOL   C16419676   0.173   6.434   5.053  0.2310 -0.4370 -0.0683
   37MOL   C16519677   0.058   6.501   4.991  0.2375 -0.4242 -0.3055
   37MOL   C16619678   7.735   6.473   5.060 -0.1218 -0.2051  0.5077
   37MOL   C16719679   7.628   6.520   4.961 -0.0498  0.0861  0.2541
   37MOL   C16819680   7.489   6.482   5.020  0.6972  0.3001  0.9405
   37MOL   O16919681   7.385   6.500   4.927  0.1523 -0.0751 -0.2711
   37MOL   C17019682   7.323   6.620   4.904 -0.5362 -0.0500  0.2871
   37MOL   O17119683   7.336   6.714   4.985 -0.2218  0.2136 -0.2895
   37MOL   C17219684   7.244   6.628   4.767 -0.6928  1.0852 -0.1011
   37MOL   C17319685   7.184   6.770   4.765 -1.0160  0.1570 -0.2788
   37MOL   C17419686   7.347   6.578   4.660 -0.0143  0.4845  0.6089
   37MOL   H17519687   0.159   6.332   5.017 -0.0319 -0.1690 -0.7372
   37MOL   H17619688   0.165   6.435   5.162  0.1394  1.8293 -0.0789
   37MOL   H17719689   0.260   6.486   5.013 -0.2552 -0.9007 -1.7611
   37MOL   H17819690   0.061   6.474   4.885  1.9129  1.2960 -0.7270
   37MOL   H17919691   0.066   6.609   4.998  0.9226 -0.5023  0.1921
   37MOL   H18019692   7.726   6.365   5.074 -1.7016 -0.0936  0.3927
   37MOL   H18119693   7.727   6.521   5.157  0.6952  1.8135 -0.4005
   37MOL   H18219694   7.633   6.472   4.864  1.1727  1.0468 -0.1752
   37MOL   H18319695   7.634   6.629   4.954  0.7883  0.0678  0.5483
   37MOL   H18419696   7.479   6.540   5.112 -0.4532  0.8104  0.5006
   37MOL   H18519697   7.492   6.377   5.050  0.3975 -0.0710 -0.3048
   37MOL   H18619698   7.268   6.839   4.764  0.0810 -1.1521 -1.1037
   37MOL   H18719699   7.111   6.805   4.837 -0.7376 -0.9591  0.5662
   37MOL   H18819700   7.134   6.789   4.670 -0.8118  0.0856 -0.4019
   37MOL   H18919701   7.447   6.608   4.690  0.0050  0.7910  0.2528
   37MOL   H19019702   7.343   6.469   4.654  0.8024  0.5043 -0.6807
   37MOL   C19119703   7.560   6.956   5.085 -0.1754  0.6883  0.1429
   37MOL   C19219704   7.613   6.967   4.942  0.1376 -0.5784 -0.3501
   37MOL   C19319705   7.512   6.955   4.832  0.1684 -0.0188 -0.4275
   37MOL   C19419706   7.575   6.991   4.697 -0.5844 -0.0302 -0.8296
   37MOL   C19519707   7.492   6.965   4.573 -0.3068  0.3287 -0.4959
   37MOL   O19619708   7.462   6.830   4.576  0.1701 -0.4786  0.2098
   37MOL   C19719709   7.355   6.785   4.502 -0.0932 -0.1834 -0.2307
   37MOL   O19819710   7.285   6.863   4.432  0.1222 -0.0518  0.7998
   37MOL   C19919711   7.325   6.630   4.508 -0.4240 -0.5286 -0.4456
   37MOL   C20019712   7.189   6.607   4.461  0.9663 -0.1063 -0.1610
   37MOL   C20119713   7.430   6.543   4.431 -0.7573  0.2570  0.0871
   37MOL   H20219714   7.612   7.009   5.164  0.4902 -0.9592  0.8093
   37MOL   H20319715   7.455   6.988   5.085 -0.6806 -0.9230 -1.3584
   37MOL   H20419716   7.558   6.852   5.117  3.0054  0.2924 -0.7796
   37MOL   H20519717   7.695   6.896   4.937  1.6427  1.0252  0.7628
   37MOL   H20619718   7.642   7.072   4.938  0.9526 -0.8071 -0.5267
   37MOL   H20719719   7.426   7.020   4.845 -0.1960 -1.1533  3.1506
   37MOL   H20819720   7.472   6.853   4.835  0.8433 -0.2334  4.5163
   37MOL   H20919721   7.594   7.099   4.696  0.4613 -0.2104 -0.5206
   37MOL   H21019722   7.678   6.960   4.683 -0.3767 -0.9285  2.4288
   37MOL   H21119723   7.404   7.028   4.586 -1.6555 -1.3503 -1.2896
   37MOL   H21219724   7.551   7.002   4.489  0.3460  0.1046 -0.1417
   37MOL   H21319725   7.180   6.665   4.369  0.6367  2.0463  1.2031
   37MOL   H21419726   7.100   6.637   4.515  0.0739  0.9045 -2.1363
   37MOL   H21519727   7.175   6.504   4.426 -0.5435  1.1642 -3.5304
   37MOL   H21619728   7.382   6.446   4.419  3.2920 -1.8358 -0.0048
   37MOL   H21719729   7.520   6.536   4.491 -2.0905  3.6068  2.6341
   37MOL   C21819730   0.295   6.908   4.085  1.1088 -0.1182 -0.0939
   37MOL   C21919731   0.289   6.914   4.244  0.6055  0.7759  0.3787
   37MOL   C22019732   0.153   6.930   4.314 -0.1671 -0.8298 -0.5295
   37MOL   C22119733   0.062   6.812   4.305 -0.0530 -0.0117 -0.3396
   37MOL   C22219734   7.747   6.842   4.378  0.1021 -0.7572 -0.0275
   37MOL   O22319735   7.664   6.720   4.379 -0.1268  0.0295 -0.2252
   37MOL   C22419736   7.563   6.711   4.284  0.5277 -0.6604 -0.4043
   37MOL   O22519737   7.539   6.800   4.196  0.0019  0.0535 -0.2056
   37MOL   C22619738   7.483   6.578   4.285  0.5566  0.0533 -0.1026
   37MOL   C22719739   7.356   6.593   4.197  0.4570  0.0872 -0.0859
   37MOL   C22819740   7.571   6.457   4.220 -0.0347 -0.1097 -0.1828
   37MOL   H22919741   0.400   6.890   4.060  0.7063  0.7562 -2.5275
   37MOL   H23019742   0.234   6.824   4.054 -1.6513  1.2208  1.5490
   37MOL   H23119743   0.263   7.000   4.036 -0.0861 -0.3016  0.3397
   37MOL   H23219744   0.350   7.002   4.268  1.0993  0.1596  1.4209
   37MOL   H23319745   0.352   6.834   4.282  0.3568 -0.1988 -1.2429
   37MOL   H23419746   0.107   7.022   4.279  3.3646  0.0382 -3.0854
   37MOL   H23519747   0.172   6.946   4.420  2.9604  1.3860 -1.3460
   37MOL   H23619748   0.047   6.781   4.202 -0.6899 -1.0533  0.0548
   37MOL   H23719749   0.104   6.724   4.352 -2.6470 -1.5315 -0.7597
   37MOL   H23819750   7.699   6.928   4.330 -0.8328 -0.1836  1.8937
   37MOL   H23919751   7.769   6.873   4.480 -0.9939  0.3270 -0.1050
   37MOL   H24019752   7.278   6.521   4.221  0.3602  0.2067 -0.0373
   37MOL   H24119753   7.393   6.590   4.095  0.4190  2.7811 -0.2138
   37MOL   H24219754   7.305   6.689   4.206 -0.1697 -0.3246  0.8463
   37MOL   H24319755   7.631   6.499   4.138  2.4058 -1.3823  0.9011
   37MOL   H24419756   7.496   6.398   4.167 -1.6513  2.6763 -1.0885
   37MOL   C24519757   6.992   5.863   4.472  0.4124  0.2754 -0.5226
   37MOL   C24619758   7.101   5.901   4.374 -0.4251 -0.3447 -0.8055
   37MOL   C24719759   7.197   6.001   4.438  0.0766  0.1435  0.2299
   37MOL   C24819760   7.304   6.057   4.346 -0.0705 -0.7464 -0.1421
   37MOL   C24919761   7.407   6.135   4.432  0.5261 -0.5703  0.3194
   37MOL   O25019762   7.503   6.198   4.349  0.1398  0.7098  0.0255
   37MOL   C25119763   7.596   6.276   4.403  0.5757 -0.0586 -0.0033
   37MOL   O25219764   7.612   6.295   4.521  0.0344 -0.1641  0.4306
   37MOL   C25319765   7.666   6.357   4.293  0.0138 -0.1831  0.3865
   37MOL   C25419766   7.791   6.422   4.352  0.2498 -0.0550  0.3388
   37MOL   C25519767   7.716   6.261   4.171 -0.8237  0.2644 -0.3741
   37MOL   H25619768   6.906   5.813   4.427  0.8021 -0.9465  0.0725
   37MOL   H25719769   7.033   5.800   4.552 -0.6787 -1.6979 -1.4813
   37MOL   H25819770   6.949   5.951   4.521 -1.8128 -0.9693 -0.1812
   37MOL   H25919771   7.154   5.810   4.347  0.1084 -0.6530  1.1770
   37MOL   H26019772   7.063   5.945   4.282  0.3158  1.3679 -0.3212
   37MOL   H26119773   7.249   5.955   4.522 -0.0778 -0.5134 -0.0306
   37MOL   H26219774   7.146   6.087   4.481  0.9341  0.9793 -0.3964
   37MOL   H26319775   7.359   5.976   4.298  0.4452 -0.5681  0.1482
   37MOL   H26419776   7.258   6.115   4.266 -1.3176 -0.6789  0.6011
   37MOL   H26519777   7.355   6.206   4.496  1.3705 -1.2696  1.8006
   37MOL   H26619778   7.460   6.067   4.498 -0.8545 -0.5506  1.4782
   37MOL   H26719779   7.768   6.495   4.431 -1.8861  1.6432 -1.7546
   37MOL   H26819780   0.042   6.347   4.396 -1.4263 -1.9195 -0.2836
   37MOL   H26919781   0.037   6.477   4.280  2.9174 -0.6037  2.0608
   37MOL   H27019782   7.628   6.224   4.118 -1.2022  0.8859 -0.1843
   37MOL   H27119783   7.755   6.332   4.098 -1.2164  0.8724  0.0046
   37MOL   C27219784   0.237   6.506   3.693  0.2295 -0.1828 -0.0273
   37MOL   C27319785   0.298   6.482   3.832  0.4609 -0.0601  0.0780
   37MOL   C27419786   0.211   6.536   3.941 -0.1239  0.0789  0.1602
   37MOL   C27519787   0.280   6.535   4.076  0.3922  0.1319  0.1630
   37MOL   C27619788   0.296   6.387   4.125  0.9099  0.2089  0.2390
   37MOL   O27719789   0.170   6.323   4.137  0.0039  0.8469  0.0518
   37MOL   C27819790   0.161   6.199   4.176  0.8394  1.2255 -0.2360
   37MOL   O27919791   0.253   6.116   4.192 -0.8763 -1.1376 -0.2375
   37MOL   C28019792   0.012   6.145   4.189  0.1136  0.3917  0.3483
   37MOL   C28119793   0.013   6.082   4.326 -0.5493 -0.8488  0.6338
   37MOL   C28219794   7.797   6.040   4.074  0.7385 -0.0340 -0.3563
   37MOL   H28319795   0.136   6.469   3.675 -0.7478  2.2715  0.3167
   37MOL   H28419796   0.249   6.611   3.669 -0.7422 -0.7190 -3.1125
   37MOL   H28519797   0.303   6.450   3.626  0.7158  0.7714 -0.3410
   37MOL   H28619798   0.311   6.374   3.837 -3.6492 -0.6190  0.2521
   37MOL   H28719799   0.399   6.523   3.834  0.3901  0.1977 -1.1662
   37MOL   H28819800   0.182   6.639   3.917 -0.3584 -0.3852 -1.5839
   37MOL   H28919801   0.111   6.492   3.939 -0.1580  0.1557  0.1803
   37MOL   H29019802   0.373   6.592   4.072  0.7839 -0.6175 -1.6941
   37MOL   H29119803   0.209   6.582   4.145 -0.1160  0.8632 -0.8333
   37MOL   H29219804   0.348   6.398   4.220  1.4101  1.8189 -0.2023
   37MOL   H29319805   0.362   6.344   4.050  0.3660  1.0884 -0.7726
   37MOL   H29419806   0.078   6.128   4.400 -0.4365 -0.8292  0.5226
   37MOL   H29519807   7.728   6.059   4.367 -1.1119 -1.1264 -0.8411
   37MOL   H29619808   0.049   5.979   4.317 -3.4287 -1.9178  0.5243
   37MOL   H29719809   0.056   5.965   4.105  0.2317 -0.6271 -0.6101
   37MOL   H29819810   7.704   5.994   4.107 -0.7304  1.2781 -2.5011
   37MOL   C29919811   7.747   6.808   3.782 -0.3516 -0.4924 -0.5934
   37MOL   C30019812   7.614   6.743   3.830  0.4919 -0.2266  0.5846
   37MOL   C30119813   7.576   6.610   3.755  0.7419  0.0067 -0.3395
   37MOL   C30219814   7.656   6.493   3.803  0.5109 -0.0998 -0.0897
   37MOL   C30319815   7.614   6.350   3.764  0.7802 -0.4415 -0.0487
   37MOL   O30419816   7.722   6.259   3.797 -0.2107 -0.3611 -0.2995
   37MOL   C30519817   7.686   6.142   3.860 -0.1372  0.4918  0.5931
   37MOL   O30619818   7.572   6.099   3.869 -0.2686 -0.2583  0.5332
   37MOL   C30719819   7.807   6.058   3.917  0.1598  0.2197 -0.1803
   37MOL   C30819820   0.124   6.126   3.884  0.6304 -0.2729  0.3675
   37MOL   C30919821   7.806   5.916   3.857  0.4851  0.1909 -0.1994
   37MOL   H31019822   7.768   6.888   3.853  0.0126  0.4124 -1.6973
   37MOL   H31119823   7.735   6.861   3.687 -1.1032  1.5383  0.5907
   37MOL   H31219824   0.026   6.750   3.778 -0.1699 -0.1707 -1.1350
   37MOL   H31319825   7.535   6.818   3.823 -0.9090 -1.9416 -3.1200
   37MOL   H31419826   7.608   6.712   3.934 -1.7183 -2.1310 -0.0765
   37MOL   H31519827   7.585   6.615   3.647 -1.8185  0.1343 -0.5692
   37MOL   H31619828   7.471   6.586   3.770 -0.1210  2.8783 -1.4802
   37MOL   H31719829   7.656   6.507   3.911  0.3586  5.0990 -0.6202
   37MOL   H31819830   7.762   6.509   3.782  0.8115  0.2763  1.6284
   37MOL   H31919831   7.518   6.324   3.808  0.1293 -1.1850 -1.8577
   37MOL   H32019832   7.603   6.341   3.656  1.9480 -2.4017 -0.0259
   37MOL   H32119833   0.120   6.232   3.912 -1.3334 -0.3458  0.4234
   37MOL   H32219834   0.204   6.067   3.930 -0.0824  0.7007  2.9551
   37MOL   H32319835   0.141   6.131   3.777 -0.7096 -1.5568  0.0930
   37MOL   H32419836   7.706   5.874   3.863  0.9561 -1.0866 -1.0850
   37MOL   H32519837   0.042   5.847   3.925  2.1082 -1.2997 -2.8211
   37MOL   C32619838   7.485   6.100   2.987 -0.3226  0.2258 -0.3440
   37MOL   C32719839   7.558   6.008   3.093  0.0575 -0.2506 -0.6263
   37MOL   C32819840   7.593   6.080   3.228 -0.4153 -0.7593  0.4751
   37MOL   C32919841   7.655   5.988   3.331  0.3238 -0.6333 -0.0126
   37MOL   C33019842   7.660   6.059   3.462 -0.0613 -0.3501 -0.4361
   37MOL   O33119843   7.697   5.982   3.575  0.2071  0.4322 -0.7517
   37MOL   C33219844   0.014   5.960   3.601  0.3215 -0.1840 -0.8831
   37MOL   O33319845   0.109   6.017   3.546  0.1920  0.6619 -0.5311
   37MOL   C33419846   0.044   5.858   3.718  0.6337  0.0518 -0.1135
   37MOL   C33519847   0.198   5.832   3.725  0.2903 -0.7871  0.2454
   37MOL   C33619848   7.776   5.720   3.687  0.0731 -0.6000 -0.5048
   37MOL   H33719849   7.474   6.047   2.893 -0.3125 -0.9874  0.3385
   37MOL   H33819850   7.539   6.193   2.966 -2.5109  1.6315  0.0132
   37MOL   H33919851   7.392   6.136   3.031 -0.1051  1.9826 -1.2744
   37MOL   H34019852   7.650   5.975   3.046  0.2948  1.0949 -1.1468
   37MOL   H34119853   7.512   5.910   3.097  3.3593 -1.9825 -3.1542
   37MOL   H34219854   7.498   6.125   3.258 -0.8301 -1.7651  0.6739
   37MOL   H34319855   7.657   6.164   3.201  0.3986 -1.7171 -0.6182
   37MOL   H34419856   7.759   5.970   3.302  0.9354  3.4956 -0.7180
   37MOL   H34519857   7.597   5.897   3.343  1.6579 -1.5754 -0.5216
   37MOL   H34619858   7.561   6.105   3.468  0.7652  1.5334 -0.7263
   37MOL   H34719859   7.732   6.141   3.464 -0.7008  0.2133  0.1379
   37MOL   H34819860   0.226   5.758   3.800 -0.3994 -1.2364  0.0620
   37MOL   H34919861   0.253   5.916   3.768  1.2864 -1.3485  0.0714
   37MOL   H35019862   0.235   5.813   3.624 -2.3364  0.1591 -0.9453
   37MOL   H35119863   7.676   5.745   3.653  0.3890  0.4358 -0.6694
   37MOL   H35219864   7.765   5.665   3.781  0.2726 -2.1071 -1.3409
   37MOL   C35319865   7.248   5.223   3.775  0.4362 -0.1102 -0.2574
   37MOL   C35419866   7.180   5.310   3.672  0.2176 -0.6526 -0.2068
   37MOL   C35519867   7.271   5.342   3.551  0.6005 -0.0292 -0.1313
   37MOL   C35619868   7.377   5.442   3.595  0.2290  0.2571  0.6268
   37MOL   C35719869   7.484   5.478   3.485  0.7415 -0.6424  0.1757
   37MOL   O35819870   7.595   5.566   3.523 -0.0066  0.3726 -0.6870
   37MOL   C35919871   7.706   5.509   3.589  0.7674  0.6998 -0.0621
   37MOL   O36019872   7.715   5.386   3.623  0.2162 -0.0183  0.1438
   37MOL   C36119873   0.014   5.603   3.589  0.2278  0.4756 -0.2169
   37MOL   C36219874   0.129   5.523   3.638  0.0486 -0.4696  0.2329
   37MOL   C36319875   0.042   5.675   3.448  0.2329  0.3075 -0.9862
   37MOL   H36419876   7.284   5.125   3.742  2.8482 -0.0022  1.8350
   37MOL   H36519877   7.183   5.206   3.861  0.8348  1.1109  0.3041
   37MOL   H36619878   7.341   5.264   3.815  1.2925 -2.0904 -0.1782
   37MOL   H36719879   7.095   5.254   3.634  1.9828 -2.3215 -1.7830
   37MOL   H36819880   7.143   5.403   3.716 -0.4796 -1.1532  0.2683
   37MOL   H36919881   7.198   5.383   3.481 -1.5122  1.3839  2.7863
   37MOL   H37019882   7.306   5.252   3.500  1.9737 -1.0759  2.5298
   37MOL   H37119883   7.427   5.401   3.682 -0.6058 -0.6376  0.6933
   37MOL   H37219884   7.316   5.529   3.622  3.1085  2.1367  1.3402
   37MOL   H37319885   7.537   5.387   3.456  0.6126 -1.3238  2.0597
   37MOL   H37419886   7.437   5.541   3.408  0.3859 -1.3749 -0.2096
   37MOL   H37519887   0.157   5.441   3.571  1.4412  0.9406 -0.9537
   37MOL   H37619888   0.223   5.578   3.650  0.4479 -1.4124  1.5663
   37MOL   H37719889   0.106   5.480   3.735  0.1068  0.0965  0.4952
   37MOL   H37819890   7.768   5.733   3.421 -1.5517 -2.2811 -0.8286
   37MOL   H37919891   0.113   5.758   3.456  1.8264 -0.6785 -3.9116
   37MOL   C38019892   0.670   5.763   3.779  0.5902  0.8746 -0.1083
   37MOL   C38119893   0.722   5.764   3.630  0.4907 -0.0085  0.2448
   37MOL   C38219894   0.659   5.652   3.550  0.0576  0.2662  0.4934
   37MOL   C38319895   0.512   5.677   3.513 -0.2062  0.2078 -1.4183
   37MOL   C38419896   0.441   5.578   3.431 -0.6157 -0.1572  0.0337
   37MOL   O38519897   0.308   5.612   3.403 -0.4334 -0.1911 -0.0534
   37MOL   C38619898   0.226   5.529   3.340  0.3680 -0.0617  0.0520
   37MOL   O38719899   0.249   5.412   3.319  0.0161  0.5796  0.1909
   37MOL   C38819900   0.085   5.600   3.317 -0.6855 -0.6995  0.7980
   37MOL   C38919901   7.791   5.499   3.281 -1.1765 -0.5534 -0.2972
   37MOL   C39019902   0.098   5.712   3.204 -0.3183 -0.2574  0.2698
   37MOL   H39119903   0.561   5.771   3.785  0.7118  1.1622  2.2692
   37MOL   H39219904   0.686   5.673   3.839  1.1090  1.6401  0.9224
   37MOL   H39319905   0.722   5.831   3.846 -0.2100  2.0475 -0.6714
   37MOL   H39419906   0.830   5.751   3.642  0.1334 -1.2790  2.4594
   37MOL   H39519907   0.702   5.864   3.591  1.2210 -0.1732 -0.5443
   37MOL   H39619908   0.712   5.637   3.456 -0.4707  3.3638 -0.3668
   37MOL   H39719909   0.664   5.561   3.609 -0.5955 -0.5775 -0.7382
   37MOL   H39819910   0.459   5.693   3.608  2.1405 -1.7084  0.2797
   37MOL   H39919911   0.500   5.773   3.462  0.3047  0.9698 -0.1526
   37MOL   H40019912   0.439   5.482   3.482 -1.7543  0.4115  1.0647
   37MOL   H40119913   0.494   5.576   3.335  1.5766  1.0619  1.1527
   37MOL   H40219914   7.785   5.421   3.356 -1.1571  0.6034  0.9184
   37MOL   H40319915   0.002   5.451   3.186 -1.7873 -0.9267 -0.2687
   37MOL   H40419916   7.689   5.538   3.277 -1.0688  0.1299  2.4318
   37MOL   H40519917   0.126   5.806   3.252 -1.8723 -0.4749  1.6426
   37MOL   H40619918   7.809   5.732   3.176 -0.3913 -2.2987 -1.0098
   37MOL   C40719919   0.483   5.343   2.555  0.2037 -0.0502 -0.6672
   37MOL   C40819920   0.476   5.314   2.701 -0.3979  0.0818 -0.5002
   37MOL   C40919921   0.346   5.347   2.766 -0.2099  0.3489 -0.7000
   37MOL   C41019922   0.339   5.302   2.920 -0.3705  0.3854  0.1214
   37MOL   C41119923   0.217   5.345   3.009  1.0244  0.2184 -0.2803
   37MOL   O41219924   0.224   5.478   3.043  0.3018  0.0660 -0.2038
   37MOL   C41319925   0.171   5.586   2.983 -0.0551 -0.4990 -0.0972
   37MOL   O41419926   0.116   5.584   2.871 -0.2471 -0.0505  0.1147
   37MOL   C41519927   0.191   5.714   3.074  0.0992  0.4184  0.1307
   37MOL   C41619928   0.136   5.841   2.992 -0.6591  0.1535 -0.1668
   37MOL   C41719929   0.340   5.739   3.111  0.3534  0.7474  0.2899
   37MOL   H41819930   0.582   5.318   2.517  0.3828  0.0891 -0.2994
   37MOL   H41919931   0.408   5.289   2.498 -1.5203  1.7614 -0.1865
   37MOL   H42019932   0.451   5.443   2.523 -1.1928 -0.4784 -0.6266
   37MOL   H42119933   0.548   5.382   2.746 -0.1359 -0.1421 -0.5802
   37MOL   H42219934   0.512   5.213   2.721 -0.9068 -0.9946 -4.5946
   37MOL   H42319935   0.324   5.452   2.750 -1.1324  0.3524  0.5359
   37MOL   H42419936   0.267   5.290   2.717 -0.2716  1.2152 -1.6089
   37MOL   H42519937   0.431   5.329   2.972 -1.6191 -1.1543  3.2747
   37MOL   H42619938   0.346   5.193   2.920  1.0478  0.4751  0.6612
   37MOL   H42719939   0.130   5.336   2.944  0.6942 -2.2663  0.4924
   37MOL   H42819940   0.205   5.292   3.103 -3.1358  0.4784 -0.5757
   37MOL   H42919941   0.185   5.855   2.896 -3.8493  3.8008 -1.4046
   37MOL   H43019942   0.147   5.929   3.054 -0.2275  0.2350 -0.3607
   37MOL   H43119943   0.028   5.842   2.976 -0.7852 -1.4515  0.4711
   37MOL   H43219944   0.382   5.641   3.134  1.0689  1.0249  0.1811
   37MOL   H43319945   0.338   5.778   3.213  0.1495 -0.8716  0.9112
   37MOL   C43419946   0.081   6.471   3.337  0.1477  0.0499  0.8751
   37MOL   C43519947   0.203   6.370   3.329  0.5786  0.3918 -0.0127
   37MOL   C43619948   0.148   6.236   3.275  0.2248  0.1268 -0.3507
   37MOL   C43719949   0.260   6.125   3.274 -0.5593 -0.0349  0.6203
   37MOL   C43819950   0.359   6.142   3.165 -0.2400 -0.2063  0.0065
   37MOL   O43919951   0.438   6.017   3.132  0.2668 -0.8735  0.2888
   37MOL   C44019952   0.435   5.958   3.011  0.5989  0.9969  0.0440
   37MOL   O44119953   0.412   6.004   2.898 -0.2460  0.0549 -1.1102
   37MOL   C44219954   0.458   5.805   3.030  0.1833  0.0042  0.2444
   37MOL   C44319955   0.477   5.742   2.884  0.5722  0.3149 -0.5275
   37MOL   C44419956   0.587   5.776   3.108  0.2196  0.6487  0.3376
   37MOL   H44519957   0.061   6.496   3.233  0.6384  2.9529  1.4320
   37MOL   H44619958   7.804   6.440   3.387 -0.8603 -0.5556 -1.2963
   37MOL   H44719959   0.113   6.565   3.383  0.4827 -0.6247  2.0445
   37MOL   H44819960   0.285   6.405   3.266  0.2359 -1.1032 -1.3304
   37MOL   H44919961   0.226   6.356   3.434  1.2364 -2.9231 -0.5219
   37MOL   H45019962   0.074   6.214   3.352  0.8479 -1.5625 -0.2007
   37MOL   H45119963   0.087   6.239   3.185 -2.7590 -0.9259  1.5717
   37MOL   H45219964   0.193   6.042   3.253 -1.9577  1.1013  0.5616
   37MOL   H45319965   0.312   6.107   3.368 -0.1650 -1.4251  0.1535
   37MOL   H45419966   0.431   6.220   3.187  1.3412 -2.1467  1.9719
   37MOL   H45519967   0.305   6.179   3.078  1.6110  0.0713 -1.0320
   37MOL   H45619968   0.510   5.638   2.882  2.5694  0.7482  3.7071
   37MOL   H45719969   0.382   5.740   2.831 -0.3069  1.7645  0.9400
   37MOL   H45819970   0.540   5.808   2.826  2.9316 -1.7879 -0.4616
   37MOL   H45919971   0.599   5.668   3.100  0.7107  0.6098  1.5221
   37MOL   H46019972   0.555   5.800   3.209 -1.2830 -0.1094  0.0606
   37MOL   C46119973   0.504   6.482   2.930  0.1332  0.0242 -0.0529
   37MOL   C46219974   0.541   6.385   2.822 -0.2089 -0.9514 -0.4866
   37MOL   C46319975   0.659   6.293   2.853  0.3848 -0.1046  0.6672
   37MOL   C46419976   0.672   6.172   2.746  0.8589 -0.1095  0.0975
   37MOL   C46519977   0.765   6.064   2.787 -0.2704  0.2135  0.1031
   37MOL   O46619978   0.717   5.996   2.906 -0.0855 -0.3951  0.2869
   37MOL   C46719979   0.773   5.882   2.949  0.4457 -0.0399 -0.5039
   37MOL   O46819980   0.842   5.805   2.882  0.2260 -0.0543 -0.4384
   37MOL   C46919981   0.730   5.843   3.099 -0.9385  0.3189 -0.0675
   37MOL   C47019982   0.835   5.739   3.150  0.4924  0.2136  0.2616
   37MOL   C47119983   0.737   5.970   3.196  0.3926 -0.0563 -0.2185
   37MOL   H47219984   0.555   6.578   2.920 -0.2665  0.3547  1.0341
   37MOL   H47319985   0.532   6.438   3.026  0.2859  0.3544  0.0552
   37MOL   H47419986   0.399   6.509   2.929  1.1160  4.1260 -1.3946
   37MOL   H47519987   0.534   6.436   2.726 -0.4074  1.2262  0.6514
   37MOL   H47619988   0.456   6.318   2.806  0.3659 -1.1090 -3.1429
   37MOL   H47719989   0.651   6.254   2.954  0.1137  0.3866  0.8333
   37MOL   H47819990   0.753   6.343   2.875  0.5263  0.8475 -1.9219
   37MOL   H47919991   0.702   6.208   2.648  1.4396 -1.0092 -0.0583
   37MOL   H48019992   0.575   6.124   2.728  0.9975 -0.4513  0.2658
   37MOL   H48119993   0.773   5.988   2.709 -0.5583 -0.9183  1.1678
   37MOL   H48219994   0.865   6.095   2.814  0.1337 -0.1761 -0.9123
   37MOL   H48319995   0.801   5.644   3.109 -0.5858 -0.1020  1.8529
   37MOL   H48419996   0.818   5.732   3.257 -1.5748 -2.0162 -0.1496
   37MOL   H48519997   0.935   5.771   3.121  1.2421 -0.1200  2.3873
   37MOL   H48619998   0.679   5.935   3.282  0.8304 -0.9580 -0.2834
   37MOL   H48719999   0.676   6.044   3.144  2.6939  0.8753 -1.6577
   37MOL   C48820000   0.515   6.122   3.875  0.0757 -0.1076  0.7193
   37MOL   C48920001   0.590   6.234   3.805  0.3830 -0.0418 -0.5006
   37MOL   C49020002   0.576   6.217   3.652 -0.8826 -0.7310  0.2126
   37MOL   C49120003   0.657   6.323   3.578 -0.2205 -0.5357  0.3216
   37MOL   C49220004   0.661   6.306   3.425  0.2727 -0.3035 -0.2060
   37MOL   O49320005   0.717   6.183   3.380 -0.4442  0.2972 -0.2219
   37MOL   C49420006   0.807   6.189   3.284  0.0334 -0.6243 -0.0786
   37MOL   O49520007   0.844   6.291   3.228 -0.4201  0.0090  0.3808
   37MOL   C49620008   0.864   6.052   3.244  0.2102  0.1615  1.1798
   37MOL   C49720009   0.966   6.075   3.122  0.6130 -0.3344  0.2517
   37MOL   C49820010   0.929   5.971   3.360  0.2694 -0.0350 -0.6342
   37MOL   H49920011   0.540   6.031   3.821 -0.0246  1.1907 -1.5489
   37MOL   H50020012   0.559   6.122   3.975 -0.3501  1.4677  0.9202
   37MOL   H50120013   0.409   6.146   3.873  0.3322  1.0490  0.4839
   37MOL   H50220014   0.698   6.228   3.822  0.5024  0.1971 -1.1371
   37MOL   H50320015   0.565   6.338   3.825  2.6003  1.2022 -3.7903
   37MOL   H50420016   0.626   6.123   3.626 -1.3322 -1.2645  1.2355
   37MOL   H50520017   0.476   6.224   3.611 -0.4366 -0.5868 -0.8718
   37MOL   H50620018   0.760   6.305   3.609 -0.4555 -1.3303  0.6535
   37MOL   H50720019   0.636   6.425   3.610  1.4753 -0.2755  0.6775
   37MOL   H50820020   0.563   6.318   3.378  0.2900  0.5345 -0.0281
   37MOL   H50920021   0.718   6.393   3.393  1.0667 -0.8894 -0.3880
   37MOL   H51020022   0.923   6.131   3.039 -1.4517 -1.0512  0.7815
   37MOL   H51120023   1.007   5.983   3.081 -1.1912 -1.5558  1.0756
   37MOL   H51220024   1.046   6.140   3.159 -1.2085  1.7014  0.7606
   37MOL   H51320025   0.959   5.874   3.322  1.0042  0.7877 -2.1714
   37MOL   H51420026   0.853   5.948   3.436  0.9657 -1.4230 -0.3505
   37MOL   C51520027   1.248   5.592   2.820  0.4202 -0.2940  0.7847
   37MOL   C51620028   1.271   5.741   2.871  0.2201 -0.3715  0.1630
   37MOL   C51720029   1.281   5.766   3.021 -0.0262 -0.2570  0.0680
   37MOL   C51820030   1.328   5.907   3.070  0.3968 -0.7937 -0.5085
   37MOL   C51920031   1.340   5.924   3.222  1.2531  0.1653 -0.1824
   37MOL   O52020032   1.210   5.925   3.282 -0.2217  0.0565  0.1756
   37MOL   C52120033   1.182   6.027   3.366  0.2418  0.6563 -0.8416
   37MOL   O52220034   1.263   6.116   3.400 -0.2344 -0.0704  0.3171
   37MOL   C52320035   1.051   6.016   3.447  1.0184 -0.3097 -0.2036
   37MOL   C52420036   1.079   5.919   3.559 -0.0624  0.2458 -0.1801
   37MOL   C52520037   1.020   6.155   3.510  0.1050 -0.1822  0.0805
   37MOL   H52620038   1.328   5.519   2.824  1.2301  0.4993 -0.5683
   37MOL   H52720039   1.159   5.550   2.867 -0.3840  1.9989  1.4154
   37MOL   H52820040   1.224   5.585   2.714  1.4007 -3.7394  0.7267
   37MOL   H52920041   1.356   5.781   2.817 -1.6264  0.9812 -1.8144
   37MOL   H53020042   1.177   5.793   2.856  0.4312  0.7019  2.3296
   37MOL   H53120043   1.181   5.751   3.061  0.4833 -0.5468  1.2582
   37MOL   H53220044   1.338   5.685   3.067  0.6443  0.6771  0.9059
   37MOL   H53320045   1.255   5.976   3.026  0.3539  1.1662  2.5202
   37MOL   H53420046   1.422   5.934   3.021  0.2353  0.3481 -0.2067
   37MOL   H53520047   1.396   5.839   3.262  1.4288  0.0829 -0.6014
   37MOL   H53620048   1.405   6.006   3.252 -1.1788  1.3591  1.9629
   37MOL   H53720049   1.143   5.960   3.638  0.1859 -0.6991  0.1171
   37MOL   H53820050   1.113   5.822   3.522  0.0849  0.2114  0.0398
   37MOL   H53920051   0.991   5.912   3.623  2.2405 -1.2178  2.9806
   37MOL   H54020052   0.925   6.155   3.563 -0.7806 -1.2266 -1.4602
   37MOL   H54120053   1.022   6.236   3.436 -1.4019 -0.4312 -0.2443
   37MOL   H54220054   1.091   6.179   3.590 -0.5554 -0.0791  0.6404
   38MOL     C120055   5.702   2.483   1.182  0.8854  0.3707 -0.3890
   38MOL     C220056   5.662   2.622   1.182 -0.3254 -1.1007  0.1546
   38MOL     C320057   5.714   2.711   1.303  0.4705  0.4112 -0.3257
   38MOL     C420058   5.650   2.676   1.442  0.6344  0.2013 -0.3894
   38MOL     C520059   5.702   2.765   1.556 -0.5770  0.5836  0.2893
   38MOL     O620060   5.846   2.752   1.568 -0.1299 -0.3628 -0.4319
   38MOL     C720061   5.891   2.654   1.643 -0.1630  0.2221 -0.2423
   38MOL     O820062   5.824   2.570   1.700 -0.3298  0.0684 -0.2136
   38MOL     C920063   6.047   2.643   1.644  0.4835 -0.4094 -0.8300
   38MOL    C1020064   6.105   2.760   1.727  0.4812  0.5107 -0.5156
   38MOL    C1120065   6.107   2.635   1.502  0.3700 -0.4482 -0.2473
   38MOL    H1220066   5.677   2.440   1.279  0.0598 -2.5225 -1.8262
   38MOL    H1320067   5.809   2.465   1.172  0.8555 -0.8908  1.4053
   38MOL    H1420068   5.673   2.423   1.096  4.2090 -3.2785  0.8721
   38MOL    H1520069   5.689   2.667   1.086 -1.0730 -0.9506  0.0155
   38MOL    H1620070   5.555   2.604   1.188 -0.4940 -0.5432 -0.9743
   38MOL    H1720071   5.822   2.725   1.306  0.1980  2.3038  1.1787
   38MOL    H1820072   5.695   2.818   1.294  4.1502  1.2407  1.1885
   38MOL    H1920073   5.665   2.573   1.475 -1.1411  0.1223  0.2062
   38MOL    H2020074   5.542   2.691   1.445  0.3311 -2.0212  0.4146
   38MOL    H2120075   5.678   2.867   1.527 -2.0594  1.2504  3.5785
   38MOL    H2220076   5.655   2.744   1.652 -2.1735 -2.1455 -1.0439
   38MOL    H2320077   6.212   2.780   1.723  0.5674 -0.1694 -2.5827
   38MOL    H2420078   6.088   2.736   1.832  0.7474  1.8669 -0.1527
   38MOL    H2520079   6.040   2.846   1.709  0.3047  0.3657 -0.5806
   38MOL    H2620080   6.211   2.666   1.513 -0.1202  0.8520  0.9231
   38MOL    H2720081   6.054   2.708   1.440  2.4736  0.6729 -0.7600
   38MOL    H2820082   6.059   2.551   1.700  0.9887  0.5714  0.7138
   38MOL    C2920083   6.756   2.811   1.109  0.3227  0.4749  0.0835
   38MOL    C3020084   6.632   2.899   1.134  0.5639 -1.0313  0.4581
   38MOL    C3120085   6.496   2.841   1.095 -0.2093  1.0890  0.2545
   38MOL    C3220086   6.449   2.739   1.194  0.1538 -0.6714  0.9535
   38MOL    C3320087   6.313   2.685   1.150  0.1479  0.6221  0.4879
   38MOL    O3420088   6.267   2.614   1.273 -0.2088  0.3163 -0.3535
   38MOL    C3520089   6.149   2.539   1.278 -0.3817 -1.3951  0.1815
   38MOL    O3620090   6.073   2.524   1.182 -0.5004 -0.0465 -0.8094
   38MOL    C3720091   6.117   2.501   1.424 -0.2690  0.3227 -0.3450
   38MOL    C3820092   5.977   2.437   1.432  0.2962 -0.4478  0.3944
   38MOL    C3920093   6.224   2.413   1.491  0.5804 -0.0147  0.6111
   38MOL    H4020094   6.847   2.859   1.145 -0.1442  1.2850  0.1984
   38MOL    H4120095   6.762   2.727   1.177 -0.7504  1.2029  1.0995
   38MOL    H4220096   6.789   2.790   1.007 -0.2990 -1.0076  0.1717
   38MOL    H4320097   6.645   2.994   1.082  0.7819 -1.8216 -0.9572
   38MOL    H4420098   6.630   2.940   1.235 -2.3725 -2.1790  0.9441
   38MOL    H4520099   6.504   2.783   1.003 -2.1905 -0.9931  1.3479
   38MOL    H4620100   6.422   2.921   1.088 -0.7758  0.6400  1.0602
   38MOL    H4720101   6.522   2.663   1.222 -0.2579 -1.4352  0.0018
   38MOL    H4820102   6.436   2.792   1.288 -2.0929  0.9505 -0.2287
   38MOL    H4920103   6.315   2.616   1.065 -1.1027  0.3737  0.6440
   38MOL    H5020104   6.244   2.763   1.119 -0.7082  0.0856  1.0323
   38MOL    H5120105   5.950   2.406   1.533 -1.3341 -2.4596 -0.6187
   38MOL    H5220106   5.962   2.348   1.370 -1.3614  1.6612 -2.3652
   38MOL    H5320107   5.900   2.504   1.394  1.3136  1.1117  1.0141
   38MOL    H5420108   6.195   2.418   1.596  1.8042 -0.9327  1.0159
   38MOL    H5520109   6.323   2.460   1.484 -1.4069  4.0515 -1.9988
   38MOL    C5620110   5.679   2.117   2.056 -0.0671 -0.3119  0.1435
   38MOL    C5720111   5.724   2.178   1.922  0.9822  0.7701  0.2063
   38MOL    C5820112   5.867   2.140   1.891 -0.2806 -0.4568  0.4493
   38MOL    C5920113   5.936   2.215   1.767  0.0494 -0.1166 -0.1086
   38MOL    C6020114   6.046   2.120   1.725 -0.8698 -0.1506  0.1084
   38MOL    O6120115   6.153   2.166   1.651 -0.3965 -0.3101  0.1407
   38MOL    C6220116   6.143   2.174   1.513  0.5990  0.3155 -0.8019
   38MOL    O6320117   6.057   2.117   1.446  0.1899  0.4761  0.3038
   38MOL    C6420118   6.247   2.258   1.443  0.2131 -0.9926 -0.0840
   38MOL    C6520119   6.385   2.225   1.506  0.6486  0.1471 -0.6891
   38MOL    C6620120   6.252   2.240   1.287  0.3657 -0.1074 -0.0815
   38MOL    H6720121   5.731   2.162   2.140  2.2190 -1.2017 -0.7578
   38MOL    H6820122   5.698   2.010   2.055 -0.4158 -0.3751 -0.4066
   38MOL    H6920123   5.572   2.132   2.073 -0.1271  1.9214 -1.8839
   38MOL    H7020124   5.656   2.143   1.844  0.7230 -1.0614  1.2426
   38MOL    H7120125   5.714   2.287   1.919  0.7389  0.8092  2.3569
   38MOL    H7220126   5.923   2.150   1.984  0.2293  1.4405 -0.0572
   38MOL    H7320127   5.871   2.031   1.878  2.2605 -0.1764 -1.3617
   38MOL    H7420128   5.978   2.306   1.809 -1.2843  0.2507  0.4365
   38MOL    H7520129   5.869   2.244   1.686 -0.3616  2.1336  1.0061
   38MOL    H7620130   6.093   2.091   1.819  1.7439 -0.8110 -1.3519
   38MOL    H7720131   5.989   2.039   1.679 -2.7877  1.4210 -0.3164
   38MOL    H7820132   6.460   2.292   1.463  0.3860  0.4844 -0.6256
   38MOL    H7920133   6.404   2.120   1.488 -2.0934 -0.0793 -2.4800
   38MOL    H8020134   6.378   2.265   1.608 -0.4615 -2.1333  0.1642
   38MOL    H8120135   6.320   2.319   1.254  0.2395  0.4029  0.8470
   38MOL    H8220136   6.156   2.267   1.244  0.5075 -1.1176 -1.0539
   38MOL    C8320137   6.087   2.626   0.695 -0.3483  0.0081 -0.0751
   38MOL    C8420138   6.062   2.486   0.646 -0.2650  0.0937  0.1076
   38MOL    C8520139   6.178   2.387   0.674  0.1676 -0.0560 -0.8922
   38MOL    C8620140   6.192   2.348   0.821  0.5811  0.3273 -0.5609
   38MOL    C8720141   6.280   2.221   0.847  0.4121 -0.7581 -0.5765
   38MOL    O8820142   6.319   2.208   0.986 -0.1478  0.2308  0.6188
   38MOL    C8920143   6.240   2.128   1.067 -0.2772 -0.3809  0.0017
   38MOL    O9020144   6.131   2.076   1.033  0.1268 -0.3078  0.3473
   38MOL    C9120145   6.299   2.111   1.211 -0.0903  0.4844  0.3845
   38MOL    C9220146   6.452   2.104   1.197 -1.2258 -0.3756 -0.4317
   38MOL    C9320147   6.252   1.977   1.272 -0.7584  0.0737 -0.0820
   38MOL    H9420148   6.083   2.631   0.804  1.7579  3.0389 -0.0927
   38MOL    H9520149   6.191   2.649   0.672  0.1455 -2.2877 -0.3173
   38MOL    H9620150   6.026   2.703   0.650  1.2821  0.4021 -1.6576
   38MOL    H9720151   6.048   2.491   0.538  0.7012 -0.6281 -0.0614
   38MOL    H9820152   5.971   2.438   0.681  0.3203 -1.9757 -1.1534
   38MOL    H9920153   6.276   2.403   0.630  0.9944 -0.9310  0.5774
   38MOL   H10020154   6.149   2.298   0.618  0.2665 -0.0795 -0.9061
   38MOL   H10120155   6.097   2.337   0.873  0.7482  1.6630  0.0462
   38MOL   H10220156   6.234   2.437   0.868 -2.0760  1.4409 -0.2147
   38MOL   H10320157   6.371   2.237   0.789  1.0633 -0.6928  0.4427
   38MOL   H10420158   6.232   2.130   0.811 -1.0917  0.1088 -0.7760
   38MOL   H10520159   6.494   2.058   1.287  1.7609  1.0007 -1.0499
   38MOL   H10620160   6.489   2.206   1.186  3.2612 -1.8696 -0.1476
   38MOL   H10720161   6.485   2.042   1.113  2.1673 -0.3838  0.8159
   38MOL   H10820162   6.280   1.981   1.378 -3.1395  2.4029  0.5193
   38MOL   H10920163   6.143   1.977   1.277 -0.7345  1.3460  1.0862
   38MOL   C11020164   6.898   2.093   1.655  0.1912  0.3539 -0.2104
   38MOL   C11120165   6.851   2.033   1.515 -0.3628 -0.6148 -0.1476
   38MOL   C11220166   6.757   1.914   1.532  0.0467 -0.3220 -0.1812
   38MOL   C11320167   6.731   1.836   1.402  0.8411  0.1807 -0.7295
   38MOL   C11420168   6.609   1.739   1.422 -0.5680  0.6337 -0.2474
   38MOL   O11520169   6.482   1.797   1.384  0.1623  0.0973  0.2798
   38MOL   C11620170   6.442   1.792   1.251 -0.0980 -0.2429  0.4764
   38MOL   O11720171   6.514   1.766   1.156 -0.0888 -0.2403 -0.4868
   38MOL   C11820172   6.292   1.831   1.222  0.2002 -0.5936 -0.8118
   38MOL   C11920173   6.266   1.813   1.073 -0.4634  0.5183 -0.0191
   38MOL   C12020174   6.198   1.733   1.309 -0.0075  0.5693  0.2348
   38MOL   H12120175   6.952   2.024   1.719 -0.9563  1.6544  2.2142
   38MOL   H12220176   6.968   2.176   1.646  1.9487 -0.9376  1.2629
   38MOL   H12320177   6.808   2.111   1.713  0.1317  1.3802 -0.6147
   38MOL   H12420178   6.810   2.113   1.452 -0.9616 -1.6898 -1.1437
   38MOL   H12520179   6.945   2.015   1.462  0.9875  1.9971  1.2295
   38MOL   H12620180   6.793   1.845   1.608  1.2781 -0.1343 -0.5806
   38MOL   H12720181   6.662   1.950   1.571 -0.1960 -1.2571  0.0815
   38MOL   H12820182   6.809   1.765   1.376 -0.1945 -0.8445 -1.1136
   38MOL   H12920183   6.718   1.897   1.313 -1.2678  1.1166  0.1792
   38MOL   H13020184   6.625   1.653   1.356  1.7365  1.2202 -0.4813
   38MOL   H13120185   6.598   1.707   1.526  0.5209  0.2947 -0.2317
   38MOL   H13220186   6.292   1.714   1.035  4.5900  1.6205  0.2274
   38MOL   H13320187   6.162   1.835   1.053 -0.7664  1.1684  2.0981
   38MOL   H13420188   6.326   1.877   1.009  1.5277 -2.0876 -0.8334
   38MOL   H13520189   6.233   1.748   1.411 -1.9280  2.7646  0.5980
   38MOL   H13620190   6.101   1.780   1.318  0.3605  1.7201 -1.4728
   38MOL   C13720191   5.781   2.128   1.192 -0.1525 -0.0817  0.4819
   38MOL   C13820192   5.731   1.996   1.132  0.0161  0.2348 -0.4687
   38MOL   C13920193   5.840   1.909   1.054 -0.3003  0.1779  0.1091
   38MOL   C14020194   5.801   1.762   1.029  0.1951 -0.3827 -0.1595
   38MOL   C14120195   5.915   1.663   1.017  0.3833  0.0857 -0.0530
   38MOL   O14220196   5.980   1.646   1.143  0.4102 -0.6008  0.1910
   38MOL   C14320197   6.089   1.569   1.142 -0.9178 -0.4185 -0.0470
   38MOL   O14420198   6.120   1.492   1.054  0.1577  0.3431 -0.6946
   38MOL   C14520199   6.173   1.578   1.277 -0.1792 -0.4635  0.3713
   38MOL   C14620200   6.307   1.498   1.251  0.3966 -0.7452  0.1676
   38MOL   C14720201   6.086   1.519   1.388  0.1695  0.4041 -0.3868
   38MOL   H14820202   5.770   2.196   1.108 -0.9028  0.5688  1.0823
   38MOL   H14920203   5.883   2.122   1.229 -0.0801 -1.0394  0.1230
   38MOL   H15020204   5.713   2.171   1.266 -3.5933 -0.1521 -2.4905
   38MOL   H15120205   5.644   2.009   1.067 -1.4769 -2.1594  0.9335
   38MOL   H15220206   5.700   1.931   1.214 -0.5035  1.7676  0.5602
   38MOL   H15320207   5.862   1.962   0.961  1.5087 -1.8332 -0.6439
   38MOL   H15420208   5.934   1.912   1.107  0.4285  0.7033 -1.1821
   38MOL   H15520209   5.730   1.738   1.109  0.1586  0.6679  0.1293
   38MOL   H15620210   5.742   1.749   0.938  0.9865  0.4252 -0.7986
   38MOL   H15720211   5.981   1.706   0.942 -1.2107  0.9367 -0.9833
   38MOL   H15820212   5.882   1.561   0.996 -0.1295 -0.0953  1.5507
   38MOL   H15920213   6.368   1.503   1.341  2.0144  2.5502 -1.0171
   38MOL   H16020214   6.362   1.539   1.167  1.2449 -1.5301  0.3386
   38MOL   H16120215   6.298   1.391   1.231  0.8501 -1.0811  1.7011
   38MOL   H16220216   5.999   1.581   1.410  0.0571  0.5372 -1.1998
   38MOL   H16320217   6.043   1.429   1.344 -2.3400  1.0625  0.6255
   38MOL   C16420218   6.326   1.629   2.121  0.1910 -0.6034  0.1938
   38MOL   C16520219   6.344   1.774   2.076  0.0297 -0.3421  0.0798
   38MOL   C16620220   6.255   1.815   1.949  0.0188 -0.0132 -0.1799
   38MOL   C16720221   6.333   1.785   1.822 -0.7612  0.7082  0.1316
   38MOL   C16820222   6.244   1.799   1.692  0.5612 -0.3444 -0.7625
   38MOL   O16920223   6.162   1.686   1.666 -0.3195  0.1468  0.3694
   38MOL   C17020224   6.226   1.584   1.598 -0.4073 -0.2092  0.7381
   38MOL   O17120225   6.346   1.581   1.582 -0.3240  0.0210  1.0524
   38MOL   C17220226   6.137   1.474   1.533  0.5960 -0.2855 -0.4459
   38MOL   C17320227   6.211   1.336   1.526  0.0695  0.4871 -0.8319
   38MOL   C17420228   6.000   1.453   1.618 -0.7604 -0.1365  0.0758
   38MOL   H17520229   6.393   1.592   2.199 -0.2671 -0.4888  0.6508
   38MOL   H17620230   6.337   1.561   2.036 -2.6660 -0.6971 -0.1447
   38MOL   H17720231   6.226   1.608   2.161  0.0994 -0.6092 -0.0392
   38MOL   H17820232   6.448   1.794   2.051 -0.9801  1.3276 -3.0634
   38MOL   H17920233   6.315   1.841   2.156  0.6833 -0.4936  0.4487
   38MOL   H18020234   6.161   1.761   1.954 -0.7752  1.5049  1.8372
   38MOL   H18120235   6.229   1.921   1.951  0.7943  0.1688  1.4052
   38MOL   H18220236   6.388   1.691   1.830 -1.0242  0.5821  0.4557
   38MOL   H18320237   6.405   1.866   1.809 -1.1245  1.1051  0.5879
   38MOL   H18420238   6.301   1.821   1.601  0.0368  0.1502 -0.9786
   38MOL   H18520239   6.178   1.886   1.698 -1.6271 -2.0505  0.3744
   38MOL   H18620240   6.252   1.320   1.626 -2.6762  2.2033  0.6463
   38MOL   H18720241   6.302   1.347   1.468 -0.7600  0.8250 -2.0854
   38MOL   H18820242   6.154   1.260   1.471  0.2365  1.4618 -2.3672
   38MOL   H18920243   5.972   1.558   1.628  0.2615  0.2172 -0.6649
   38MOL   H19020244   5.920   1.408   1.560 -0.8064  0.3094 -0.2116
   38MOL   C19120245   5.969   1.919   2.176 -0.2807  0.0824  0.2692
   38MOL   C19220246   5.886   1.791   2.213  0.0456  0.3004 -0.2059
   38MOL   C19320247   5.823   1.722   2.094 -0.1154  0.3919 -0.8684
   38MOL   C19420248   5.764   1.583   2.133 -0.0647  0.1218 -0.3165
   38MOL   C19520249   5.714   1.503   2.009 -0.0239  0.5040 -0.1169
   38MOL   O19620250   5.833   1.449   1.949 -0.5052 -0.4947 -0.2596
   38MOL   C19720251   5.839   1.426   1.821 -0.2889  0.0510  0.4209
   38MOL   O19820252   5.742   1.421   1.743 -0.5248 -0.5154 -0.4226
   38MOL   C19920253   5.982   1.400   1.771  0.0925 -0.9908  0.5142
   38MOL   C20020254   6.084   1.472   1.868  0.1775 -0.0360 -0.5794
   38MOL   C20120255   6.020   1.251   1.770  0.0002  0.5409 -0.1482
   38MOL   H20220256   6.028   1.911   2.085  0.0998 -0.0036  0.5212
   38MOL   H20320257   5.908   2.007   2.160 -1.5436 -0.3163  2.6497
   38MOL   H20420258   6.037   1.955   2.254 -0.3881 -1.6833  1.2047
   38MOL   H20520259   5.809   1.806   2.288  0.5214  0.6454  0.2234
   38MOL   H20620260   5.949   1.714   2.260  0.5326  0.4717 -0.5691
   38MOL   H20720261   5.880   1.710   2.002 -0.8960  0.5012 -1.3791
   38MOL   H20820262   5.740   1.783   2.056 -1.2960 -1.2597 -0.9911
   38MOL   H20920263   5.838   1.522   2.186 -0.6737 -1.0701 -0.8128
   38MOL   H21020264   5.689   1.596   2.211 -2.2275 -1.5812 -2.0635
   38MOL   H21120265   5.662   1.415   2.047  2.0891 -0.7121  0.0523
   38MOL   H21220266   5.660   1.569   1.942  1.6928 -1.2637 -3.3487
   38MOL   H21320267   6.055   1.577   1.867 -0.8677 -0.3318 -2.1704
   38MOL   H21420268   6.186   1.467   1.831  0.1424 -0.6554 -0.6032
   38MOL   H21520269   6.095   1.429   1.968  1.0570  0.3763 -0.4965
   38MOL   H21620270   6.127   1.239   1.790 -0.0033 -0.0420 -0.4796
   38MOL   H21720271   6.038   1.222   1.666  3.5747  0.4979  0.4097
   38MOL   C21820272   5.792   1.362   1.186  0.2160  0.5409  0.0322
   38MOL   C21920273   5.694   1.258   1.250  0.4248  0.4149 -0.3981
   38MOL   C22020274   5.717   1.241   1.404 -0.8378  0.3867  0.0815
   38MOL   C22120275   5.664   1.108   1.463 -0.0294  0.0035 -0.5322
   38MOL   C22220276   5.658   1.116   1.615 -0.3587 -0.1018 -0.3671
   38MOL   O22320277   5.789   1.105   1.674  0.1079  0.6716 -0.1490
   38MOL   C22420278   5.807   1.122   1.809  0.2054 -0.3593  0.1910
   38MOL   O22520279   5.712   1.133   1.888 -0.4101  0.2808  0.7167
   38MOL   C22620280   5.958   1.132   1.855 -0.2804  0.4217  0.2592
   38MOL   C22720281   5.970   1.151   2.007  0.4864 -1.0348  0.1647
   38MOL   C22820282   6.027   0.987   1.822  0.0656  0.5797  0.1814
   38MOL   H22920283   5.771   1.372   1.079 -0.6360 -4.2349 -0.3347
   38MOL   H23020284   5.795   1.459   1.235 -1.3903  0.1169  1.0063
   38MOL   H23120285   5.892   1.319   1.181  0.3752  0.6792  1.8707
   38MOL   H23220286   5.713   1.163   1.201  0.7303 -0.1039  0.7222
   38MOL   H23320287   5.593   1.295   1.233  0.0619 -0.9472 -1.2876
   38MOL   H23420288   5.685   1.332   1.456  0.7422  1.2615 -0.4564
   38MOL   H23520289   5.823   1.245   1.427 -0.6060  0.4346 -1.0047
   38MOL   H23620290   5.572   1.075   1.415 -0.7588  1.7785 -0.3997
   38MOL   H23720291   5.727   1.023   1.438  1.6028  0.9378  0.3379
   38MOL   H23820292   5.594   1.036   1.653  0.0114 -0.9835 -1.5475
   38MOL   H23920293   5.615   1.212   1.641  2.2735  1.5012 -1.7271
   38MOL   H24020294   6.066   1.194   2.037  1.8991 -3.5810 -0.5134
   38MOL   H24120295   5.951   1.066   2.072  1.2740  0.8177  2.9332
   38MOL   H24220296   5.896   1.224   2.039  0.6592 -2.2330  3.5538
   38MOL   H24320297   6.036   0.998   1.714 -0.9235 -0.6429 -0.0473
   38MOL   H24420298   5.954   0.905   1.824  1.5714 -0.8453 -1.4525
   38MOL   C24520299   5.628   0.795   1.831  0.0510  0.0801 -0.4834
   38MOL   C24620300   5.708   0.695   1.918 -0.4301  0.5971 -0.4354
   38MOL   C24720301   5.742   0.751   2.055 -0.5009 -0.5373 -0.3379
   38MOL   C24820302   5.854   0.677   2.141 -0.1600 -0.5291  0.2747
   38MOL   C24920303   5.986   0.750   2.159 -0.2420  0.0469  0.0164
   38MOL   O25020304   6.037   0.785   2.026 -0.5400 -0.1382  0.2305
   38MOL   C25120305   6.137   0.873   2.018 -0.5361 -0.3628  0.1615
   38MOL   O25220306   6.214   0.900   2.112 -0.4290 -0.8288 -0.2838
   38MOL   C25320307   6.162   0.928   1.872 -0.1696 -0.2143 -0.3961
   38MOL   C25420308   6.277   1.034   1.877 -0.0894 -0.2285 -0.4094
   38MOL   C25520309   6.193   0.808   1.770 -0.2175 -0.4554 -1.0445
   38MOL   H25620310   5.694   0.881   1.820 -0.3392  0.6052  1.1534
   38MOL   H25720311   5.593   0.756   1.735  0.9488 -1.4844 -0.1971
   38MOL   H25820312   5.536   0.836   1.873  0.4652  2.2484 -1.6144
   38MOL   H25920313   5.657   0.599   1.923  0.0171  0.2396 -2.2834
   38MOL   H26020314   5.806   0.675   1.874 -0.7299 -2.8173  0.3267
   38MOL   H26120315   5.655   0.754   2.122 -1.9506  0.0506 -2.2137
   38MOL   H26220316   5.768   0.855   2.036  0.3699 -1.0880 -2.2613
   38MOL   H26320317   5.804   0.647   2.233 -1.3300 -1.1020 -0.5325
   38MOL   H26420318   5.869   0.587   2.083 -0.4890  0.6015 -1.6140
   38MOL   H26520319   5.975   0.836   2.226  2.2337 -0.2395  0.8321
   38MOL   H26620320   6.064   0.681   2.193 -1.8543 -1.2522  1.1810
   38MOL   H26720321   6.296   1.078   1.779 -0.3542 -2.0075 -1.2866
   38MOL   H26820322   6.251   1.110   1.950  0.6778 -0.2007 -0.1615
   38MOL   H26920323   6.365   0.989   1.923 -0.7680  0.3489  1.5168
   38MOL   H27020324   6.099   0.753   1.767 -1.2023  1.0980  0.2651
   38MOL   H27120325   6.199   0.866   1.678 -0.6104  1.2225 -0.0400
   38MOL   C27220326   6.715   1.277   1.273 -0.2075 -0.3777  0.2270
   38MOL   C27320327   6.602   1.232   1.366 -0.3341  0.8302 -0.0896
   38MOL   C27420328   6.645   1.121   1.450  0.2309  0.0754  0.1057
   38MOL   C27520329   6.522   1.068   1.537 -0.8910 -0.4486 -0.1337
   38MOL   C27620330   6.565   0.953   1.629 -0.0031  0.2871  0.2644
   38MOL   O27720331   6.448   0.890   1.674  0.1339 -0.2388 -0.3354
   38MOL   C27820332   6.455   0.780   1.754 -0.4382 -0.4351  0.2145
   38MOL   O27920333   6.559   0.733   1.800  0.0055 -0.0689 -0.0569
   38MOL   C28020334   6.320   0.709   1.784 -0.0375  0.0810 -0.0293
   38MOL   C28120335   6.330   0.652   1.925  0.3512  0.0907  0.1664
   38MOL   C28220336   6.298   0.576   1.696 -0.4749  0.0123  0.2993
   38MOL   H28320337   6.810   1.287   1.324 -0.9669  0.4462  1.5116
   38MOL   H28420338   6.734   1.195   1.204 -2.0175 -2.8540  2.5695
   38MOL   H28520339   6.691   1.356   1.201 -1.4973 -0.0306  1.0168
   38MOL   H28620340   6.577   1.319   1.427  4.0118  0.8976  1.8207
   38MOL   H28720341   6.519   1.207   1.300 -0.0870 -0.5423  0.1157
   38MOL   H28820342   6.693   1.045   1.388 -2.0185 -1.4850  0.1990
   38MOL   H28920343   6.718   1.148   1.526  2.1601  0.6373 -1.9026
   38MOL   H29020344   6.472   1.154   1.582 -1.6632 -0.9679  0.0048
   38MOL   H29120345   6.452   1.026   1.465 -1.0656  0.1294 -0.3020
   38MOL   H29220346   6.631   0.979   1.712  1.0512  1.5061 -0.9252
   38MOL   H29320347   6.626   0.879   1.577 -0.7033  1.0220 -1.6654
   38MOL   H29420348   6.237   0.609   1.964 -1.1292  1.4770 -1.7035
   38MOL   H29520349   6.410   0.582   1.946 -0.0432 -0.3421  0.2402
   38MOL   H29620350   6.357   0.729   1.997 -1.8102 -0.6432  1.8432
   38MOL   H29720351   6.364   0.504   1.745  0.1958  0.4049 -0.0227
   38MOL   H29820352   6.210   0.525   1.735  0.7465 -3.1434 -0.8975
   38MOL   C29920353   5.701   0.532   1.434  0.3074  0.0534  0.4250
   38MOL   C30020354   5.827   0.610   1.475  0.4417  0.3182  0.0792
   38MOL   C30120355   5.815   0.768   1.464  1.1099  0.2444 -0.3438
   38MOL   C30220356   5.931   0.853   1.506 -0.0617 -0.5681  0.4463
   38MOL   C30320357   6.061   0.824   1.428 -0.7621 -1.0859  0.7589
   38MOL   O30420358   6.131   0.706   1.485  0.0221 -0.7355 -0.1120
   38MOL   C30520359   6.262   0.689   1.468  0.3328 -0.0317 -0.0121
   38MOL   O30620360   6.328   0.760   1.397 -0.0801 -0.1016 -0.3116
   38MOL   C30720361   6.317   0.559   1.539 -0.7828 -0.0718  0.2073
   38MOL   C30820362   6.468   0.550   1.507 -0.5388  0.3314 -0.0894
   38MOL   C30920363   6.239   0.434   1.491  0.4263 -0.0894 -0.4610
   38MOL   H31020364   5.719   0.425   1.426 -1.8261 -0.2041 -1.2306
   38MOL   H31120365   5.665   0.564   1.336  0.6052 -0.1749  0.2429
   38MOL   H31220366   5.621   0.553   1.505  0.9364 -0.7039  1.3647
   38MOL   H31320367   5.909   0.573   1.414 -1.7643 -0.9442 -2.2088
   38MOL   H31420368   5.852   0.597   1.581 -2.1740  0.4318  0.7410
   38MOL   H31520369   5.728   0.788   1.527  0.2235  0.5227 -1.6356
   38MOL   H31620370   5.784   0.800   1.364  0.5407  0.1971 -0.1864
   38MOL   H31720371   5.947   0.818   1.608  0.4819 -0.1682  0.4974
   38MOL   H31820372   5.919   0.961   1.514 -1.0438 -0.5953 -0.5972
   38MOL   H31920373   6.049   0.821   1.320 -0.4997 -0.3426  0.7086
   38MOL   H32020374   6.133   0.904   1.444  0.0697 -1.6022 -0.3054
   38MOL   H32120375   6.539   0.598   1.573 -1.6606 -0.7055  1.9286
   38MOL   H32220376   6.503   0.447   1.511  0.7147  0.6755 -1.6703
   38MOL   H32320377   6.491   0.562   1.401 -0.5176 -0.0825 -0.1330
   38MOL   H32420378   6.133   0.455   1.508  0.2435 -0.3465 -1.2563
   38MOL   H32520379   6.255   0.364   1.573 -0.2209  1.4666  1.0373
   38MOL   C32620380   6.089   7.656   1.706  0.2564  0.5401  0.5861
   38MOL   C32720381   6.166   7.579   1.597  0.3059  0.6782 -0.0855
   38MOL   C32820382   6.232   7.669   1.498 -0.2332  0.6221 -0.5601
   38MOL   C32920383   6.359   7.742   1.553 -0.3400 -0.1933  0.0984
   38MOL   C33020384   6.411   0.040   1.454  0.2408  0.3604 -0.5784
   38MOL   O33120385   6.321   0.153   1.439  0.4742 -0.1107 -0.3852
   38MOL   C33220386   6.361   0.259   1.364 -0.4323  0.4716  0.0103
   38MOL   O33320387   6.469   0.269   1.307 -0.1380 -0.0044 -0.2202
   38MOL   C33420388   6.248   0.367   1.353 -1.1048 -0.5594  0.3010
   38MOL   C33520389   6.115   0.289   1.325  0.3121 -0.2564  0.0548
   38MOL   C33620390   6.278   0.475   1.234 -0.0531  0.9890  0.7792
   38MOL   H33720391   6.003   7.610   1.754  1.7100 -1.4815  1.3402
   38MOL   H33820392   6.040   7.745   1.667  1.3515  1.1492  0.5828
   38MOL   H33920393   6.140   7.695   1.794 -0.1857  0.5876  0.8234
   38MOL   H34020394   6.102   7.506   1.548  1.6303 -1.6827  1.6033
   38MOL   H34120395   6.232   7.501   1.635 -0.3748  1.1486  2.1042
   38MOL   H34220396   6.173   7.742   1.444  0.2548  0.6598 -1.0435
   38MOL   H34320397   6.249   7.601   1.415  1.6151 -0.1044  0.3904
   38MOL   H34420398   6.431   7.664   1.575  0.1172  0.0861 -0.4165
   38MOL   H34520399   6.336   7.792   1.646  0.4419  0.6081 -0.1424
   38MOL   H34620400   6.439   0.003   1.355 -1.3629 -0.5363 -0.7071
   38MOL   H34720401   6.503   0.084   1.493  0.2795 -1.0289  0.9211
   38MOL   H34820402   6.035   0.359   1.302  0.4254 -0.2769 -0.4142
   38MOL   H34920403   6.089   0.243   1.421 -0.9313 -0.4358 -0.3611
   38MOL   H35020404   6.117   0.210   1.249 -0.7501  1.9279 -2.3070
   38MOL   H35120405   6.384   0.501   1.239  0.2913  0.0758 -1.4647
   38MOL   H35220406   6.221   0.567   1.250 -0.3764  1.0703 -0.8212
   38MOL   C35320407   5.425   0.294   1.082 -0.4337  0.4518  0.8925
   38MOL   C35420408   5.553   0.325   1.155 -0.4744  0.0263 -0.3062
   38MOL   C35520409   5.650   0.412   1.065  0.6915  0.0634  0.4611
   38MOL   C35620410   5.795   0.415   1.118 -0.4310 -0.4789 -0.5449
   38MOL   C35720411   5.890   0.485   1.012  0.9385  0.1405 -0.2819
   38MOL   O35820412   6.025   0.498   1.059 -0.6006 -0.5867 -0.1132
   38MOL   C35920413   6.117   0.395   1.042 -0.1565 -0.2433 -0.6107
   38MOL   O36020414   6.080   0.286   0.995  0.2606  0.7429  0.3908
   38MOL   C36120415   6.261   0.429   1.085  0.1849  0.3325 -0.2100
   38MOL   C36220416   6.346   0.305   1.049 -0.4952  0.0041  0.3071
   38MOL   C36320417   6.303   0.559   1.000 -0.0443  0.6133 -0.5259
   38MOL   H36420418   5.390   0.386   1.037  1.3423  0.6592 -0.1017
   38MOL   H36520419   5.349   0.254   1.151 -0.1108 -0.9158  0.4805
   38MOL   H36620420   5.445   0.227   0.998  0.4987  1.2565  0.4778
   38MOL   H36720421   5.537   0.368   1.254  0.4658 -0.7001  0.1694
   38MOL   H36820422   5.608   0.233   1.174  1.4913  1.1303 -0.4767
   38MOL   H36920423   5.623   0.518   1.061  0.3221 -0.0697 -0.6878
   38MOL   H37020424   5.650   0.372   0.964 -0.8299  1.8517 -0.2757
   38MOL   H37120425   5.837   0.314   1.129  1.0921  0.1446 -0.4723
   38MOL   H37220426   5.806   0.468   1.213 -0.7823 -0.3341 -0.5856
   38MOL   H37320427   5.893   0.429   0.919 -0.2926  4.8081 -3.3560
   38MOL   H37420428   5.845   0.583   0.994 -2.3869 -1.3686 -0.5071
   38MOL   H37520429   6.328   0.286   0.944 -0.2561 -2.3567  0.6665
   38MOL   H37620430   6.451   0.335   1.055 -0.9405  1.4411  1.1243
   38MOL   H37720431   6.324   0.216   1.108 -0.8235 -0.3046 -0.2827
   38MOL   H37820432   6.233   0.640   1.023  1.1187  1.2152  1.0734
   38MOL   H37920433   6.401   0.581   1.043 -0.0754 -1.4085  0.6403
   38MOL   C38020434   7.078   0.101   0.857 -0.2754 -0.6485 -0.4522
   38MOL   C38120435   6.948   0.150   0.922  0.0587  0.6740  0.2236
   38MOL   C38220436   6.883   0.272   0.851  0.3723  0.7998  0.1475
   38MOL   C38320437   6.746   0.332   0.911  0.5986  0.0747 -1.0383
   38MOL   C38420438   6.698   0.462   0.840 -0.3682  0.4224  0.0027
   38MOL   O38520439   6.571   0.500   0.885  0.3293 -1.0129 -0.5647
   38MOL   C38620440   6.466   0.481   0.808  0.2835  0.0791 -0.2267
   38MOL   O38720441   6.465   0.398   0.720  0.2449  0.4071  0.0446
   38MOL   C38820442   6.337   0.564   0.841 -0.2011 -0.8837 -0.6240
   38MOL   C38920443   6.219   0.507   0.754 -0.6156 -0.0617 -0.4027
   38MOL   C39020444   6.352   0.714   0.805 -0.9419  0.5201  0.2134
   38MOL   H39120445   7.146   0.044   0.920  1.2613  1.8662  0.2886
   38MOL   H39220446   7.059   0.042   0.768  0.8306  0.1270 -1.2218
   38MOL   H39320447   7.137   0.183   0.816 -1.9089  0.3140 -0.9277
   38MOL   H39420448   6.964   0.190   1.023  1.1784  0.9460 -0.0461
   38MOL   H39520449   6.869   0.076   0.935 -0.5271  0.8666 -2.1410
   38MOL   H39620450   6.957   0.350   0.834 -0.1667  1.5244  1.0745
   38MOL   H39720451   6.875   0.246   0.745  2.8906 -1.8375  0.5510
   38MOL   H39820452   6.671   0.254   0.897  0.6316  0.0011 -0.7939
   38MOL   H39920453   6.757   0.349   1.018  0.2626  1.5327 -1.2179
   38MOL   H40020454   6.710   0.452   0.732  1.6711 -2.5812  0.4444
   38MOL   H40120455   6.772   0.538   0.866  1.8085 -1.8154  0.4973
   38MOL   H40220456   6.121   0.547   0.781 -1.1995  0.2992 -2.8890
   38MOL   H40320457   6.218   0.399   0.755 -1.7452 -0.1536 -4.1439
   38MOL   H40420458   6.223   0.526   0.646  0.4276  0.3193 -0.3040
   38MOL   H40520459   6.414   0.755   0.885  1.9315 -0.8912 -1.2024
   38MOL   H40620460   6.254   0.762   0.815 -0.5166  1.5226 -0.3226
   38MOL   C40720461   6.290   1.024   1.226 -0.3066 -0.1537  0.2632
   38MOL   C40820462   6.186   1.109   1.152 -0.1673 -0.4151 -0.3677
   38MOL   C40920463   6.168   1.064   1.004  0.8091 -0.3863 -0.0002
   38MOL   C41020464   6.263   1.144   0.910 -0.3939  0.4030 -0.1713
   38MOL   C41120465   6.250   1.118   0.753 -0.2119 -0.0622  0.2369
   38MOL   O41220466   6.272   0.987   0.722 -0.0420  0.1504 -0.3984
   38MOL   C41320467   6.402   0.935   0.701  0.6313  0.4759  0.3199
   38MOL   O41420468   6.503   1.005   0.692  0.1125 -0.8892  0.2864
   38MOL   C41520469   6.414   0.785   0.674  0.5733  0.6829 -0.0562
   38MOL   C41620470   6.573   0.742   0.667  0.2341 -0.1338 -0.3941
   38MOL   C41720471   6.343   0.738   0.546  0.4192 -0.9610  0.7301
   38MOL   H41820472   6.295   1.047   1.332  0.6907  1.8065 -0.1801
   38MOL   H41920473   6.261   0.919   1.224  4.6982 -1.6658  0.6501
   38MOL   H42020474   6.389   1.018   1.181 -0.7292 -0.5776 -0.6407
   38MOL   H42120475   6.228   1.210   1.156 -3.0396  0.8535 -0.9895
   38MOL   H42220476   6.099   1.117   1.216  0.5481  1.3314  0.4051
   38MOL   H42320477   6.195   0.959   1.000  1.9181 -0.0710 -1.3521
   38MOL   H42420478   6.066   1.069   0.966  1.3427  1.5276 -1.2372
   38MOL   H42520479   6.367   1.128   0.937 -0.2624 -0.1445 -0.9797
   38MOL   H42620480   6.248   1.248   0.939 -0.3863 -0.3579  2.7553
   38MOL   H42720481   6.151   1.139   0.713 -0.4919 -0.8244  0.5233
   38MOL   H42820482   6.321   1.182   0.700 -1.1014  1.2264  0.5798
   38MOL   H42920483   6.606   0.727   0.770  0.1873 -0.5822 -0.4426
   38MOL   H43020484   6.642   0.816   0.627  2.3024 -1.1172  1.2422
   38MOL   H43120485   6.591   0.653   0.607  0.0697 -0.8487  0.6070
   38MOL   H43220486   6.238   0.712   0.563 -0.3599  0.4884 -1.5966
   38MOL   H43320487   6.386   0.638   0.550  0.8300 -0.7769  0.8333
   38MOL   C43420488   6.776   0.792   7.743 -0.1721 -0.2656  0.3563
   38MOL   C43520489   6.668   0.707   7.674  0.0024 -0.0025  0.3197
   38MOL   C43620490   6.536   0.702   7.746 -0.2912 -0.2290 -0.1997
   38MOL   C43720491   6.510   0.579   0.023 -0.5996 -0.2449  0.0713
   38MOL   C43820492   6.378   0.565   0.092  0.3979 -0.6216  0.6784
   38MOL   O43920493   6.384   0.677   0.186 -0.6094  0.0545  0.2788
   38MOL   C44020494   6.318   0.675   0.304 -0.8502  0.8276  0.5333
   38MOL   O44120495   6.234   0.596   0.334 -0.0509 -0.6658  0.1704
   38MOL   C44220496   6.364   0.789   0.391  0.5619  0.2330 -1.0110
   38MOL   C44320497   6.515   0.812   0.371 -0.0523  0.2555  0.0658
   38MOL   C44420498   6.280   0.921   0.372  0.3988 -0.2464  0.0522
   38MOL   H44520499   6.744   0.896   7.739  0.3442 -0.1263 -0.2662
   38MOL   H44620500   6.807   0.769   0.031 -1.9349  0.4603  1.0757
   38MOL   H44720501   6.865   0.782   7.681 -0.6452 -1.2509 -0.1833
   38MOL   H44820502   6.650   0.751   7.576  1.0647  0.0559  0.1447
   38MOL   H44920503   6.704   0.609   7.644 -1.3132 -0.1519 -0.7996
   38MOL   H45020504   6.539   0.789   7.812  0.1047  0.6796 -1.3970
   38MOL   H45120505   6.450   0.718   7.680  1.1442  3.7197 -1.2762
   38MOL   H45220506   6.593   0.566   0.093 -0.9174 -2.9215  0.0196
   38MOL   H45320507   6.516   0.492   7.771 -3.0041 -1.9547  2.0169
   38MOL   H45420508   6.363   0.469   0.143 -0.1847 -1.5312 -1.1841
   38MOL   H45520509   6.296   0.569   0.021  1.0816  0.9128 -0.0406
   38MOL   H45620510   6.558   0.718   0.403 -1.8710 -0.9566 -0.9564
   38MOL   H45720511   6.547   0.826   0.268  0.5159 -0.7020  0.1127
   38MOL   H45820512   6.567   0.884   0.435  2.2435  0.5184 -2.0547
   38MOL   H45920513   6.336   1.000   0.422  1.1071 -0.4170 -0.4702
   38MOL   H46020514   6.201   0.918   0.448  1.3405 -2.2721  0.9952
   38MOL   C46120515   6.935   1.036   0.385 -0.1999  0.4636  0.4597
   38MOL   C46220516   6.813   1.138   0.363  0.4509 -0.1392  0.4675
   38MOL   C46320517   6.737   1.122   0.227 -0.4698 -0.3874 -0.4006
   38MOL   C46420518   6.633   1.232   0.197  0.2408 -0.4927  0.6831
   38MOL   C46520519   6.521   1.176   0.105  1.0043 -0.6078 -0.6442
   38MOL   O46620520   6.421   1.118   0.189 -0.0285 -0.6312 -0.4203
   38MOL   C46720521   6.345   1.011   0.147 -0.4358 -0.1383 -0.1895
   38MOL   O46820522   6.365   0.947   0.047  0.4228 -0.3988  0.5213
   38MOL   C46920523   6.228   0.978   0.242  0.1376 -0.1428 -0.6570
   38MOL   C47020524   6.163   1.116   0.293  0.5185 -0.1605  0.0352
   38MOL   C47120525   6.126   0.870   0.180  0.7438  0.1807  0.2337
   38MOL   H47220526   7.017   1.061   0.318 -0.9816 -0.1603 -0.7535
   38MOL   H47320527   6.918   0.929   0.379  0.7740  0.3860 -0.9619
   38MOL   H47420528   6.984   1.040   0.482 -2.0127  0.0723  1.4102
   38MOL   H47520529   6.868   1.232   0.352  0.5623 -0.3686 -1.0921
   38MOL   H47620530   6.747   1.137   0.450 -0.2063 -1.1796 -0.0298
   38MOL   H47720531   6.693   1.022   0.232  0.8409 -0.8873  1.8702
   38MOL   H47820532   6.806   1.119   0.143  0.6157 -1.4664  0.5173
   38MOL   H47920533   6.693   1.305   0.144  1.3130 -1.2712  0.8013
   38MOL   H48020534   6.594   1.285   0.284 -1.3453 -0.2007 -0.1939
   38MOL   H48120535   6.468   1.257   0.056  1.5334  0.0015 -0.2254
   38MOL   H48220536   6.552   1.114   0.021 -0.0411 -1.3725 -0.4662
   38MOL   H48320537   6.209   1.163   0.380  0.3142  0.1053 -0.0006
   38MOL   H48420538   6.060   1.107   0.328  0.6321  0.2941  0.5056
   38MOL   H48520539   6.141   1.194   0.219 -0.2343 -0.0924  0.3321
   38MOL   H48620540   6.084   0.808   0.259 -1.0684  0.8545 -0.1779
   38MOL   H48720541   6.184   0.799   0.121 -0.0958 -2.3011  2.2891
   38MOL   C48820542   5.426   0.504   0.347  0.4492  0.3285  0.1038
   38MOL   C48920543   5.498   0.477   0.220 -0.3220 -0.0592  0.9145
   38MOL   C49020544   5.654   0.510   0.236 -0.3169  0.2181 -0.4917
   38MOL   C49120545   5.740   0.504   0.108 -0.0834  0.1340  0.5905
   38MOL   C49220546   5.886   0.549   0.143 -0.3849 -0.0532  0.4118
   38MOL   O49320547   5.903   0.692   0.145 -0.3301  0.6151  0.1675
   38MOL   C49420548   5.959   0.758   0.044  0.4562  0.3950  0.4214
   38MOL   O49520549   5.978   0.708   7.746 -0.3544 -0.3870  0.2220
   38MOL   C49620550   6.009   0.900   0.076 -0.4554 -0.2208  0.0879
   38MOL   C49720551   6.067   0.968   7.768 -0.1819  0.3200  0.2245
   38MOL   C49820552   5.898   0.994   0.136 -0.9386 -0.4559 -0.9246
   38MOL   H49920553   5.428   0.611   0.371 -0.1588  0.3520  0.0523
   38MOL   H50020554   5.325   0.465   0.341  0.7828 -0.1841 -2.9104
   38MOL   H50120555   5.463   0.446   0.432 -2.1674 -0.1633  0.9422
   38MOL   H50220556   5.462   0.534   0.134 -1.0987  1.3314  2.1450
   38MOL   H50320557   5.500   0.372   0.192  2.2022  0.3646 -0.6909
   38MOL   H50420558   5.667   0.602   0.293  1.7172 -1.0660  1.1793
   38MOL   H50520559   5.684   0.431   0.304 -0.3860  0.3048 -0.3598
   38MOL   H50620560   5.700   0.556   0.022 -0.2617  1.1945  1.3065
   38MOL   H50720561   5.744   0.399   0.078 -0.9125  0.9953 -2.7198
   38MOL   H50820562   5.923   0.513   0.240  1.5366  0.1218 -0.2253
   38MOL   H50920563   5.947   0.495   0.071  1.9389  1.0241  1.4828
   38MOL   H51020564   6.156   0.916   7.732  0.0579  0.4549  0.6155
   38MOL   H51120565   6.098   1.071   7.788  0.5043  0.7202 -2.7225
   38MOL   H51220566   5.994   0.971   7.687  2.0039 -0.0668 -1.8225
   38MOL   H51320567   5.951   1.089   0.145 -0.7335 -0.7539  1.2996
   38MOL   H51420568   5.882   0.958   0.237  0.3876  0.5410 -0.3401
   38MOL   C51520569   5.976   1.683   7.742  0.6187 -0.1277  0.0082
   38MOL   C51620570   6.052   1.560   7.788 -0.2901  0.2160 -0.7663
   38MOL   C51720571   5.963   1.437   7.800 -0.4883 -0.0947 -0.2064
   38MOL   C51820572   5.950   1.369   7.664  0.5770 -0.1067  0.0260
   38MOL   C51920573   5.834   1.272   7.645 -0.1025  0.2968 -0.1148
   38MOL   O52020574   5.820   1.199   7.760  0.0980  0.3384 -0.5388
   38MOL   C52120575   5.761   1.077   7.755  0.3112  1.0161 -0.0047
   38MOL   O52220576   5.723   1.015   7.657  0.1812 -0.1304  0.5646
   38MOL   C52320577   5.753   1.013   0.083  0.0669  0.6228  1.0648
   38MOL   C52420578   5.674   1.113   0.172 -0.2465 -0.3938  0.2889
   38MOL   C52520579   5.675   0.880   0.087  0.2369 -0.4605  0.4675
   38MOL   H52620580   5.943   1.667   7.639 -0.3689  1.9656 -0.0310
   38MOL   H52720581   5.892   1.693   7.812  1.2462  1.2532  0.5791
   38MOL   H52820582   6.027   1.779   7.745  2.0912 -0.9057  0.4864
   38MOL   H52920583   6.135   1.539   7.721  1.1772  2.6936  0.2156
   38MOL   H53020584   6.090   1.586   0.073 -2.0298  1.9405 -0.5062
   38MOL   H53120585   6.021   1.370   0.049 -0.5563 -0.4371 -0.5023
   38MOL   H53220586   5.860   1.454   0.017 -0.0853  0.5902  0.7908
   38MOL   H53320587   6.035   1.302   7.651 -0.7353 -1.7571 -0.2479
   38MOL   H53420588   5.949   1.445   7.585 -0.4333 -0.5652 -0.4173
   38MOL   H53520589   5.739   1.319   7.617 -0.9852 -0.8672  0.8790
   38MOL   H53620590   5.858   1.207   7.561  3.8448  3.2307 -1.4187
   38MOL   H53720591   5.643   1.071   0.268  1.3412 -0.2704  0.8757
   38MOL   H53820592   5.582   1.149   0.127 -1.1573 -1.6175  1.1336
   38MOL   H53920593   5.736   1.194   0.210  0.7435 -1.5014  1.0939
   38MOL   H54020594   5.705   0.822   0.174  1.1055  0.3178  0.6976
   38MOL   H54120595   5.678   0.823   7.808 -0.3697 -0.5717  0.5193
   38MOL   H54220596   5.568   0.894   0.096  0.0412 -0.6091 -1.4019
   39MOL     C120597   6.586   4.199   2.368 -0.3248 -0.1999 -0.1570
   39MOL     C220598   6.575   4.067   2.278  0.3259 -0.2148 -0.2824
   39MOL     C320599   6.572   4.099   2.132  0.1927  0.4788 -0.2221
   39MOL     C420600   6.542   3.984   2.033  0.0039 -0.2769 -0.0469
   39MOL     C520601   6.512   4.048   1.892  0.7509  0.2133  0.1179
   39MOL     O620602   6.516   3.948   1.796 -0.6586  1.1614 -0.6858
   39MOL     C720603   6.449   3.961   1.676  0.4288  0.2991  0.2903
   39MOL     O820604   6.373   4.056   1.643 -1.1365 -0.4814 -0.2787
   39MOL     C920605   6.471   3.851   1.575 -0.6621  0.1507 -0.0152
   39MOL    C1020606   6.396   3.732   1.631  0.1416  0.2589  0.8432
   39MOL    C1120607   6.627   3.826   1.526  0.5432 -0.0650  0.3738
   39MOL    H1220608   6.492   4.254   2.366 -0.5427 -0.6387 -3.1616
   39MOL    H1320609   6.673   4.263   2.352 -0.7008  0.0675 -1.2001
   39MOL    H1420610   6.601   4.167   2.471  0.1988  0.3038 -0.0731
   39MOL    H1520611   6.644   3.985   2.299 -1.1072 -1.8667 -1.8697
   39MOL    H1620612   6.480   4.022   2.306 -0.1049 -0.3764 -1.9857
   39MOL    H1720613   6.505   4.183   2.114 -0.4590 -0.1563 -0.8433
   39MOL    H1820614   6.672   4.131   2.104  0.6591  0.5611  1.5204
   39MOL    H1920615   6.453   3.932   2.067 -0.1796 -1.0212 -1.5980
   39MOL    H2020616   6.623   3.912   2.028  0.3258 -0.0376  1.6298
   39MOL    H2120617   6.412   4.091   1.888  0.9623  0.5476 -2.6581
   39MOL    H2220618   6.587   4.116   1.851  1.2013 -0.3585 -0.0148
   39MOL    H2320619   6.409   3.648   1.562 -0.0321 -0.0223  1.1471
   39MOL    H2420620   6.288   3.747   1.630 -0.1306 -1.5187  1.0581
   39MOL    H2520621   6.411   3.706   1.736 -2.6169 -3.8834  0.3335
   39MOL    H2620622   6.626   3.732   1.471 -1.9874  0.4681 -0.5602
   39MOL    H2720623   6.693   3.822   1.613  0.1983  1.0056  0.6870
   39MOL    H2820624   6.407   3.874   1.489  0.3692 -0.7868 -1.0467
   39MOL    C2920625   6.972   3.937   2.106 -0.7433 -0.6984  0.8136
   39MOL    C3020626   7.026   4.016   1.984  0.0707 -0.2236 -0.8053
   39MOL    C3120627   6.930   4.016   1.866  0.0330  0.0608  0.0566
   39MOL    C3220628   6.963   4.118   1.756  0.4994  0.0616 -0.5423
   39MOL    C3320629   6.842   4.168   1.674 -0.5731 -0.3546 -0.1661
   39MOL    O3420630   6.809   4.054   1.599 -0.2617 -0.1289 -0.0079
   39MOL    C3520631   6.712   4.072   1.511  0.1583  0.0620 -0.5308
   39MOL    O3620632   6.655   4.181   1.495  0.0021  0.3972  0.1010
   39MOL    C3720633   6.684   3.941   1.433  0.3493  0.6879  0.1505
   39MOL    C3820634   6.573   3.967   1.327  0.0826 -0.1201  0.6853
   39MOL    C3920635   6.821   3.893   1.367  0.3062 -0.1614 -0.0660
   39MOL    H4020636   6.935   3.843   2.066  1.6555 -0.4549 -2.2346
   39MOL    H4120637   7.052   3.910   2.174 -0.3633  1.0827  1.0962
   39MOL    H4220638   6.894   3.985   2.165  0.2712 -0.2843  1.8335
   39MOL    H4320639   7.130   3.997   1.958  0.3198 -0.8331  0.5985
   39MOL    H4420640   7.030   4.122   2.010 -2.6310  0.0209 -1.3094
   39MOL    H4520641   6.832   4.047   1.904  0.0308  0.1776 -0.0493
   39MOL    H4620642   6.924   3.912   1.834  0.0813  0.2970 -0.7117
   39MOL    H4720643   7.019   4.207   1.786  1.0132  0.6729 -3.2070
   39MOL    H4820644   7.039   4.071   1.693 -0.4754 -1.4360 -0.6498
   39MOL    H4920645   6.875   4.252   1.613 -2.3357 -0.8427 -1.8408
   39MOL    H5020646   6.753   4.201   1.728 -0.2045  2.9896 -1.4971
   39MOL    H5120647   6.540   3.873   1.284  1.1791 -0.2879  0.1905
   39MOL    H5220648   6.611   4.028   1.244  1.2434  0.4499  1.6222
   39MOL    H5320649   6.487   4.021   1.368  0.5875  0.4476  0.9999
   39MOL    H5420650   6.795   3.798   1.320  1.7780 -0.9124  0.6187
   39MOL    H5520651   6.885   3.873   1.453 -0.8484 -0.6120  0.7129
   39MOL    C5620652   6.530   3.607   0.565  0.0069 -0.2842 -0.2908
   39MOL    C5720653   6.662   3.641   0.635 -0.1073 -0.6092  0.0641
   39MOL    C5820654   6.639   3.748   0.740 -0.1616 -0.1977 -0.5531
   39MOL    C5920655   6.755   3.774   0.830  1.1421  0.5210  0.2403
   39MOL    C6020656   6.728   3.877   0.945 -0.7811 -0.6331 -0.1975
   39MOL    O6120657   6.807   3.878   1.062 -0.0041  0.1294 -0.1795
   39MOL    C6220658   6.839   3.990   1.136  0.3147 -0.0637 -0.3851
   39MOL    O6320659   6.798   4.102   1.104  0.1548 -0.0825  0.5390
   39MOL    C6420660   6.916   3.972   1.266  0.4610 -0.2490  0.1141
   39MOL    C6520661   7.028   3.880   1.229 -0.2988  0.9260  0.1529
   39MOL    C6620662   6.978   4.105   1.327 -0.2722 -0.2445 -0.0984
   39MOL    H6720663   6.546   3.505   0.528  1.8736 -0.4600  0.9130
   39MOL    H6820664   6.513   3.658   0.470 -0.3090 -0.5866 -0.3972
   39MOL    H6920665   6.438   3.615   0.622  0.0987  0.3327 -0.2322
   39MOL    H7020666   6.705   3.549   0.673  2.8361  1.0992  0.9882
   39MOL    H7120667   6.735   3.682   0.565 -1.4634  0.8742 -0.5324
   39MOL    H7220668   6.609   3.841   0.692  0.5977  0.6244  0.5250
   39MOL    H7320669   6.556   3.718   0.803  0.5159 -0.4215  0.2402
   39MOL    H7420670   6.844   3.804   0.776  1.9532 -2.7060 -0.3476
   39MOL    H7520671   6.781   3.675   0.870 -1.1605 -0.2314 -0.0389
   39MOL    H7620672   6.742   3.977   0.903  1.3841 -1.6785 -2.0747
   39MOL    H7720673   6.629   3.848   0.980  0.6392 -2.2699  2.6217
   39MOL    H7820674   7.089   3.903   1.142 -1.4998  0.6510 -0.7868
   39MOL    H7920675   6.991   3.778   1.217 -1.3515  1.3259 -0.0167
   39MOL    H8020676   7.097   3.887   1.313  0.6152 -1.6814 -0.3299
   39MOL    H8120677   7.004   4.076   1.429 -0.1693  0.2859  0.0299
   39MOL    H8220678   6.895   4.169   1.356 -0.9340 -1.3412  0.4693
   39MOL    C8320679   7.532   3.864   1.830 -0.5996 -0.4960  0.3799
   39MOL    C8420680   7.513   3.760   1.719 -0.4253  0.3245  0.3794
   39MOL    C8520681   7.520   3.831   1.578  0.2636  0.1552  0.4508
   39MOL    C8620682   7.396   3.913   1.536  0.1020  0.4205 -0.0056
   39MOL    C8720683   7.389   3.997   1.405  0.7609 -0.5033  0.0256
   39MOL    O8820684   7.262   4.071   1.390  0.6183  0.1419 -0.0490
   39MOL    C8920685   7.242   4.128   1.276 -0.2523 -0.1128 -0.4989
   39MOL    O9020686   7.328   4.130   1.188 -0.2015  0.2701  0.0126
   39MOL    C9120687   7.104   4.189   1.265 -0.1679 -0.2078 -0.7959
   39MOL    C9220688   7.073   4.212   1.113 -0.3941  0.2334 -0.1053
   39MOL    C9320689   7.093   4.323   1.346  0.1675  0.0588  0.4492
   39MOL    H9420690   7.604   3.941   1.800 -3.8391  2.9460  1.0564
   39MOL    H9520691   7.438   3.918   1.820  0.1210  0.8594  0.7981
   39MOL    H9620692   7.555   3.834   1.932  1.3368 -2.3490 -0.5615
   39MOL    H9720693   7.419   3.706   1.727 -0.2535 -0.4343 -2.1214
   39MOL    H9820694   7.592   3.685   1.724  0.4618  1.1033 -1.3500
   39MOL    H9920695   7.544   3.769   1.492  1.2035  1.6876 -0.4188
   39MOL   H10020696   7.605   3.898   1.581 -0.3324  0.9779 -0.6392
   39MOL   H10120697   7.378   3.982   1.619  0.3855  1.8534 -1.1003
   39MOL   H10220698   7.325   3.831   1.543  1.3962 -0.6036  1.3849
   39MOL   H10320699   7.394   3.922   1.326 -1.8562 -1.7622  0.9933
   39MOL   H10420700   7.468   4.070   1.389  0.5523  0.2090  2.0179
   39MOL   H10520701   7.066   4.114   1.065  0.5774 -1.1692  2.4658
   39MOL   H10620702   7.155   4.273   1.075 -1.1027 -0.2409 -2.4525
   39MOL   H10720703   6.982   4.271   1.112  0.8829  2.2245 -0.7209
   39MOL   H10820704   7.002   4.364   1.303 -0.7571 -2.0718  0.2716
   39MOL   H10920705   7.081   4.298   1.451  1.4181  1.4196  0.9223
   39MOL   C11020706   6.775   4.444   1.989 -0.1056 -0.1120  0.0185
   39MOL   C11120707   6.732   4.534   1.875 -0.5010 -0.3915  0.0920
   39MOL   C11220708   6.838   4.626   1.814 -0.0943 -0.0790 -0.5831
   39MOL   C11320709   6.942   4.540   1.730  0.2809 -0.0807 -0.4625
   39MOL   C11420710   7.023   4.616   1.627  0.0757  0.1201  0.3112
   39MOL   O11520711   7.092   4.523   1.540  0.4501  0.1309  0.1056
   39MOL   C11620712   7.127   4.557   1.415 -0.7072 -0.6039 -0.5002
   39MOL   O11720713   7.116   4.669   1.369 -0.7451 -0.0032 -0.4487
   39MOL   C11820714   7.195   4.442   1.342 -1.0616  0.1843 -0.0159
   39MOL   C11920715   7.208   4.480   1.195  0.1532 -0.5016 -0.3399
   39MOL   C12020716   7.331   4.411   1.415 -0.4913 -0.0186  0.2960
   39MOL   H12120717   6.688   4.407   2.042 -0.0956 -0.2793 -0.0803
   39MOL   H12220718   6.842   4.362   1.963  1.0441  1.1941 -1.2527
   39MOL   H12320719   6.824   4.510   2.061 -1.5894  0.0873  0.8580
   39MOL   H12420720   6.702   4.472   1.790  0.9504 -0.9536 -0.0180
   39MOL   H12520721   6.646   4.592   1.911 -0.3041  0.2460 -0.4525
   39MOL   H12620722   6.784   4.684   1.740 -2.9049 -1.2435  0.4892
   39MOL   H12720723   6.885   4.698   1.881  1.2485  0.0998 -1.6967
   39MOL   H12820724   6.901   4.452   1.682  0.7789 -1.1061  0.9702
   39MOL   H12920725   7.021   4.509   1.799  0.6000 -0.8768 -1.1835
   39MOL   H13020726   6.953   4.673   1.565  2.5634 -1.4022 -4.0966
   39MOL   H13120727   7.098   4.673   1.680 -0.0557  0.6332 -0.0540
   39MOL   H13220728   7.116   4.483   1.137  0.6379  1.7358 -1.0591
   39MOL   H13320729   7.246   4.582   1.184  0.5346 -0.7972 -1.8267
   39MOL   H13420730   7.285   4.410   1.163  0.6934 -0.2405  0.3727
   39MOL   H13520731   7.308   4.326   1.479  0.7193 -0.4346  0.1878
   39MOL   H13620732   7.389   4.361   1.337  0.5669 -1.9644  2.2723
   39MOL   C13720733   0.048   3.928   1.306 -0.6804  0.1678  0.3259
   39MOL   C13820734   0.118   4.043   1.373 -0.3664  0.7074 -0.3943
   39MOL   C13920735   0.052   4.102   1.498  0.3463  1.0639  0.4172
   39MOL   C14020736   7.746   4.188   1.453 -0.7066 -0.2317 -0.4389
   39MOL   C14120737   7.664   4.236   1.571 -0.6926 -0.2910  0.1424
   39MOL   O14220738   7.556   4.320   1.536  0.2809 -0.8568  0.1700
   39MOL   C14320739   7.571   4.434   1.481  0.1440 -0.1809 -0.8627
   39MOL   O14420740   7.675   4.473   1.428  0.2925  0.6579 -0.1469
   39MOL   C14520741   7.439   4.510   1.480  0.2303  0.1870  0.2676
   39MOL   C14620742   7.464   4.628   1.379  0.8669  0.5766 -0.0969
   39MOL   C14720743   7.395   4.546   1.629 -0.4055 -0.5994  0.0601
   39MOL   H14820744   7.802   3.960   1.220 -1.6723 -0.1003  0.9127
   39MOL   H14920745   7.793   3.864   1.361  0.8861 -2.7059 -0.9341
   39MOL   H15020746   0.122   3.856   1.272 -1.0026 -0.2325  0.4663
   39MOL   H15120747   0.140   4.114   1.293 -0.8851 -0.5397 -1.6663
   39MOL   H15220748   0.215   4.002   1.403 -0.9240  1.2279  2.2539
   39MOL   H15320749   0.026   4.018   1.563 -1.1449 -0.1538 -1.6700
   39MOL   H15420750   0.121   4.166   1.551  0.5864  0.7359  0.5005
   39MOL   H15520751   7.797   4.263   1.392  1.6509  0.0111  1.7342
   39MOL   H15620752   7.687   4.129   1.383 -0.5554 -1.3840  0.3991
   39MOL   H15720753   7.735   4.268   1.648  0.6111  0.9991 -1.5527
   39MOL   H15820754   7.616   4.149   1.615 -0.0995 -1.9776 -2.4665
   39MOL   H15920755   7.499   4.605   1.278  1.6436  0.7623  0.1243
   39MOL   H16020756   7.531   4.704   1.420  1.5647  0.1093 -0.3630
   39MOL   H16120757   7.372   4.681   1.352  0.5914  0.0843 -0.1150
   39MOL   H16220758   7.296   4.588   1.612 -0.9861 -1.5287  1.0591
   39MOL   H16320759   7.390   4.451   1.682 -1.1014 -1.3488 -1.3260
   39MOL   C16420760   7.116   5.418   1.667 -0.2898  0.5304 -0.0952
   39MOL   C16520761   7.166   5.295   1.739 -0.0641 -0.4764  0.4352
   39MOL   C16620762   7.230   5.206   1.635 -0.2157  0.3627  0.4408
   39MOL   C16720763   7.284   5.074   1.692 -0.1716  0.0474  0.2108
   39MOL   C16820764   7.306   4.959   1.586  0.6176 -0.2370 -0.0797
   39MOL   O16920765   7.330   4.828   1.640 -0.1808 -0.2279 -0.3041
   39MOL   C17020766   7.452   4.795   1.681  0.1000 -0.7957  0.4084
   39MOL   O17120767   7.541   4.880   1.700 -0.0956  0.3285 -0.1512
   39MOL   C17220768   7.465   4.647   1.732  0.0953  0.3994  0.6628
   39MOL   C17320769   7.613   4.607   1.742 -0.6248  0.1688  0.3552
   39MOL   C17420770   7.399   4.617   1.879  0.4271 -0.1243  0.2930
   39MOL   H17520771   7.071   5.498   1.726 -2.0404  0.9065 -1.8977
   39MOL   H17620772   7.049   5.389   1.586  1.7947 -1.7666 -1.0655
   39MOL   H17720773   7.201   5.461   1.615 -0.8742  0.1121 -1.4188
   39MOL   H17820774   7.082   5.246   1.787  0.9777 -1.4749  1.2835
   39MOL   H17920775   7.244   5.311   1.814 -0.6121  0.0602  0.8997
   39MOL   H18020776   7.155   5.189   1.558  1.0519  2.8559 -1.4456
   39MOL   H18120777   7.313   5.256   1.583  0.2080 -0.5291  0.2385
   39MOL   H18220778   7.212   5.024   1.756  0.5288 -1.7204 -0.3330
   39MOL   H18320779   7.380   5.103   1.735 -0.7545  0.1059  1.4698
   39MOL   H18420780   7.378   4.980   1.507 -1.3609 -0.1094 -1.9030
   39MOL   H18520781   7.209   4.952   1.536 -0.2054 -2.3757  1.7427
   39MOL   H18620782   7.615   4.501   1.769 -0.0759 -0.1905 -1.0574
   39MOL   H18720783   7.665   4.647   1.829  1.1697 -1.3253 -0.0137
   39MOL   H18820784   7.670   4.633   1.653 -2.1885  1.6257 -0.2650
   39MOL   H18920785   7.294   4.592   1.869  0.5046 -0.9797  1.4797
   39MOL   H19020786   7.444   4.525   1.917 -0.0459 -0.5235 -0.1170
   39MOL   C19120787   7.259   4.793   2.667 -0.5299 -0.1708 -0.1022
   39MOL   C19220788   7.303   4.889   2.552 -0.2711  0.1166 -0.5820
   39MOL   C19320789   7.212   4.887   2.426  0.3499  0.3138  0.5239
   39MOL   C19420790   7.240   5.005   2.326  0.3797  0.1884  0.0063
   39MOL   C19520791   7.221   4.977   2.175  0.4468 -0.4956 -0.6197
   39MOL   O19620792   7.321   4.879   2.140  0.1283  0.9968  0.0603
   39MOL   C19720793   7.317   4.821   2.024 -0.3662  0.7242  0.5791
   39MOL   O19820794   7.247   4.855   1.935  0.8076 -0.2618  0.6428
   39MOL   C19920795   7.415   4.705   2.013  0.8683 -0.8601 -0.2436
   39MOL   C20020796   7.560   4.757   2.028 -0.5130 -0.3586  0.2713
   39MOL   C20120797   7.395   4.608   2.144  0.8011  0.2876  0.4445
   39MOL   H20220798   7.152   4.800   2.689  0.2610  3.0102  3.1432
   39MOL   H20320799   7.271   4.688   2.637 -0.1859 -0.1277 -0.1149
   39MOL   H20420800   7.306   4.795   2.765  1.6977  0.4688 -1.1436
   39MOL   H20520801   7.409   4.874   2.536 -0.0176 -0.2800  1.3801
   39MOL   H20620802   7.293   4.990   2.592  0.0463 -0.1129  0.0768
   39MOL   H20720803   7.108   4.896   2.455 -0.1428 -0.1188 -1.0300
   39MOL   H20820804   7.232   4.791   2.379 -3.9444  1.0264 -3.0705
   39MOL   H20920805   7.179   5.093   2.348 -1.9207 -1.3619 -0.0064
   39MOL   H21020806   7.343   5.037   2.340  1.2037 -2.0766 -0.7156
   39MOL   H21120807   7.118   4.944   2.162  0.0646  2.0123 -4.4573
   39MOL   H21220808   7.228   5.071   2.122 -0.7472  0.0963  0.2607
   39MOL   H21320809   7.584   4.822   1.944  0.2942 -1.1617 -0.1258
   39MOL   H21420810   7.633   4.676   2.039 -1.0759 -0.6967  1.6474
   39MOL   H21520811   7.555   4.824   2.114  0.2151 -0.7124  0.5919
   39MOL   H21620812   7.419   4.658   2.238 -2.5890 -1.1872  2.1875
   39MOL   H21720813   7.477   4.537   2.148 -0.8720 -1.8033 -0.9830
   39MOL   C21820814   0.078   4.415   2.001  0.0396  0.1539 -0.2089
   39MOL   C21920815   0.000   4.284   2.011  0.0111 -0.3080  0.7645
   39MOL   C22020816   7.668   4.298   1.971  0.2895 -0.0411 -1.5360
   39MOL   C22120817   7.572   4.188   2.023  0.3302  0.0301  0.5934
   39MOL   C22220818   7.421   4.226   1.990  0.1538  0.4888 -0.2239
   39MOL   O22320819   7.388   4.329   2.083 -0.4747 -0.3191 -0.0224
   39MOL   C22420820   7.267   4.391   2.079  0.1684 -0.0800  0.2384
   39MOL   O22520821   7.178   4.355   1.999  0.1090 -0.1124  0.6092
   39MOL   C22620822   7.267   4.524   2.172  0.5836 -0.1607 -0.1593
   39MOL   C22720823   7.137   4.601   2.145 -0.3346 -0.9388 -0.1487
   39MOL   C22820824   7.286   4.482   2.318 -0.7201 -0.7054 -0.2398
   39MOL   H22920825   0.063   4.478   2.088  2.6043 -0.4952  0.7726
   39MOL   H23020826   0.185   4.396   1.993  0.0650 -1.3473  3.1167
   39MOL   H23120827   0.061   4.468   1.907 -2.4511 -1.1313 -0.5191
   39MOL   H23220828   0.001   4.254   2.116 -1.2061  0.5116  1.0194
   39MOL   H23320829   0.052   4.206   1.955 -0.6566 -1.4169  1.7008
   39MOL   H23420830   7.661   4.297   1.862 -1.2068  2.0131 -1.4826
   39MOL   H23520831   7.628   4.395   2.001  0.7850 -0.4589  0.5935
   39MOL   H23620832   7.604   4.094   1.976 -2.2845 -1.2436  1.2479
   39MOL   H23720833   7.558   4.154   2.126  0.2285 -1.5589  0.0742
   39MOL   H23820834   7.360   4.136   1.988 -0.1534  0.6866  0.3407
   39MOL   H23920835   7.416   4.261   1.887  0.4496  0.6095 -0.1983
   39MOL   H24020836   7.037   4.565   2.171 -0.6040  1.2104  2.0692
   39MOL   H24120837   7.133   4.630   2.040 -0.7699 -0.3430  0.0285
   39MOL   H24220838   7.143   4.690   2.208  2.2220 -0.5335 -0.9412
   39MOL   H24320839   7.272   4.575   2.373 -0.4050 -1.4912  1.1871
   39MOL   H24420840   7.390   4.458   2.339 -0.8128 -2.5824 -1.8707
   39MOL   C24520841   0.101   4.062   2.511 -0.1469 -0.1817 -0.2477
   39MOL   C24620842   7.813   4.186   2.514 -1.0301  0.8088 -1.0380
   39MOL   C24720843   7.684   4.175   2.424  0.0748  0.1783  0.3254
   39MOL   C24820844   7.580   4.073   2.474 -0.6087 -0.4417  0.0827
   39MOL   C24920845   7.446   4.072   2.401  0.6218 -0.4074 -0.4338
   39MOL   O25020846   7.381   4.199   2.415  0.2572 -0.4374 -0.2450
   39MOL   C25120847   7.266   4.223   2.350  0.7648  0.2884 -0.5359
   39MOL   O25220848   7.214   4.146   2.265  0.1599 -0.0275  0.1579
   39MOL   C25320849   7.204   4.363   2.391  0.6541  0.4495  0.0797
   39MOL   C25420850   7.047   4.366   2.358 -0.0122 -0.1737 -0.6331
   39MOL   C25520851   7.237   4.395   2.547 -0.8421  0.3539  0.9354
   39MOL   H25620852   0.063   3.973   2.562  0.2166 -0.4259 -0.3982
   39MOL   H25720853   0.113   4.035   2.406  1.2760 -0.5041 -0.0105
   39MOL   H25820854   0.188   4.095   2.567 -0.7502 -1.9225  1.7894
   39MOL   H25920855   7.794   4.212   2.619 -1.6937 -1.6088 -0.5215
   39MOL   H26020856   0.054   4.268   2.470 -0.6212 -0.6583 -3.3388
   39MOL   H26120857   7.692   4.140   2.322 -1.7682  2.5886 -0.7140
   39MOL   H26220858   7.633   4.271   2.413  0.6534  0.5874  1.1113
   39MOL   H26320859   7.609   3.968   2.460 -1.1201 -0.1892 -3.1692
   39MOL   H26420860   7.558   4.091   2.579  1.4189 -2.7291  0.9518
   39MOL   H26520861   7.454   4.032   2.300 -0.2762  0.1553 -0.7347
   39MOL   H26620862   7.377   4.001   2.446  0.6431 -0.4655 -0.4921
   39MOL   H26720863   6.988   4.288   2.406  0.7489  1.1530  2.5722
   39MOL   H26820864   7.006   4.464   2.382 -0.7551 -0.8470  0.9335
   39MOL   H26920865   7.030   4.356   2.251  0.9698 -1.1636 -0.7127
   39MOL   H27020866   7.346   4.398   2.556 -0.7852 -0.0965  0.3867
   39MOL   H27120867   7.205   4.498   2.560 -3.6492 -0.2393 -0.9504
   39MOL   C27220868   6.541   4.595   2.395 -0.1233  0.4073  0.1622
   39MOL   C27320869   6.507   4.560   2.545  0.4855 -0.1386  0.3860
   39MOL   C27420870   6.624   4.601   2.633  0.4258 -0.9323  0.4806
   39MOL   C27520871   6.758   4.536   2.598 -0.2112 -0.1918 -1.0962
   39MOL   C27620872   6.860   4.548   2.712  0.6867 -0.2737  0.2425
   39MOL   O27720873   6.985   4.498   2.668  0.0912 -0.1836  0.0958
   39MOL   C27820874   7.015   4.366   2.695 -0.4655  0.1929  0.2545
   39MOL   O27920875   6.935   4.294   2.747  0.0205  0.3950 -0.2322
   39MOL   C28020876   7.166   4.322   2.675 -0.2206  0.5425 -0.3495
   39MOL   C28120877   7.176   4.167   2.670 -0.4391  0.3869 -0.5290
   39MOL   C28220878   7.241   4.369   2.799 -0.3831 -0.0618  0.3133
   39MOL   H28320879   6.572   4.698   2.380  2.1653 -0.5187 -1.8447
   39MOL   H28420880   6.622   4.529   2.365 -0.7434 -0.0167 -0.6024
   39MOL   H28520881   6.464   4.574   2.321 -0.6973  3.7953 -0.2855
   39MOL   H28620882   6.415   4.612   2.573 -0.1332 -0.9936 -0.0340
   39MOL   H28720883   6.473   4.457   2.555  0.1864 -0.2573 -1.7232
   39MOL   H28820884   6.625   4.710   2.627  0.5490 -1.1101 -3.8849
   39MOL   H28920885   6.605   4.572   2.736  1.2766 -0.9883  0.6261
   39MOL   H29020886   6.748   4.430   2.572  2.4360 -0.3340 -1.6820
   39MOL   H29120887   6.796   4.587   2.510  1.2823 -0.0408 -0.3889
   39MOL   H29220888   6.828   4.502   2.805  0.1941 -0.9496 -0.2509
   39MOL   H29320889   6.883   4.653   2.724 -1.3560  0.3358 -0.8603
   39MOL   H29420890   7.275   4.138   2.705 -1.5194 -0.8587  1.5286
   39MOL   H29520891   7.103   4.108   2.725 -0.0062  0.0218 -0.3415
   39MOL   H29620892   7.159   4.124   2.571 -0.5654 -1.6503  0.3565
   39MOL   H29720893   7.341   4.331   2.778 -0.3366  0.3573 -0.2042
   39MOL   H29820894   7.268   4.474   2.797 -1.1347  0.1231 -0.3192
   39MOL   C29920895   6.707   4.756   3.431 -1.0267  0.4583 -0.1420
   39MOL   C30020896   6.827   4.702   3.362 -0.4640  1.2350  0.2760
   39MOL   C30120897   6.809   4.548   3.379 -0.6919  0.2981  0.1019
   39MOL   C30220898   6.922   4.471   3.318 -0.6739  0.3628 -0.1206
   39MOL   C30320899   6.954   4.499   3.166 -0.5924 -0.1095 -0.0343
   39MOL   O30420900   7.055   4.418   3.120  0.3102 -0.2434 -0.4975
   39MOL   C30520901   7.118   4.453   3.008 -0.1439  0.2945  0.1626
   39MOL   O30620902   7.100   4.557   2.947  0.5226 -0.3672 -0.0336
   39MOL   C30720903   7.214   4.340   2.956  0.0610 -0.2186  0.8160
   39MOL   C30820904   7.152   4.197   2.970 -0.2248  0.0528  0.1446
   39MOL   C30920905   7.365   4.359   3.018  0.0471 -0.2460  0.6170
   39MOL   H31020906   6.616   4.746   3.371 -0.4292 -0.3715 -0.9182
   39MOL   H31120907   6.713   4.863   3.452 -0.9311  0.6169 -0.9779
   39MOL   H31220908   6.681   4.701   3.522 -2.2917  2.0276  0.4769
   39MOL   H31320909   6.918   4.733   3.413 -0.1150  1.1581 -0.3012
   39MOL   H31420910   6.832   4.741   3.261 -0.4438 -0.0266 -0.2207
   39MOL   H31520911   6.712   4.514   3.343  0.0126  0.7965 -2.3868
   39MOL   H31620912   6.816   4.516   3.483 -0.3930  0.0432  0.0049
   39MOL   H31720913   6.894   4.367   3.326  1.3160 -0.0866  1.3984
   39MOL   H31820914   7.007   4.473   3.386 -0.8011 -0.3395  0.0530
   39MOL   H31920915   6.873   4.475   3.097 -0.4072 -0.9395  0.0206
   39MOL   H32020916   6.981   4.603   3.151 -0.8977  0.0509  0.5077
   39MOL   H32120917   7.110   4.169   3.067  0.1740 -2.7347 -0.4602
   39MOL   H32220918   7.056   4.210   2.920 -0.6845 -1.5114  0.6040
   39MOL   H32320919   7.200   4.111   2.925 -0.5468  0.0154 -0.1260
   39MOL   H32420920   7.403   4.445   2.964  0.0673  0.2403  1.4025
   39MOL   H32520921   7.423   4.277   2.975 -0.1355 -1.3766  2.4968
   39MOL   C32620922   7.489   5.003   3.440  0.3488  1.6731 -0.0804
   39MOL   C32720923   7.483   4.913   3.568  0.0617 -0.1794  0.2194
   39MOL   C32820924   7.379   4.802   3.560  0.1355  0.5058 -0.6320
   39MOL   C32920925   7.414   4.680   3.478  0.1095  0.3543 -0.0462
   39MOL   C33020926   7.293   4.597   3.438 -0.1799  0.2920  1.0187
   39MOL   O33120927   7.344   4.487   3.370 -0.4725  0.4371 -0.0086
   39MOL   C33220928   7.346   4.490   3.239  0.0513  0.4435  0.4433
   39MOL   O33320929   7.313   4.582   3.168  0.2861  0.0113  0.0038
   39MOL   C33420930   7.390   4.355   3.171 -0.3166  0.0566  0.3964
   39MOL   C33520931   7.314   4.240   3.234  0.1417  0.7444 -0.1271
   39MOL   C33620932   7.542   4.339   3.204 -0.0791  0.3014  0.3382
   39MOL   H33720933   7.480   4.942   3.350 -2.4926  0.5557  0.8852
   39MOL   H33820934   7.580   5.062   3.440  1.9740 -0.7607  1.3863
   39MOL   H33920935   7.406   5.072   3.428 -1.0787 -0.0781 -0.5011
   39MOL   H34020936   7.452   4.975   3.652  3.1564  0.7527  0.7115
   39MOL   H34120937   7.579   4.884   3.609  0.3350  0.5064  0.0775
   39MOL   H34220938   7.295   4.855   3.515  0.4069  1.0591 -0.4991
   39MOL   H34320939   7.357   4.766   3.661 -0.1208  0.7290 -0.6068
   39MOL   H34420940   7.485   4.622   3.535 -0.5520  0.6898  1.1453
   39MOL   H34520941   7.471   4.712   3.391 -0.6694 -0.3739 -0.8387
   39MOL   H34620942   7.222   4.654   3.377 -0.9390 -0.2344  1.3949
   39MOL   H34720943   7.237   4.563   3.526 -0.6096 -0.8618  0.3053
   39MOL   H34820944   7.322   4.149   3.176  2.2460  0.7309  0.1544
   39MOL   H34920945   7.209   4.264   3.249  0.1274  1.1768 -0.8470
   39MOL   H35020946   7.355   4.214   3.331  0.2478  1.6932  0.0927
   39MOL   H35120947   7.565   4.233   3.193 -3.3050 -0.2045 -2.4413
   39MOL   H35220948   7.541   4.344   3.313 -0.2722  3.2985  0.2457
   39MOL   C35320949   7.761   4.567   2.349 -0.3638 -0.5474 -1.0917
   39MOL   C35420950   7.749   4.587   2.502  0.3614  0.3943  0.0263
   39MOL   C35520951   7.605   4.574   2.550  0.1742  0.2794  0.9419
   39MOL   C35620952   7.586   4.587   2.705  0.3677 -0.3840 -0.2046
   39MOL   C35720953   7.670   4.488   2.787  0.1363  0.0444  0.0872
   39MOL   O35820954   7.645   4.499   2.920  0.4673  0.5124  0.2999
   39MOL   C35920955   7.675   4.393   2.993  0.2080  0.1606  0.0761
   39MOL   O36020956   7.717   4.288   2.950 -0.3817  0.8107  0.4068
   39MOL   C36120957   7.667   4.426   3.145 -0.6078 -0.3282 -0.1803
   39MOL   C36220958   7.785   4.362   3.231  0.4528 -0.2372  0.2915
   39MOL   C36320959   7.661   4.583   3.179  0.4065 -0.3533 -0.8837
   39MOL   H36420960   7.730   4.469   2.312  2.2503 -1.4611 -0.9367
   39MOL   H36520961   0.045   4.586   2.304  1.2971 -2.3611  1.6172
   39MOL   H36620962   7.685   4.636   2.312 -0.0145  2.0050  2.6880
   39MOL   H36720963   7.812   4.515   2.554  0.7346 -0.1429 -1.1446
   39MOL   H36820964   7.801   4.678   2.531  1.4879 -0.0311 -0.6015
   39MOL   H36920965   7.571   4.476   2.516  0.6700  0.5629 -0.3859
   39MOL   H37020966   7.548   4.651   2.499 -0.5604 -0.4820  0.6012
   39MOL   H37120967   7.480   4.574   2.727  0.4792  0.1645  0.6758
   39MOL   H37220968   7.607   4.690   2.735 -1.8882  0.6413 -1.9967
   39MOL   H37320969   7.637   4.392   2.750 -1.2599 -0.1291  1.7168
   39MOL   H37420970   7.779   4.483   2.775  0.0877  0.8335 -0.7998
   39MOL   H37520971   0.076   4.384   3.207 -0.2279  3.0169  0.1053
   39MOL   H37620972   7.791   4.387   3.337 -0.3258  1.2275  0.0012
   39MOL   H37720973   7.789   4.253   3.234  0.4599 -0.3974 -3.3164
   39MOL   H37820974   7.577   4.618   3.119  1.4328  2.3419 -0.8275
   39MOL   H37920975   7.605   4.600   3.271 -2.7712 -0.8197 -2.6487
   39MOL   C38020976   0.695   4.725   3.603  0.8771  0.5890 -0.1518
   39MOL   C38120977   0.562   4.757   3.519 -0.4674 -0.1282 -0.0473
   39MOL   C38220978   0.477   4.633   3.489  0.0275  0.4601  0.5848
   39MOL   C38320979   0.388   4.655   3.368 -0.6068 -0.1424 -0.2466
   39MOL   C38420980   0.259   4.582   3.391 -0.6615 -0.2664 -0.0801
   39MOL   O38520981   0.178   4.606   3.278  0.3302 -0.0388  0.4579
   39MOL   C38620982   0.065   4.678   3.292  0.0038  0.6828  0.3582
   39MOL   O38720983   0.016   4.715   3.402 -0.1452 -0.6612  0.3090
   39MOL   C38820984   7.788   4.688   3.168  0.4304  0.2711 -0.5589
   39MOL   C38920985   0.060   4.675   3.038  0.8120 -0.6711 -0.0983
   39MOL   C39020986   7.728   4.832   3.162 -0.0668  0.2148 -0.5293
   39MOL   H39120987   0.753   4.643   3.560  0.2626 -0.0676  0.2578
   39MOL   H39220988   0.764   4.804   3.634  0.1910  1.0506  0.2228
   39MOL   H39320989   0.669   4.702   3.706 -0.1622 -0.1293 -0.5691
   39MOL   H39420990   0.590   4.803   3.424  1.2787 -2.8858 -0.9294
   39MOL   H39520991   0.499   4.826   3.574 -1.9177 -1.1405 -0.4137
   39MOL   H39620992   0.548   4.555   3.461 -0.7684 -0.0695  0.0318
   39MOL   H39720993   0.420   4.597   3.575 -0.8719  0.1551 -0.1293
   39MOL   H39820994   0.365   4.761   3.367  1.9115  0.4502  1.6755
   39MOL   H39920995   0.442   4.624   3.279 -1.3945  1.3344 -1.2611
   39MOL   H40020996   0.213   4.624   3.481  1.1295 -0.8455  1.1268
   39MOL   H40120997   0.272   4.475   3.407 -0.2877  0.0352  1.8725
   39MOL   H40220998   0.069   4.568   3.018 -1.9332 -1.0983  0.8548
   39MOL   H40320999   0.166   4.699   3.046  0.1931  1.5393  1.8384
   39MOL   H40421000   0.012   4.719   2.951 -0.8525  0.3665  1.3284
   39MOL   H40521001   7.677   4.832   3.258  0.2629 -0.9856 -0.3389
   39MOL   H40621002   7.654   4.814   3.084 -0.4094  1.4685 -0.5089
   39MOL   C40721003   0.303   4.964   3.834  0.2162 -0.0496  0.0236
   39MOL   C40821004   0.177   4.908   3.764  0.0586  0.2414 -0.6029
   39MOL   C40921005   0.104   5.010   3.674 -0.3797 -0.1750  0.7963
   39MOL   C41021006   0.195   5.047   3.553  0.5956 -0.0189 -0.6808
   39MOL   C41121007   0.124   5.127   3.440  0.9415  0.2401  0.3624
   39MOL   O41221008   0.045   5.047   3.355 -0.3877 -0.0078  0.4533
   39MOL   C41321009   0.097   4.987   3.242  0.2987 -0.0486 -0.6180
   39MOL   O41421010   0.211   4.949   3.219 -0.1674  0.0963  0.3667
   39MOL   C41521011   7.807   4.966   3.128  1.2384 -0.1994  0.7006
   39MOL   C41621012   0.068   4.966   2.994  0.2293 -0.4108  0.1193
   39MOL   C41721013   7.705   5.091   3.129  0.3805 -0.3051 -0.5199
   39MOL   H41821014   0.397   4.977   3.780  0.4840  3.4440  1.1718
   39MOL   H41921015   0.295   5.064   3.876  1.2858  0.2610 -0.4832
   39MOL   H42021016   0.330   4.891   3.911 -1.5748 -1.1083 -0.3385
   39MOL   H42121017   0.108   4.870   3.839  0.3002  1.0961  0.0651
   39MOL   H42221018   0.202   4.820   3.705 -1.9631 -0.0277 -1.1024
   39MOL   H42321019   0.013   4.955   3.649  1.1742 -1.9143 -1.2835
   39MOL   H42421020   0.073   5.098   3.730 -0.6409  0.3253 -0.1226
   39MOL   H42521021   0.231   4.956   3.504 -1.3379 -1.4459  0.4777
   39MOL   H42621022   0.284   5.101   3.587  0.3409  0.2337 -0.4185
   39MOL   H42721023   0.063   5.211   3.476  0.3003  0.9694 -2.3314
   39MOL   H42821024   0.207   5.163   3.378 -0.7156 -1.3381 -2.8591
   39MOL   H42921025   7.812   4.948   2.913  1.7311  2.4296 -1.9160
   39MOL   H43021026   0.149   4.895   2.977  1.4708  0.9583  0.2077
   39MOL   H43121027   0.114   5.064   2.983 -0.4923 -0.1198 -0.3570
   39MOL   H43221028   7.764   5.181   3.148  1.5490 -0.9101 -1.2635
   39MOL   H43321029   7.649   5.088   3.223 -1.9497  2.3274 -1.7376
   39MOL   C43421030   6.979   5.116   3.314  0.1810  0.7670 -0.4389
   39MOL   C43521031   7.053   4.991   3.292  0.5639 -0.7062 -0.0907
   39MOL   C43621032   7.160   4.995   3.182  0.7027  0.0468 -0.4448
   39MOL   C43721033   7.238   4.870   3.178  0.5044  0.8515  0.4493
   39MOL   C43821034   7.337   4.872   3.050 -0.0797  0.2889  0.0985
   39MOL   O43921035   7.441   4.977   3.075  0.1752 -0.3390 -0.4559
   39MOL   C44021036   7.514   5.020   2.982  0.1193  0.5499  0.5788
   39MOL   O44121037   7.519   4.976   2.866 -0.1023 -0.1414  0.1996
   39MOL   C44221038   7.608   5.136   3.019  0.3203 -0.1672  0.3757
   39MOL   C44321039   7.675   5.200   2.896 -0.0106  0.5196  0.5613
   39MOL   C44421040   7.527   5.253   3.092  0.0013  0.4370 -0.2378
   39MOL   H44521041   7.037   5.204   3.341  0.7086  0.5753 -0.9450
   39MOL   H44621042   6.929   5.148   3.223 -0.9010  0.9179  0.1985
   39MOL   H44721043   6.908   5.102   3.396  1.6090 -1.1244  0.5322
   39MOL   H44821044   7.085   4.956   3.389 -1.0907 -1.4526  0.2094
   39MOL   H44921045   6.979   4.918   3.259  0.3340 -0.6089  0.2124
   39MOL   H45021046   7.112   5.013   3.086  3.0494 -0.5334 -1.7748
   39MOL   H45121047   7.234   5.075   3.197  1.2119  0.1562 -3.3146
   39MOL   H45221048   7.173   4.783   3.169  3.2452 -1.3258  0.9560
   39MOL   H45321049   7.294   4.844   3.268 -0.9471 -4.1300  0.0875
   39MOL   H45421050   7.284   4.893   2.957  0.5461 -0.6312 -0.4772
   39MOL   H45521051   7.403   4.786   3.049  2.0480  1.8742 -1.3901
   39MOL   H45621052   7.615   5.230   2.810  2.4282 -0.3310 -1.5067
   39MOL   H45721053   7.721   5.296   2.922 -0.3346  1.3639 -1.8804
   39MOL   H45821054   7.755   5.142   2.850 -0.1114  0.9669 -0.1874
   39MOL   H45921055   7.590   5.324   3.146 -2.0649  0.6014  2.0536
   39MOL   H46021056   7.481   5.189   3.167  0.0809  0.6994  0.0351
   39MOL   C46121057   0.026   5.795   2.464 -0.1369  0.1001 -0.2610
   39MOL   C46221058   7.786   5.667   2.541 -0.1934  0.1315  0.0915
   39MOL   C46321059   7.642   5.632   2.509 -0.4242  0.0666 -0.1853
   39MOL   C46421060   7.579   5.520   2.597  0.1873  0.2025  0.2081
   39MOL   C46521061   7.579   5.555   2.749  0.0908 -0.6617  0.1040
   39MOL   O46621062   7.510   5.457   2.824  0.3168 -0.3466  0.0171
   39MOL   C46721063   7.492   5.474   2.957 -0.2089 -0.2194  0.4581
   39MOL   O46821064   7.524   5.577   3.017 -0.1649  0.3702 -0.1952
   39MOL   C46921065   7.420   5.356   3.030  0.3934 -0.0759 -0.4203
   39MOL   C47021066   7.347   5.414   3.151 -0.6207  0.1157  0.2449
   39MOL   C47121067   7.308   5.266   2.949  0.0124 -0.0778 -0.2011
   39MOL   H47221068   0.134   5.784   2.458 -0.1289  0.3385 -0.5692
   39MOL   H47321069   7.812   5.889   2.512  1.7305  0.7121 -0.3321
   39MOL   H47421070   7.806   5.792   2.361  2.6717 -2.6114 -1.1644
   39MOL   H47521071   7.795   5.687   2.647 -1.4082  0.7332  0.0905
   39MOL   H47621072   0.036   5.580   2.524 -1.7476 -0.4994 -2.9625
   39MOL   H47721073   7.646   5.593   2.407  0.2855 -1.9960  0.5977
   39MOL   H47821074   7.582   5.723   2.511 -1.5580 -0.5690 -2.8291
   39MOL   H47921075   7.623   5.422   2.579 -0.1403 -0.2417  1.7389
   39MOL   H48021076   7.477   5.508   2.562  0.6785  0.0886 -1.2134
   39MOL   H48121077   7.680   5.564   2.788 -0.1136 -0.0866  0.4983
   39MOL   H48221078   7.539   5.654   2.770 -2.4426 -2.0979  2.3020
   39MOL   H48321079   7.276   5.493   3.128 -0.5253  0.9100  2.5197
   39MOL   H48421080   7.417   5.461   3.220 -1.3411  1.5323  0.0306
   39MOL   H48521081   7.286   5.340   3.202 -1.3545 -1.1355 -2.3571
   39MOL   H48621082   7.272   5.196   3.025  1.4115 -0.4677  0.1188
   39MOL   H48721083   7.368   5.221   2.869 -0.7966 -0.8933 -0.3630
   39MOL   C48821084   6.974   5.890   2.508  0.5771  0.1727 -0.2896
   39MOL   C48921085   6.915   5.794   2.618  0.5153  0.1059  0.0277
   39MOL   C49021086   7.024   5.701   2.670  0.5498 -0.6010  0.2629
   39MOL   C49121087   7.096   5.768   2.783  0.4461  0.3885 -0.2929
   39MOL   C49221088   7.221   5.684   2.826  0.0152  0.2794  0.0073
   39MOL   O49321089   7.183   5.562   2.881 -0.4876 -0.2603  0.1562
   39MOL   C49421090   7.202   5.450   2.810 -0.0003  0.1905 -0.1900
   39MOL   O49521091   7.219   5.450   2.688  0.0861 -0.5681 -0.1197
   39MOL   C49621092   7.176   5.318   2.886  0.1628 -0.0642 -0.6773
   39MOL   C49721093   7.068   5.342   2.999 -0.0685  0.3200  0.1096
   39MOL   C49821094   7.129   5.202   2.793 -0.0595  0.3095  0.3593
   39MOL   H49921095   7.015   5.831   2.426  1.8926  0.0822  0.4182
   39MOL   H50021096   6.895   5.949   2.462  1.4133  3.0062  1.7618
   39MOL   H50121097   7.049   5.963   2.540  0.3350  0.5624 -0.6072
   39MOL   H50221098   6.841   5.736   2.562  0.7757  0.2615 -0.4821
   39MOL   H50321099   6.855   5.839   2.697 -0.2499  0.8722 -0.9763
   39MOL   H50421100   6.974   5.617   2.718  0.8267 -0.6530  0.4583
   39MOL   H50521101   7.097   5.667   2.597  1.0781  0.2883  0.3727
   39MOL   H50621102   7.033   5.763   2.872  1.4681  0.2932  0.4321
   39MOL   H50721103   7.136   5.868   2.765  2.9096 -0.5079 -0.0544
   39MOL   H50821104   7.276   5.677   2.732  1.3542  0.7986  0.7471
   39MOL   H50921105   7.280   5.730   2.905 -0.2870  0.9708 -0.1643
   39MOL   H51021106   7.051   5.253   3.059 -1.2880  1.4662  1.5130
   39MOL   H51121107   6.970   5.363   2.955  0.4557 -0.5743 -1.5243
   39MOL   H51221108   7.073   5.416   3.079  1.7226  0.0910  0.2296
   39MOL   H51321109   7.157   5.107   2.839 -2.2070  0.3609  1.8244
   39MOL   H51421110   7.182   5.210   2.699 -0.9169  1.3442 -0.0458
   39MOL   C51521111   6.468   4.625   3.095 -0.0847 -0.7328  0.5021
   39MOL   C51621112   6.508   4.738   3.000  0.5418 -0.5058  0.7561
   39MOL   C51721113   6.645   4.796   3.048 -0.0506 -0.2700 -0.4180
   39MOL   C51821114   6.706   4.890   2.949 -0.0150  0.4664  0.5230
   39MOL   C51921115   6.844   4.953   2.989  0.8482  0.5021 -1.1390
   39MOL   O52021116   6.915   5.006   2.883  0.7169 -0.0657 -0.3106
   39MOL   C52121117   6.885   5.135   2.847  0.4025 -0.2307  0.4441
   39MOL   O52221118   6.791   5.200   2.898 -0.0418 -0.0376  0.3467
   39MOL   C52321119   6.978   5.189   2.738 -0.3429  0.1215  0.2969
   39MOL   C52421120   6.987   5.087   2.616 -0.5325  0.3195  0.1969
   39MOL   C52521121   6.925   5.319   2.680 -0.3683  0.4595 -0.4991
   39MOL   H52621122   6.372   4.575   3.084 -1.1947  1.0958  1.5460
   39MOL   H52721123   6.552   4.556   3.088 -0.3234 -0.8577 -1.2462
   39MOL   H52821124   6.474   4.674   3.193  0.9972 -0.7773  0.4689
   39MOL   H52921125   6.514   4.684   2.905 -3.1363  0.9958 -0.4162
   39MOL   H53021126   6.433   4.816   2.991  1.9761  0.6279 -1.9477
   39MOL   H53121127   6.640   4.831   3.152 -3.6123 -0.8357 -0.3192
   39MOL   H53221128   6.713   4.711   3.055 -1.4502 -1.3205  0.8599
   39MOL   H53321129   6.636   4.973   2.939 -0.4646  0.2170  1.5150
   39MOL   H53421130   6.709   4.838   2.854  2.0635  0.3402  0.6365
   39MOL   H53521131   6.838   5.029   3.067  0.2495 -2.5859  1.9271
   39MOL   H53621132   6.914   4.883   3.033  3.0687  3.0835 -0.4110
   39MOL   H53721133   7.049   5.000   2.639 -0.2268  0.2835 -0.7211
   39MOL   H53821134   7.028   5.146   2.534  0.3003 -0.2329  0.2145
   39MOL   H53921135   6.889   5.061   2.577 -1.8511  3.0469  1.6151
   39MOL   H54021136   6.819   5.310   2.655 -0.3415 -0.9877 -0.1617
   39MOL   H54121137   6.976   5.349   2.588 -1.7344  0.1405 -1.3843
   39MOL   H54221138   6.921   5.403   2.748  0.3661  1.4744 -1.6852
   40MOL     C121139   7.323   3.143   7.202 -0.3240 -0.0501  0.4889
   40MOL     C221140   7.377   3.247   7.291  0.1433 -0.1550 -0.0492
   40MOL     C321141   7.493   3.207   7.384  0.5665 -0.1037 -0.2228
   40MOL     C421142   7.509   3.316   7.497 -0.6206  0.5312  0.2799
   40MOL     C521143   7.631   3.274   7.586 -0.5268  0.1157  0.3287
   40MOL     O621144   7.613   3.151   7.651 -0.4266 -0.3208 -0.2926
   40MOL     C721145   7.572   3.144   7.783  0.5081  0.0307  0.2942
   40MOL     O821146   7.564   3.240   0.042  0.3019 -0.4896 -0.1027
   40MOL     C921147   7.542   3.007   0.021  0.4390  0.1615  1.0775
   40MOL    C1021148   7.681   2.932   0.025  0.1504 -0.2756 -0.2533
   40MOL    C1121149   7.457   2.932   7.733 -0.4867  0.6914  0.1007
   40MOL    H1221150   7.402   3.088   7.151 -0.7909  0.9068 -1.3059
   40MOL    H1321151   7.262   3.180   7.120  0.8847 -0.1628 -0.4743
   40MOL    H1421152   7.284   3.060   7.261  1.4343  1.1016  3.3428
   40MOL    H1521153   7.393   3.345   7.246  2.3908  0.6677  2.4362
   40MOL    H1621154   7.295   3.276   7.358  0.9264 -2.8461  2.1590
   40MOL    H1721155   7.477   3.108   7.428  2.2447 -0.5871 -0.6815
   40MOL    H1821156   7.576   3.208   7.314  0.0157 -2.2135 -0.9503
   40MOL    H1921157   7.421   3.323   7.561 -1.6300 -1.1004 -0.8667
   40MOL    H2021158   7.528   3.416   7.458 -1.9139  0.3171 -0.9733
   40MOL    H2121159   7.723   3.252   7.531 -0.0628 -0.7726  1.4169
   40MOL    H2221160   7.659   3.348   7.661 -0.3123 -0.2605  0.6270
   40MOL    H2321161   7.689   2.840   7.782 -0.4303 -1.8691  2.1362
   40MOL    H2421162   7.703   2.911   0.130 -0.9012 -2.3416 -0.4257
   40MOL    H2521163   7.759   3.006   0.009  1.3426 -1.5628 -0.4120
   40MOL    H2621164   7.466   2.830   7.770  0.1995  0.9122  0.5500
   40MOL    H2721165   7.496   2.932   7.631 -1.0794  1.4924 -0.1313
   40MOL    H2821166   7.479   3.017   0.110 -1.0109  1.2057 -0.0370
   40MOL    C2921167   6.878   2.457   7.434 -0.1603  0.4168 -0.4830
   40MOL    C3021168   6.927   2.542   7.554  0.0559 -0.5465  0.4688
   40MOL    C3121169   7.066   2.486   7.612  0.0550  0.0851  0.3177
   40MOL    C3221170   7.197   2.517   7.542 -0.6957 -0.3134 -0.1343
   40MOL    C3321171   7.214   2.662   7.515  0.4873 -0.0837  0.0770
   40MOL    O3421172   7.259   2.740   7.623  0.1997  0.2740  0.1339
   40MOL    C3521173   7.259   2.874   7.602  0.1084  0.0498  0.3265
   40MOL    O3621174   7.220   2.933   7.496 -0.4830  0.4322  0.1516
   40MOL    C3721175   7.300   2.954   7.733 -0.2582 -0.4386  0.4680
   40MOL    C3821176   7.268   3.103   7.705  0.1082  0.4046  0.8265
   40MOL    C3921177   7.233   2.896   0.056 -1.3898  0.0314 -0.7642
   40MOL    H4021178   6.868   2.351   7.458  0.1227  0.2038 -1.2935
   40MOL    H4121179   6.784   2.497   7.398 -0.9946 -0.4205  0.7205
   40MOL    H4221180   6.949   2.469   7.352 -0.4444  1.6173 -0.5589
   40MOL    H4321181   6.864   2.529   7.642  0.5488 -1.4281  0.6969
   40MOL    H4421182   6.936   2.647   7.528  1.1136 -0.7425  0.0247
   40MOL    H4521183   7.043   2.380   7.619  0.6637  0.0066  1.3038
   40MOL    H4621184   7.071   2.530   7.712 -0.7296 -1.6620  1.1554
   40MOL    H4721185   7.283   2.492   7.604 -1.0457  0.4243  0.6601
   40MOL    H4821186   7.208   2.469   7.445  2.5562 -0.4877  0.2676
   40MOL    H4921187   7.121   2.702   7.473  0.1916 -0.3436  0.4822
   40MOL    H5021188   7.290   2.674   7.437  1.8326  0.0883  1.4089
   40MOL    H5121189   7.327   3.136   7.619 -0.1627  0.3997  0.6422
   40MOL    H5221190   7.291   3.156   7.798  1.0147  1.2465  0.1348
   40MOL    H5321191   7.162   3.113   7.686  0.4980  0.0972 -1.6126
   40MOL    H5421192   7.296   2.940   0.134  0.4198  0.2408 -2.3049
   40MOL    H5521193   7.240   2.787   0.055  2.3997  0.2101 -2.2012
   40MOL    C5621194   7.470   3.057   0.701  0.1917 -0.2380  0.3760
   40MOL    C5721195   7.434   3.167   0.592  0.0403  0.9095  0.3140
   40MOL    C5821196   7.308   3.145   0.518  0.2912  0.0006 -0.2395
   40MOL    C5921197   7.276   3.247   0.409  0.1871 -0.0723 -0.1926
   40MOL    C6021198   7.149   3.225   0.336 -0.0559  0.1836 -0.4848
   40MOL    O6121199   7.158   3.101   0.268  0.4355  1.1202  0.5188
   40MOL    C6221200   7.084   3.072   0.163 -0.6245 -0.2382  0.1756
   40MOL    O6321201   7.034   3.159   0.091  0.0857  0.1209 -0.0997
   40MOL    C6421202   7.098   2.930   0.117 -0.5279  0.5162 -0.3908
   40MOL    C6521203   7.088   2.832   0.237  0.2899 -0.9091 -0.1851
   40MOL    C6621204   6.985   2.892   0.011 -0.4080 -0.6364  0.9551
   40MOL    H6721205   7.559   3.069   0.762  0.8563 -0.4747 -0.5516
   40MOL    H6821206   7.495   2.977   0.632  2.1707  1.3954 -0.8577
   40MOL    H6921207   7.395   3.013   0.767 -0.8569 -1.2072 -1.4313
   40MOL    H7021208   7.437   3.269   0.633 -0.3085  0.3924  1.6589
   40MOL    H7121209   7.520   3.165   0.525  1.3620 -1.0759  1.9996
   40MOL    H7221210   7.331   3.055   0.460  2.6189  0.2342  0.2873
   40MOL    H7321211   7.220   3.111   0.573 -0.3925 -0.0671 -1.3551
   40MOL    H7421212   7.352   3.253   0.331 -0.5104 -0.0391 -0.8864
   40MOL    H7521213   7.273   3.349   0.445 -1.9482 -0.0136 -0.4779
   40MOL    H7621214   7.069   3.231   0.409 -0.9125  1.8721 -1.5453
   40MOL    H7721215   7.125   3.303   0.264  2.4941  1.7966  0.3340
   40MOL    H7821216   6.995   2.853   0.289 -0.0421  0.2276 -1.2017
   40MOL    H7921217   7.174   2.842   0.303  0.1695 -0.5771 -0.0763
   40MOL    H8021218   7.087   2.728   0.203  1.9149 -0.7577 -0.7471
   40MOL    H8121219   7.023   2.801   7.778 -0.1167  0.0375 -0.1283
   40MOL    H8221220   6.985   2.970   7.749 -1.7534 -1.5911 -0.0387
   40MOL    C8321221   6.595   2.129   0.346 -1.1153 -0.1058  1.0863
   40MOL    C8421222   6.636   2.213   0.221 -0.2751 -0.7766 -0.0480
   40MOL    C8521223   6.745   2.317   0.255 -0.3148 -0.4900  0.2370
   40MOL    C8621224   6.768   2.419   0.137  0.6312 -0.2920 -0.0761
   40MOL    C8721225   6.880   2.521   0.179  0.1426 -0.3394  0.3968
   40MOL    O8821226   6.887   2.636   0.095 -0.1811 -0.0369 -0.1301
   40MOL    C8921227   6.812   2.749   0.132  0.0277  0.2448  0.2933
   40MOL    O9021228   6.753   2.760   0.239  0.0611  0.3436  0.4781
   40MOL    C9121229   6.828   2.870   0.043 -0.8692 -0.2710 -0.9336
   40MOL    C9221230   6.777   2.998   0.114 -0.2013  0.1607  0.0615
   40MOL    C9321231   6.760   2.846   7.719  0.5359 -0.2978  0.3545
   40MOL    H9421232   6.573   2.196   0.429  0.4486  1.0915  0.5646
   40MOL    H9521233   6.502   2.078   0.321  0.4217 -2.0480 -0.8978
   40MOL    H9621234   6.671   2.061   0.384 -1.2557 -0.9946 -0.1763
   40MOL    H9721235   6.546   2.260   0.181 -1.4798 -0.2680  3.1571
   40MOL    H9821236   6.668   2.141   0.146  2.2368  0.3173 -0.0890
   40MOL    H9921237   6.835   2.257   0.275  1.3303  1.5205 -0.9095
   40MOL   H10021238   6.732   2.375   0.346  0.7748 -0.5396  0.4415
   40MOL   H10121239   6.672   2.467   0.118  1.2222  0.5566 -0.9725
   40MOL   H10221240   6.793   2.374   0.041 -2.4433  0.8276 -1.4860
   40MOL   H10321241   6.964   2.452   0.170 -0.7841 -1.1982 -2.1283
   40MOL   H10421242   6.865   2.532   0.286  1.5415 -0.9188  0.6687
   40MOL   H10521243   6.673   2.993   0.143 -0.1108 -0.6075  0.2635
   40MOL   H10621244   6.788   3.087   0.052  0.6139 -0.6823 -1.0491
   40MOL   H10721245   6.833   3.022   0.205 -0.6325 -0.0603  0.3857
   40MOL   H10821246   6.793   2.921   7.648 -0.6416  1.2377  1.3785
   40MOL   H10921247   6.793   2.747   7.686 -1.7054 -0.7544 -0.6639
   40MOL   C11021248   6.899   3.541   7.484 -0.9088 -0.6762 -0.0858
   40MOL   C11121249   6.747   3.506   7.485  0.6252  0.4435  0.3733
   40MOL   C11221250   6.727   3.371   7.563  0.5165 -0.1307 -0.1739
   40MOL   C11321251   6.579   3.327   7.566 -0.2927  0.4972  0.1344
   40MOL   C11421252   6.554   3.219   7.677  0.4416 -0.0054 -0.1011
   40MOL   O11521253   6.599   3.081   7.643  0.4505 -0.0676  0.2801
   40MOL   C11621254   6.534   2.984   7.703  0.2797  0.1784  0.0678
   40MOL   O11721255   6.432   3.012   7.771 -0.0505  0.6326  0.3690
   40MOL   C11821256   6.600   2.837   7.699  0.0995  0.2205 -0.6035
   40MOL   C11921257   6.541   2.755   0.000  0.7607 -0.0051  0.2449
   40MOL   C12021258   6.572   2.776   7.554 -0.3504 -0.9554 -0.1449
   40MOL   H12121259   6.937   3.556   7.586 -1.9130  0.2561  0.1531
   40MOL   H12221260   6.968   3.473   7.435 -0.0427  0.3496 -0.3112
   40MOL   H12321261   6.925   3.639   7.444  0.5981 -0.5155  1.2200
   40MOL   H12421262   6.687   3.584   7.532 -0.2116 -0.9838  1.7299
   40MOL   H12521263   6.724   3.495   7.379 -1.4614  2.7092  0.5477
   40MOL   H12621264   6.790   3.294   7.520 -2.6327 -0.9218 -3.6412
   40MOL   H12721265   6.763   3.394   7.663 -0.5881  1.4006 -0.1049
   40MOL   H12821266   6.546   3.283   7.472  0.1425  0.9027 -0.2119
   40MOL   H12921267   6.523   3.415   7.596  0.2364  0.8966 -0.0376
   40MOL   H13021268   6.592   3.255   7.772  0.8524 -0.8129  0.0484
   40MOL   H13121269   6.447   3.220   7.696  0.5026  0.0787  0.2401
   40MOL   H13221270   6.585   2.656   0.012  1.4323  0.1509 -0.8839
   40MOL   H13321271   6.533   2.810   0.094  1.0886  1.1782 -0.4153
   40MOL   H13421272   6.439   2.727   7.788  0.8128 -2.7528  2.7941
   40MOL   H13521273   6.585   2.852   7.477  0.2114 -0.7501  0.1530
   40MOL   H13621274   6.655   2.708   7.536 -0.2545 -0.8326 -0.1644
   40MOL   C13721275   6.296   2.127   7.371 -0.6317 -0.0985  0.1540
   40MOL   C13821276   6.433   2.087   7.429  0.0975 -0.6099  0.1658
   40MOL   C13921277   6.514   2.207   7.484  0.1878  0.1921  0.3535
   40MOL   C14021278   6.462   2.263   7.615  0.1103 -0.1132  0.6452
   40MOL   C14121279   6.537   2.388   7.670 -0.2010  0.4555 -0.7179
   40MOL   O14221280   6.529   2.501   7.578 -0.5288 -0.8057 -0.1185
   40MOL   C14321281   6.421   2.577   7.592  0.5460  0.1299 -0.4879
   40MOL   O14421282   6.319   2.544   7.650  0.0647 -0.5276  0.1306
   40MOL   C14521283   6.440   2.712   7.513 -0.3600  0.1611  0.2286
   40MOL   C14621284   6.318   2.808   7.550 -0.2441  0.1776  0.2090
   40MOL   C14721285   6.446   2.674   7.357  0.6346  0.0081  0.4725
   40MOL   H14821286   6.245   2.204   7.430  1.5732 -0.0296  2.0345
   40MOL   H14921287   6.248   2.033   7.344  1.0596 -0.3583 -2.0518
   40MOL   H15021288   6.310   2.188   7.282 -0.5052 -0.6855 -0.2305
   40MOL   H15121289   6.493   2.038   7.352  0.0761  1.5646 -1.2849
   40MOL   H15221290   6.423   2.014   7.509 -2.1887 -0.7199 -0.1959
   40MOL   H15321291   6.620   2.183   7.490  0.1049 -0.4233 -0.5456
   40MOL   H15421292   6.522   2.283   7.406  1.4588  0.5014  0.7665
   40MOL   H15521293   6.361   2.303   7.608 -0.0657 -0.5001  0.9423
   40MOL   H15621294   6.458   2.179   7.684 -1.2180  0.3775  1.1860
   40MOL   H15721295   6.640   2.355   7.684 -0.6953 -0.7163  0.1721
   40MOL   H15821296   6.503   2.412   7.770 -1.3722 -1.4168 -0.6470
   40MOL   H15921297   6.220   2.778   7.512  1.1803 -5.1585  0.2766
   40MOL   H16021298   6.340   2.908   7.512  0.8304 -0.3474 -0.6243
   40MOL   H16121299   6.300   2.828   7.655 -1.0724 -0.9437  0.2887
   40MOL   H16221300   6.489   2.763   7.311  1.1947  0.5684  2.0737
   40MOL   H16321301   6.519   2.597   7.331  0.1349 -0.2759 -0.1176
   40MOL   C16421302   5.896   2.802   6.699 -0.4269 -0.3763 -0.2964
   40MOL   C16521303   6.020   2.743   6.763 -0.2088 -0.6427  0.5525
   40MOL   C16621304   6.016   2.719   6.918  0.6946  0.1946 -0.3566
   40MOL   C16721305   5.997   2.835   7.015 -0.0640  0.0304  0.1271
   40MOL   C16821306   5.981   2.805   7.164 -0.2543 -0.0306 -0.2084
   40MOL   O16921307   6.088   2.714   7.211  1.2213  0.2799 -0.1969
   40MOL   C17021308   6.214   2.751   7.256 -0.3393 -0.9832  0.3130
   40MOL   O17121309   6.255   2.870   7.262 -0.6744 -0.1267 -0.0090
   40MOL   C17221310   6.309   2.635   7.285  0.3205 -0.0181  0.2276
   40MOL   C17321311   6.225   2.538   7.370 -1.3778 -0.1971  0.2885
   40MOL   C17421312   6.342   2.550   7.146  0.4815  0.0739 -0.3405
   40MOL   H17521313   5.891   2.901   6.742  1.9340 -0.1734 -0.4286
   40MOL   H17621314   5.805   2.748   6.729 -0.6748  0.6331  0.7873
   40MOL   H17721315   5.890   2.787   6.591 -1.7613 -2.7594  0.0632
   40MOL   H17821316   6.106   2.807   6.744 -1.7543  1.6987  1.2632
   40MOL   H17921317   6.029   2.645   6.715 -1.3963 -0.5219  0.0598
   40MOL   H18021318   5.931   2.653   6.933  0.8814  0.7109  3.6118
   40MOL   H18121319   6.105   2.663   6.948 -0.0957 -1.4318 -0.9961
   40MOL   H18221320   5.916   2.897   6.977 -1.0665 -0.9370  0.6485
   40MOL   H18321321   6.088   2.895   7.021  0.2036 -0.4279  0.7070
   40MOL   H18421322   5.891   2.744   7.169 -1.4001  1.6095 -0.1326
   40MOL   H18521323   5.961   2.895   7.223 -1.7263 -1.6498  1.8759
   40MOL   H18621324   6.296   2.465   7.409 -0.7046  0.3110  0.0062
   40MOL   H18721325   6.160   2.469   7.315 -0.0829 -1.3537  0.1847
   40MOL   H18821326   6.170   2.585   7.452  1.0845  1.3384  1.0984
   40MOL   H18921327   6.392   2.459   7.179  0.2649  0.5051  1.2306
   40MOL   H19021328   6.248   2.522   7.097 -0.1435  0.2338  0.7335
   40MOL   C19121329   6.865   3.043   7.397  0.3460  0.0396  0.0872
   40MOL   C19221330   6.887   2.895   7.356  0.4003 -1.1931  0.1192
   40MOL   C19321331   6.842   2.859   7.214  0.1630  0.1515 -0.3308
   40MOL   C19421332   6.864   2.707   7.188 -0.3887  0.4073 -0.2200
   40MOL   C19521333   6.812   2.678   7.045 -0.4463 -0.8557 -0.4515
   40MOL   O19621334   6.676   2.681   7.033 -0.0453  0.1931  0.4449
   40MOL   C19721335   6.598   2.578   7.077 -0.0948  0.6481 -0.6664
   40MOL   O19821336   6.633   2.481   7.149 -1.6921 -0.1990  0.4764
   40MOL   C19921337   6.447   2.601   7.039 -0.7701  0.0772 -0.3673
   40MOL   C20021338   6.425   2.753   7.013  0.2346 -0.3287 -0.6914
   40MOL   C20121339   6.420   2.541   6.903 -0.6186  0.3414  0.5418
   40MOL   H20221340   6.906   3.120   7.332  0.2371 -0.3219 -0.4187
   40MOL   H20321341   6.757   3.055   7.395  0.4238  0.6863 -0.3026
   40MOL   H20421342   6.893   3.064   7.500  1.6502  0.5591 -0.3630
   40MOL   H20521343   6.851   2.828   7.434 -1.1814 -0.5995 -0.0964
   40MOL   H20621344   6.996   2.902   7.356  0.2759  1.1997  1.5796
   40MOL   H20721345   6.901   2.911   7.139  1.9988 -3.0299 -1.1917
   40MOL   H20821346   6.738   2.883   7.195  0.6960  1.3694 -1.7111
   40MOL   H20921347   6.964   2.665   7.194 -0.3089  0.4044 -1.5454
   40MOL   H21021348   6.808   2.643   7.257  0.4171  1.0414  1.0547
   40MOL   H21121349   6.846   2.756   6.977 -0.8208 -0.4276 -0.1451
   40MOL   H21221350   6.856   2.586   7.005  0.2998 -1.9743  2.7747
   40MOL   H21321351   6.320   2.768   6.987 -0.4019 -2.0814  0.8093
   40MOL   H21421352   6.488   2.796   6.935  1.0325 -1.0022 -0.4156
   40MOL   H21521353   6.448   2.805   7.107 -1.7360 -2.8720  1.2836
   40MOL   H21621354   6.471   2.613   6.839 -1.1739  0.8058  0.6243
   40MOL   H21721355   6.313   2.551   6.888 -0.8262 -1.6841  0.5269
   40MOL   C21821356   5.808   2.410   6.641 -0.1425  0.1116 -0.2048
   40MOL   C21921357   5.891   2.304   6.693  0.0379  0.6311 -0.3784
   40MOL   C22021358   6.025   2.276   6.612  0.1512 -0.0066 -0.0640
   40MOL   C22121359   6.116   2.168   6.672  0.1492  0.5876  0.0902
   40MOL   C22221360   6.262   2.174   6.624 -0.1877 -0.7765 -0.5415
   40MOL   O22321361   6.352   2.227   6.721 -0.5387 -0.4090  0.0560
   40MOL   C22421362   6.376   2.353   6.738  0.0549  0.3519  0.3550
   40MOL   O22521363   6.351   2.439   6.654 -0.1856 -0.0425  0.0341
   40MOL   C22621364   6.461   2.395   6.865  0.3424 -0.2992  0.2810
   40MOL   C22721365   6.420   2.292   6.975  0.5699  0.0310 -0.1634
   40MOL   C22821366   6.614   2.383   6.832  0.2245  0.1937 -0.3269
   40MOL   H22921367   5.743   2.375   6.560  0.2200  2.9476 -1.7886
   40MOL   H23021368   5.755   2.459   6.723  2.5804  1.7533  0.6146
   40MOL   H23121369   5.870   2.490   6.602  2.0739 -2.9278 -3.2748
   40MOL   H23221370   5.832   2.212   6.700  2.2775 -0.7654  0.7247
   40MOL   H23321371   5.921   2.341   6.791 -0.9103  1.0793 -0.2519
   40MOL   H23421372   6.084   2.367   6.605 -1.2188  0.8341 -0.9986
   40MOL   H23521373   5.999   2.255   6.508  0.5039  1.2361 -0.4107
   40MOL   H23621374   6.107   2.176   6.780  1.1552  0.0134  0.2204
   40MOL   H23721375   6.081   2.068   6.644 -0.6686  1.2813 -1.4330
   40MOL   H23821376   6.247   2.247   6.544 -2.4889 -0.5284  0.0671
   40MOL   H23921377   6.294   2.076   6.587 -1.2817 -1.6995  0.9105
   40MOL   H24021378   6.466   2.307   7.073  1.3734 -0.4293 -0.4621
   40MOL   H24121379   6.439   2.189   6.943  1.4244 -0.6810  2.4849
   40MOL   H24221380   6.315   2.301   7.003  0.2160  1.8549 -2.0167
   40MOL   H24321381   6.667   2.377   6.928 -0.2212  2.8669  0.1230
   40MOL   H24421382   6.650   2.476   6.788  1.5553 -0.0868  0.1502
   40MOL   C24521383   6.818   1.780   7.464  0.1362 -0.1204 -0.3641
   40MOL   C24621384   6.807   1.909   7.382 -0.4244 -0.1069 -0.1080
   40MOL   C24721385   6.759   1.877   7.242 -0.2983 -0.0155  0.0469
   40MOL   C24821386   6.758   2.000   7.150 -0.0337  0.4413  0.2835
   40MOL   C24921387   6.695   1.991   7.006  0.0563 -0.3734 -0.4487
   40MOL   O25021388   6.703   2.112   6.927 -0.3084  0.2872 -0.4311
   40MOL   C25121389   6.666   2.127   6.804  0.3002 -0.1747 -0.6413
   40MOL   O25221390   6.626   2.036   6.736  0.3148  0.0892  0.8714
   40MOL   C25321391   6.697   2.273   6.754 -0.0949 -0.1968  0.5759
   40MOL   C25421392   6.839   2.314   6.782 -0.6828  0.6919  0.4323
   40MOL   C25521393   6.663   2.289   6.602 -0.2737  0.0147  0.1644
   40MOL   H25621394   6.910   1.723   7.471  0.3816  0.5915  3.3118
   40MOL   H25721395   6.796   1.792   7.570  2.0893  0.5805 -0.0173
   40MOL   H25821396   6.738   1.710   7.438  1.5985 -0.9643 -2.7751
   40MOL   H25921397   6.728   1.971   7.424  1.7798  1.7598  1.4438
   40MOL   H26021398   6.901   1.965   7.381 -0.5609  0.1172 -0.7000
   40MOL   H26121399   6.661   1.830   7.235  0.9494 -2.5383 -1.4400
   40MOL   H26221400   6.821   1.799   7.199  0.1943  0.1976  0.3663
   40MOL   H26321401   6.700   2.081   7.196 -0.4854 -0.8962  2.1440
   40MOL   H26421402   6.859   2.038   7.165  0.4387 -0.5414 -0.3971
   40MOL   H26521403   6.739   1.908   6.951  0.5978  0.7710 -1.7519
   40MOL   H26621404   6.589   1.968   7.022 -0.3761 -0.1223 -2.7695
   40MOL   H26721405   6.872   2.415   6.756 -0.0297  0.4355  0.2584
   40MOL   H26821406   6.867   2.286   6.884 -0.7569 -1.3883 -0.1027
   40MOL   H26921407   6.903   2.253   6.719  0.5208  1.2526  1.0901
   40MOL   H27021408   6.573   2.228   6.598 -0.4578  0.2844  0.1092
   40MOL   H27121409   6.625   2.390   6.589 -2.8758 -0.9023  0.4791
   40MOL   C27221410   7.455   2.326   6.121  0.0920  0.0672 -0.0140
   40MOL   C27321411   7.367   2.214   6.186 -0.4082  0.4208  0.1776
   40MOL   C27421412   7.224   2.269   6.222 -0.0250 -0.5303 -0.0438
   40MOL   C27521413   7.230   2.343   6.351 -0.2577  0.3534 -0.1553
   40MOL   C27621414   7.096   2.408   6.388  0.2226  0.7136 -0.6674
   40MOL   O27721415   6.988   2.312   6.427  0.0114 -0.1647 -0.4418
   40MOL   C27821416   6.869   2.357   6.475 -0.3105  0.0874 -0.6410
   40MOL   O27921417   6.844   2.475   6.510  0.0086  0.5274  0.2246
   40MOL   C28021418   6.762   2.250   6.482 -0.5471  0.5313 -0.7393
   40MOL   C28121419   6.810   2.101   6.489 -0.3618  0.3436 -0.3406
   40MOL   C28221420   6.674   2.270   6.356  0.4711  0.7304 -0.2944
   40MOL   H28321421   7.398   2.398   6.062 -0.9918  0.5806  1.6263
   40MOL   H28421422   7.514   2.382   6.194  0.1629 -0.1036  0.0580
   40MOL   H28521423   7.524   2.282   6.049 -0.9374 -0.6257 -0.5822
   40MOL   H28621424   7.363   2.131   6.115  0.1384  0.4300  0.1358
   40MOL   H28721425   7.424   2.167   6.267  0.0906  0.3181 -0.2323
   40MOL   H28821426   7.192   2.345   6.150  1.6816  0.7450  0.5113
   40MOL   H28921427   7.153   2.186   6.224 -1.3021  0.5166 -0.9438
   40MOL   H29021428   7.254   2.273   6.432  1.5608  1.6912  0.5042
   40MOL   H29121429   7.311   2.416   6.359 -0.6003  0.8543 -1.1446
   40MOL   H29221430   7.053   2.463   6.305  0.0238  1.0911 -0.3180
   40MOL   H29321431   7.108   2.478   6.471 -0.9288 -0.3229  0.3964
   40MOL   H29421432   6.835   2.069   6.591  1.0315  3.0453  0.2014
   40MOL   H29521433   6.734   2.032   6.451 -1.2553 -0.7897  3.2506
   40MOL   H29621434   6.901   2.072   6.437 -0.8597  0.9433 -1.5587
   40MOL   H29721435   6.588   2.204   6.369  1.0780 -0.2800 -1.4075
   40MOL   H29821436   6.615   2.360   6.372  0.2980  0.9091 -1.8946
   40MOL   C29921437   6.538   3.005   6.155 -0.4894  0.2877 -0.5465
   40MOL   C30021438   6.681   3.002   6.226  0.3605  0.1512  0.0311
   40MOL   C30121439   6.761   2.887   6.169 -0.2844  0.9749  0.1033
   40MOL   C30221440   6.728   2.749   6.234  0.3494 -0.1450  0.1045
   40MOL   C30321441   6.798   2.623   6.173 -0.2119  0.3748 -0.3923
   40MOL   O30421442   6.734   2.497   6.199 -0.0878  0.1540  0.8280
   40MOL   C30521443   6.796   2.384   6.157  0.1971  0.2843  0.5182
   40MOL   O30621444   6.902   2.371   6.095  0.5137  0.1216 -0.1830
   40MOL   C30721445   6.721   2.263   6.201 -0.1031 -0.3878  0.0374
   40MOL   C30821446   6.810   2.139   6.183 -0.4864  0.1455 -1.0631
   40MOL   C30921447   6.588   2.234   6.122 -0.0162  0.2995  0.2250
   40MOL   H31021448   6.484   2.911   6.166 -1.5390  1.0778  1.4734
   40MOL   H31121449   6.556   3.022   6.049 -4.3612  1.1676 -1.1397
   40MOL   H31221450   6.469   3.080   6.195 -1.3609 -0.4102 -0.7091
   40MOL   H31321451   6.680   2.996   6.335  2.4473 -1.9486 -0.0294
   40MOL   H31421452   6.742   3.092   6.217  3.1923 -1.5791  1.1119
   40MOL   H31521453   6.865   2.919   6.165  0.2656 -0.3538  2.6953
   40MOL   H31621454   6.721   2.873   6.069 -0.1140 -3.2087  0.5391
   40MOL   H31721455   6.620   2.743   6.243  0.2795 -0.4277 -0.8896
   40MOL   H31821456   6.762   2.754   6.338 -2.3335  2.0795  0.9566
   40MOL   H31921457   6.785   2.629   6.065  0.4029  0.4220 -0.4688
   40MOL   H32021458   6.907   2.611   6.180 -0.1836  0.4886 -0.6468
   40MOL   H32121459   6.822   2.100   6.082  1.3705 -2.4428  0.1054
   40MOL   H32221460   6.912   2.147   6.222  0.0851  0.4221 -2.5501
   40MOL   H32321461   6.773   2.048   6.230  0.4963  0.9855  1.4037
   40MOL   H32421462   6.505   2.270   6.182 -0.3573  1.4892 -0.9281
   40MOL   H32521463   6.569   2.129   6.144  2.4636 -0.0633  0.8434
   40MOL   C32621464   6.037   2.620   6.298  0.1690 -0.0534  0.0878
   40MOL   C32721465   6.179   2.676   6.321 -0.3028  0.6711  0.1193
   40MOL   C32821466   6.277   2.601   6.228  0.4096 -0.2589 -0.6534
   40MOL   C32921467   6.264   2.628   6.071 -0.5315 -0.7641  0.4224
   40MOL   C33021468   6.399   2.596   6.006  0.4511  0.5188 -0.8115
   40MOL   O33121469   6.427   2.459   6.014  0.1647  0.1836  0.0629
   40MOL   C33221470   6.538   2.413   5.958 -0.0742  0.5890  0.0009
   40MOL   O33321471   6.617   2.488   5.900 -0.0132 -0.1453 -0.1847
   40MOL   C33421472   6.559   2.264   5.971  0.8050 -0.1789 -0.4067
   40MOL   C33521473   6.681   2.217   5.886  0.1254 -0.2374  0.3532
   40MOL   C33621474   6.426   2.186   5.934  0.5331 -0.2983  0.5957
   40MOL   H33721475   5.982   2.674   6.221  1.0736 -0.9557 -1.2352
   40MOL   H33821476   5.975   2.645   6.384 -0.1079 -2.0217  0.4928
   40MOL   H33921477   6.039   2.512   6.284  0.3761  0.2645 -2.5940
   40MOL   H34021478   6.194   2.648   6.425 -1.8669 -0.9533 -0.0724
   40MOL   H34121479   6.189   2.784   6.312  2.1767  0.3320 -1.8455
   40MOL   H34221480   6.265   2.495   6.247 -1.4487 -0.7597 -4.2129
   40MOL   H34321481   6.377   2.627   6.263 -0.0304 -0.8335  1.0677
   40MOL   H34421482   6.254   2.733   6.043  1.1545 -0.5224  0.6264
   40MOL   H34521483   6.187   2.566   6.026 -1.4829  0.8074 -0.1534
   40MOL   H34621484   6.483   2.654   6.046 -0.3549  0.7898  0.5345
   40MOL   H34721485   6.397   2.631   5.903  2.4939  0.1212 -1.0030
   40MOL   H34821486   6.781   2.252   5.908  0.8412 -1.6784 -0.5130
   40MOL   H34921487   6.672   2.233   5.779  0.2151 -0.4718  0.3111
   40MOL   H35021488   6.694   2.109   5.888 -1.8018 -0.5063  0.0528
   40MOL   H35121489   6.358   2.215   6.014 -0.0965 -2.8642  1.0174
   40MOL   H35221490   6.441   2.079   5.946  1.9903 -0.2079 -0.3030
   40MOL   C35321491   6.416   1.549   5.390 -0.3078 -0.0558 -0.0504
   40MOL   C35421492   6.484   1.685   5.388  0.4319 -0.3143 -0.1527
   40MOL   C35521493   6.512   1.760   5.519 -0.5227  0.1515  0.0672
   40MOL   C35621494   6.577   1.897   5.501 -1.0848 -0.5306  0.1615
   40MOL   C35721495   6.613   1.971   5.632  0.4544  0.4631  0.0651
   40MOL   O35821496   6.492   2.012   5.699  0.1807 -0.2984  0.5174
   40MOL   C35921497   6.448   2.138   5.683  0.2033  0.1121  0.2021
   40MOL   O36021498   6.477   2.215   5.592 -0.1542 -0.4324  0.2569
   40MOL   C36121499   6.353   2.192   5.796 -0.5581 -0.6032  0.7918
   40MOL   C36221500   6.290   2.327   5.762  0.5343 -0.5388  0.2087
   40MOL   C36321501   6.231   2.093   5.824  0.1065 -0.3128 -1.1369
   40MOL   H36421502   6.472   1.476   5.449 -1.6017 -0.5049  0.6304
   40MOL   H36521503   6.407   1.510   5.288 -3.3960  0.4520 -0.0115
   40MOL   H36621504   6.317   1.549   5.437 -1.5910 -0.2721 -2.6600
   40MOL   H36721505   6.585   1.674   5.349 -1.0088 -1.2875 -3.7915
   40MOL   H36821506   6.429   1.753   5.323  0.3481  0.4808  0.7345
   40MOL   H36921507   6.581   1.706   5.584  1.2033 -0.7108 -2.4022
   40MOL   H37021508   6.420   1.793   5.568 -0.3350  1.7507 -0.6528
   40MOL   H37121509   6.518   1.961   5.436 -0.6440  1.1082  1.3551
   40MOL   H37221510   6.663   1.879   5.437 -0.5202  1.4877  0.3384
   40MOL   H37321511   6.670   1.914   5.706 -2.4482 -2.5491  0.0534
   40MOL   H37421512   6.682   2.054   5.615  1.0482 -0.4058 -1.8246
   40MOL   H37521513   6.207   2.361   5.825 -1.7497 -1.2109 -2.3107
   40MOL   H37621514   6.365   2.404   5.746 -1.4902  1.3677 -0.4701
   40MOL   H37721515   6.262   2.325   5.656  2.7773  1.5058 -0.4625
   40MOL   H37821516   6.277   1.994   5.826  3.5530  1.2098 -0.5509
   40MOL   H37921517   6.191   2.098   5.925 -1.3236 -0.0313 -1.6969
   40MOL   C38021518   5.459   2.239   5.927 -0.5504  0.1441  0.3762
   40MOL   C38121519   5.604   2.193   5.895  0.1024 -0.2988  0.5163
   40MOL   C38221520   5.710   2.211   6.000  0.0148 -0.0672 -0.6496
   40MOL   C38321521   5.801   2.331   5.985  0.3077 -0.4690 -0.4019
   40MOL   C38421522   5.891   2.332   5.862 -0.9902 -0.0463 -0.5260
   40MOL   O38521523   5.964   2.213   5.840 -1.0774  0.2961  0.2154
   40MOL   C38621524   6.022   2.187   5.718 -0.2447  0.6239 -0.2659
   40MOL   O38721525   6.011   2.259   5.613  0.2729 -0.0435 -0.6906
   40MOL   C38821526   6.113   2.061   5.727 -0.4921  0.1594 -0.1353
   40MOL   C38921527   6.172   2.035   5.580  0.1184 -0.0332 -0.5039
   40MOL   C39021528   6.035   1.936   5.790  0.1425  0.0827 -0.4438
   40MOL   H39121529   5.413   2.182   6.007 -1.0112 -1.5626 -1.0617
   40MOL   H39221530   5.446   2.345   5.945  0.6204  0.4206 -0.3222
   40MOL   H39321531   5.395   2.205   5.845 -1.3153 -0.7717  1.3370
   40MOL   H39421532   5.627   2.238   5.798 -1.9290  0.7415  0.4778
   40MOL   H39521533   5.590   2.088   5.870  1.2641 -0.0640 -1.2915
   40MOL   H39621534   5.666   2.227   6.099  1.4882  1.5514 -0.2342
   40MOL   H39721535   5.772   2.122   5.996  1.7489  1.1711 -1.4470
   40MOL   H39821536   5.753   2.427   5.998  1.4168  0.0232  0.1785
   40MOL   H39921537   5.867   2.328   6.072  0.0245 -1.3813 -0.2149
   40MOL   H40021538   5.972   2.404   5.874 -0.6892 -0.5653  0.7123
   40MOL   H40121539   5.832   2.351   5.772 -1.9167 -4.3217 -0.9128
   40MOL   H40221540   6.094   2.021   5.505 -0.8408 -2.7848  0.9423
   40MOL   H40321541   6.241   1.951   5.573  0.8789  0.1707  3.3149
   40MOL   H40421542   6.230   2.115   5.534 -0.3521  0.6126  0.0173
   40MOL   H40521543   5.978   1.974   5.874 -1.4121 -0.4107 -1.2521
   40MOL   H40621544   6.101   1.872   5.849 -1.6266 -0.7496  0.6821
   40MOL   C40721545   5.225   1.998   5.474 -1.1749  0.2261 -0.1059
   40MOL   C40821546   5.340   1.994   5.374  0.0882  0.2791 -0.4420
   40MOL   C40921547   5.471   2.075   5.405  0.3097  0.2088  0.5184
   40MOL   C41021548   5.545   2.004   5.524  0.1447 -0.1705 -0.0869
   40MOL   C41121549   5.677   2.072   5.555 -0.6616 -0.5072 -0.0351
   40MOL   O41221550   5.754   2.005   5.653 -0.3085 -0.1766 -0.0387
   40MOL   C41321551   5.841   1.897   5.614 -0.2506 -0.0854  0.2816
   40MOL   O41421552   5.836   1.854   5.496  0.2816  0.3106  0.1944
   40MOL   C41521553   5.929   1.837   5.726  0.0974 -0.3740 -0.0560
   40MOL   C41621554   6.021   1.730   5.662 -0.5687  0.3545  0.5075
   40MOL   C41721555   5.840   1.784   5.846  0.2503  0.4840  0.4700
   40MOL   H41821556   5.216   2.096   5.521  0.3310 -0.6817  2.1585
   40MOL   H41921557   5.128   1.961   5.440 -1.0497 -2.1117  1.9347
   40MOL   H42021558   5.244   1.924   5.552 -1.1474 -0.3453 -0.6462
   40MOL   H42121559   5.303   2.038   5.282 -0.2696  0.6050 -0.1443
   40MOL   H42221560   5.364   1.892   5.341  0.7012  0.9738 -2.2110
   40MOL   H42321561   5.528   2.072   5.312  1.1395 -1.3528  1.0582
   40MOL   H42421562   5.449   2.178   5.434  3.1306  0.3348  2.4585
   40MOL   H42521563   5.559   1.902   5.490  0.8342 -0.0797 -0.0816
   40MOL   H42621564   5.478   1.990   5.608  2.6178 -2.9480  1.4625
   40MOL   H42721565   5.735   2.092   5.465 -2.4241  0.5640 -0.9672
   40MOL   H42821566   5.651   2.172   5.590  1.3972  0.6052 -1.5743
   40MOL   H42921567   5.982   1.643   5.610  1.2115 -0.3673  0.3309
   40MOL   H43021568   6.084   1.688   5.742 -1.5412 -0.0528  1.0677
   40MOL   H43121569   6.080   1.768   5.579 -0.0598 -0.1717  0.6255
   40MOL   H43221570   5.780   1.866   5.884  0.9332  0.0767  2.5094
   40MOL   H43321571   5.910   1.774   5.930 -0.0933 -0.6298  0.6384
   40MOL   C43421572   6.431   1.632   5.825 -0.1740 -0.2677  0.0739
   40MOL   C43521573   6.400   1.581   5.961 -0.4798  0.2807 -0.6632
   40MOL   C43621574   6.250   1.575   6.002 -0.2742  0.6211  0.4104
   40MOL   C43721575   6.185   1.468   5.921 -0.2485 -0.3617 -0.4989
   40MOL   C43821576   6.044   1.437   5.965  0.4425 -0.0791  0.1973
   40MOL   O43921577   5.947   1.539   5.946  0.6567  0.2784 -0.0272
   40MOL   C44021578   5.856   1.523   5.849  0.3883  0.4099 -1.0489
   40MOL   O44121579   5.855   1.427   5.776  0.0790  0.2761  0.6737
   40MOL   C44221580   5.758   1.645   5.839  0.0430  0.6054 -0.3071
   40MOL   C44321581   5.685   1.630   5.703 -0.2221  0.3828 -0.6723
   40MOL   C44421582   5.643   1.642   5.953 -0.9578 -0.6610  0.7910
   40MOL   H44521583   6.396   1.734   5.816  0.6374 -0.0694 -0.8738
   40MOL   H44621584   6.539   1.619   5.812 -0.2346  1.2946 -2.2503
   40MOL   H44721585   6.381   1.576   5.746 -0.7374 -0.8559  0.8397
   40MOL   H44821586   6.445   1.482   5.964 -1.1770 -0.0436 -0.7266
   40MOL   H44921587   6.449   1.649   6.031 -0.9686 -2.3579  2.3835
   40MOL   H45021588   6.234   1.557   6.109 -1.9612  1.1390  0.2549
   40MOL   H45121589   6.206   1.673   5.986 -0.8996  0.6372  2.0954
   40MOL   H45221590   6.251   1.381   5.931  2.3974  1.3277 -2.3660
   40MOL   H45321591   6.177   1.477   5.812  0.6305 -3.7957 -0.8889
   40MOL   H45421592   6.048   1.422   6.072 -0.5419  0.1446  0.2657
   40MOL   H45521593   6.011   1.349   5.910 -1.3402  1.5573 -1.4329
   40MOL   H45621594   5.617   1.711   5.674 -0.2769  0.8331  0.6700
   40MOL   H45721595   5.761   1.630   5.625 -0.3841 -2.0431 -0.8769
   40MOL   H45821596   5.624   1.542   5.684 -0.7045  0.4925  0.3141
   40MOL   H45921597   5.556   1.692   5.910  1.4177  2.5821 -0.5303
   40MOL   H46021598   5.684   1.703   6.034  0.2311 -0.3104 -0.0457
   40MOL   C46121599   6.015   0.910   6.069  0.3682 -0.3529 -0.0221
   40MOL   C46221600   5.920   0.983   5.968 -0.9595  0.0128  0.7790
   40MOL   C46321601   5.862   1.111   6.032  0.1146  0.0788  0.0061
   40MOL   C46421602   5.754   1.091   6.142 -0.0112 -0.0162  0.7845
   40MOL   C46521603   5.721   1.222   6.224  0.1567 -1.3292  0.0347
   40MOL   O46621604   5.652   1.304   6.122 -0.3685  0.5220 -0.3149
   40MOL   C46721605   5.679   1.436   6.120  0.0328 -0.2202  0.1414
   40MOL   O46821606   5.755   1.499   6.197 -0.0872  0.8552  0.0153
   40MOL   C46921607   5.587   1.515   6.017  0.6716  0.3994 -0.2709
   40MOL   C47021608   5.541   1.415   5.907  0.2294 -0.1428  0.0013
   40MOL   C47121609   5.456   1.539   6.089 -0.2453  0.4354 -0.1907
   40MOL   H47221610   6.044   0.809   6.039  0.2325 -0.0254 -1.2630
   40MOL   H47321611   5.985   0.892   6.172 -0.1275  0.2180 -0.0645
   40MOL   H47421612   6.114   0.954   6.080  0.7433 -1.5413  1.4872
   40MOL   H47521613   5.846   0.914   5.926  0.3082 -1.6125  1.1425
   40MOL   H47621614   5.974   1.018   5.881  1.7858 -0.3791  2.2637
   40MOL   H47721615   5.825   1.171   5.949 -0.9265 -2.0108 -1.0927
   40MOL   H47821616   5.950   1.158   6.076  0.2510  0.5328 -0.7386
   40MOL   H47921617   5.783   1.016   6.216  3.1538 -1.4320 -1.7438
   40MOL   H48021618   5.663   1.059   6.091  1.5899 -0.1534 -2.1056
   40MOL   H48121619   5.645   1.204   6.300 -0.9104  2.6121  0.0297
   40MOL   H48221620   5.812   1.265   6.266 -0.8098  0.2937  0.5030
   40MOL   H48321621   5.471   1.449   5.830 -0.6001  0.2791  0.9368
   40MOL   H48421622   5.493   1.328   5.953 -2.3158  0.9671 -0.4465
   40MOL   H48521623   5.629   1.377   5.855 -1.0310 -1.2549 -1.4056
   40MOL   H48621624   5.434   1.444   6.138 -0.4161  0.2177 -0.6839
   40MOL   H48721625   5.378   1.535   6.013 -1.3069 -1.2744  0.9605
   40MOL   C48821626   4.915   2.168   5.867  0.3737 -0.3017  0.1540
   40MOL   C48921627   5.053   2.112   5.847  1.0607  0.1783  0.2517
   40MOL   C49021628   5.058   1.964   5.867 -0.3750 -0.1851  0.1304
   40MOL   C49121629   5.198   1.912   5.851 -0.3088 -0.5506 -0.2604
   40MOL   C49221630   5.294   1.919   5.982  0.0075 -0.5997 -0.6364
   40MOL   O49321631   5.307   1.793   6.036 -0.2866 -0.6617 -0.0150
   40MOL   C49421632   5.403   1.777   6.130 -0.3963 -0.0434  0.8106
   40MOL   O49521633   5.489   1.862   6.149 -0.6909 -0.4251  0.0318
   40MOL   C49621634   5.422   1.641   6.195  0.2844 -0.6394 -0.0767
   40MOL   C49721635   5.528   1.641   6.304  0.6143  0.2670  0.5777
   40MOL   C49821636   5.286   1.580   6.257 -0.4906  0.1126  0.7320
   40MOL   H49921637   4.847   2.084   5.879 -1.6975  1.5285  1.6458
   40MOL   H50021638   4.898   2.238   5.949  2.4447  0.3062  0.0924
   40MOL   H50121639   4.880   2.217   5.776 -1.5002 -4.6329 -1.6059
   40MOL   H50221640   5.125   2.170   5.906  1.9030 -0.1969 -0.4026
   40MOL   H50321641   5.087   2.137   5.747 -0.4604  1.9638  0.1424
   40MOL   H50421642   5.029   1.940   5.969 -0.8166  0.4719  0.1701
   40MOL   H50521643   4.994   1.916   5.793  2.5150  1.4723 -3.6325
   40MOL   H50621644   5.254   1.951   5.765  0.8802 -2.0689 -0.1991
   40MOL   H50721645   5.191   1.811   5.811  2.2362 -1.4793  1.5278
   40MOL   H50821646   5.395   1.953   5.960  0.1287  0.4682  1.3695
   40MOL   H50921647   5.260   1.995   6.053 -1.5727  0.1228 -2.1515
   40MOL   H51021648   5.548   1.540   6.339 -0.7157 -0.0432  0.4585
   40MOL   H51121649   5.492   1.709   6.382  0.4523  0.1037  0.6452
   40MOL   H51221650   5.616   1.702   6.282 -0.8870  2.3314  0.1388
   40MOL   H51321651   5.309   1.482   6.299 -0.5434 -0.8942 -1.5282
   40MOL   H51421652   5.223   1.543   6.177 -0.0409 -0.3395  0.5869
   40MOL   C51521653   5.261   2.368   6.333  0.4356  0.8346  0.6430
   40MOL   C51621654   5.391   2.298   6.305  0.5079  0.5854  0.3295
   40MOL   C51721655   5.370   2.148   6.327 -0.6184  0.0404  0.1417
   40MOL   C51821656   5.324   2.108   6.473 -0.5158  0.7992  0.3123
   40MOL   C51921657   5.348   1.956   6.506 -0.5828 -0.3181 -0.0676
   40MOL   O52021658   5.273   1.879   6.424  0.3076  0.0522  0.0731
   40MOL   C52121659   5.257   1.753   6.455 -0.2550  0.0525  0.0390
   40MOL   O52221660   5.318   1.690   6.545 -0.2237  0.3482  0.1211
   40MOL   C52321661   5.184   1.664   6.352 -0.4104 -0.2256 -0.0990
   40MOL   C52421662   5.106   1.557   6.434 -0.1521 -0.3418 -0.8747
   40MOL   C52521663   5.080   1.744   6.276  0.6975 -0.0712 -0.0967
   40MOL   H52621664   5.254   2.469   6.291  1.6564  0.5858 -0.1865
   40MOL   H52721665   5.175   2.318   6.288  0.7261  0.4455  0.5226
   40MOL   H52821666   5.234   2.378   6.438 -0.8415 -0.9498  0.5016
   40MOL   H52921667   5.435   2.312   6.206  0.0284 -3.5707 -0.5851
   40MOL   H53021668   5.466   2.330   6.377 -0.8448  0.8064  1.6694
   40MOL   H53121669   5.292   2.101   6.268 -0.1324 -1.1547  0.4321
   40MOL   H53221670   5.454   2.085   6.297 -1.2929 -1.3284  1.0709
   40MOL   H53321671   5.220   2.127   6.498 -0.6609 -1.9378  2.0151
   40MOL   H53421672   5.380   2.172   6.542  0.9523 -0.9052  0.7464
   40MOL   H53521673   5.455   1.937   6.495 -0.0101  1.6668  1.7213
   40MOL   H53621674   5.332   1.928   6.610  0.3470  1.6135  0.6031
   40MOL   H53721675   5.046   1.483   6.382  0.3053 -0.8539 -0.6887
   40MOL   H53821676   5.037   1.602   6.504  1.8526  3.1279 -1.0253
   40MOL   H53921677   5.185   1.513   6.495 -0.6434 -0.8097 -0.5697
   40MOL   H54021678   5.042   1.688   6.191 -1.1343 -0.4699  0.9606
   40MOL   H54121679   5.117   1.835   6.229 -1.1874  1.2555  0.9331
   40MOL   H54221680   4.991   1.773   6.331  0.8257  0.5786 -0.2271
   41MOL     C121681   0.120   3.744   6.784  0.4105  0.1004  0.2217
   41MOL     C221682   0.226   3.718   6.678 -0.4703 -0.5680  0.1938
   41MOL     C321683   0.279   3.577   6.696 -1.2328  0.0279 -0.2095
   41MOL     C421684   0.178   3.460   6.663 -0.1971 -0.0200 -0.6455
   41MOL     C521685   0.238   3.320   6.699 -0.2838 -0.0040 -0.3427
   41MOL     O621686   0.343   3.300   6.608  0.1478 -0.6194  0.1147
   41MOL     C721687   0.402   3.178   6.602  0.3103 -0.0260 -0.0415
   41MOL     O821688   0.377   3.083   6.674 -0.0734  0.3437  0.3368
   41MOL     C921689   0.501   3.175   6.484  0.4959 -0.7591  0.3879
   41MOL    C1021690   0.622   3.252   6.527  0.0215  0.5101 -0.3644
   41MOL    C1121691   0.461   3.244   6.353 -0.5769 -0.4494  0.7435
   41MOL    H1221692   0.044   3.667   6.781  0.0597  0.4171  0.8958
   41MOL    H1321693   0.081   3.844   6.769  1.5260  0.6298  0.7698
   41MOL    H1421694   0.157   3.739   6.887 -0.4919  0.8985  0.5952
   41MOL    H1521695   0.182   3.731   6.579  0.2547  0.3237 -0.0193
   41MOL    H1621696   0.304   3.793   6.693 -0.8332  0.2188 -1.6814
   41MOL    H1721697   0.366   3.567   6.632 -2.1614 -1.9278 -1.1850
   41MOL    H1821698   0.317   3.561   6.797  3.1574  0.6759 -1.6671
   41MOL    H1921699   0.153   3.472   6.558  1.4687 -2.0720 -1.3232
   41MOL    H2021700   0.083   3.459   6.717 -0.2084 -1.4864 -0.6667
   41MOL    H2121701   0.282   3.298   6.796 -0.2859 -0.4884 -0.4487
   41MOL    H2221702   0.166   3.242   6.674 -0.3740  0.4346 -1.5149
   41MOL    H2321703   0.703   3.255   6.455  0.1870  0.4708 -0.1822
   41MOL    H2421704   0.667   3.202   6.614  0.8286  1.0995 -0.4381
   41MOL    H2521705   0.599   3.352   6.562  0.2834 -0.0689  1.5370
   41MOL    H2621706   0.547   3.293   6.308 -0.3344  1.8470  3.6184
   41MOL    H2721707   0.395   3.327   6.378 -0.0605  1.6067 -4.0796
   41MOL    H2821708   0.534   3.072   6.468  0.6713 -0.7850  0.8988
   41MOL    C2921709   7.646   2.737   5.880 -0.2171 -0.2915 -0.3677
   41MOL    C3021710   7.682   2.702   6.023 -0.1300 -0.3837  0.3995
   41MOL    C3121711   7.693   2.823   6.116  0.2257  0.2001  0.8876
   41MOL    C3221712   0.010   2.900   6.088 -1.0448  0.6622  0.0955
   41MOL    C3321713   0.049   2.988   6.203 -0.6672 -0.1203 -0.5442
   41MOL    O3421714   0.182   3.047   6.186  0.1999 -0.2605  0.0431
   41MOL    C3521715   0.240   3.117   6.282 -0.4957 -0.4784 -0.3637
   41MOL    O3621716   0.186   3.134   6.390  0.3379 -0.0546 -0.1585
   41MOL    C3721717   0.380   3.176   6.239  0.6133 -0.8519  0.0064
   41MOL    C3821718   0.471   3.067   6.191  0.0108  0.2317  0.2525
   41MOL    C3921719   0.361   3.280   6.126 -0.2953 -0.0926  0.0175
   41MOL    H4021720   7.637   2.645   5.822 -1.5490  0.1242 -0.8360
   41MOL    H4121721   7.544   2.773   5.869 -0.2068 -0.1852 -0.1028
   41MOL    H4221722   7.721   2.800   5.832  1.3834  0.8898  3.4680
   41MOL    H4321723   7.777   2.650   6.012 -1.0904 -1.6424 -2.4037
   41MOL    H4421724   7.607   2.639   6.071 -1.5041  1.0753  0.2383
   41MOL    H4521725   7.701   2.791   6.220  3.6284  0.8528  0.8849
   41MOL    H4621726   7.606   2.888   6.113 -0.4163 -0.6561  0.6950
   41MOL    H4721727   0.091   2.838   6.049 -2.1461 -0.6211 -0.1652
   41MOL    H4821728   7.801   2.960   6.000  0.9009  1.0067 -0.2058
   41MOL    H4921729   0.072   2.916   6.282 -2.0714  0.8984  0.8261
   41MOL    H5021730   7.793   3.069   6.223 -1.0184 -0.3720 -0.7545
   41MOL    H5121731   0.516   3.011   6.273  0.2911  0.9308  0.5805
   41MOL    H5221732   0.563   3.114   6.158 -0.3989  0.7180 -0.2017
   41MOL    H5321733   0.431   2.993   6.122 -0.8845 -0.2501  1.2745
   41MOL    H5421734   0.309   3.215   6.055 -1.3012 -1.3927  1.9244
   41MOL    H5521735   0.457   3.291   6.075 -0.5275  2.4893  0.0648
   41MOL    C5621736   0.713   4.056   6.044 -0.3026 -0.6435 -0.6864
   41MOL    C5721737   0.616   4.018   6.159  0.1497 -0.4200  0.1370
   41MOL    C5821738   0.619   3.875   6.212  0.4459  0.1675  0.1134
   41MOL    C5921739   0.548   3.773   6.129 -0.4054 -0.4826  0.1537
   41MOL    C6021740   0.588   3.635   6.179 -0.2049  0.9230  0.5306
   41MOL    O6121741   0.497   3.539   6.129  0.6605 -0.3279  0.0647
   41MOL    C6221742   0.378   3.520   6.198 -0.1095 -0.1077  0.8240
   41MOL    O6321743   0.356   3.574   6.307  0.1216 -0.4206 -0.1839
   41MOL    C6421744   0.284   3.420   6.134 -0.4373 -0.0673  1.3811
   41MOL    C6521745   0.146   3.420   6.204  0.0124 -0.4447  0.0194
   41MOL    C6621746   0.252   3.453   5.982  0.5996  0.1773 -0.1202
   41MOL    H6721747   0.692   3.995   5.956  1.1906 -1.1896 -0.6823
   41MOL    H6821748   0.820   4.048   6.064 -0.6995  0.5272  2.1579
   41MOL    H6921749   0.692   4.155   6.004  1.2644 -0.7805 -1.8653
   41MOL    H7021750   0.624   4.091   6.239 -0.9508 -0.8255  0.6185
   41MOL    H7121751   0.514   4.035   6.125 -0.0702 -1.1373  0.4168
   41MOL    H7221752   0.724   3.845   6.214  0.1870 -0.7309  0.8353
   41MOL    H7321753   0.580   3.874   6.314 -2.1518 -0.1576 -0.8436
   41MOL    H7421754   0.556   3.782   6.020 -1.2106  1.9249  0.2615
   41MOL    H7521755   0.444   3.788   6.155 -1.1139 -2.8266 -1.1515
   41MOL    H7621756   0.684   3.606   6.135 -1.4175 -1.5434 -0.5746
   41MOL    H7721757   0.602   3.626   6.287  0.9940  0.4392  0.3428
   41MOL    H7821758   0.112   3.524   6.212  0.8357 -0.3450  2.8790
   41MOL    H7921759   0.159   3.375   6.302  2.9543  1.1156  0.4167
   41MOL    H8021760   0.060   3.369   6.163 -0.2585 -1.0095  1.2650
   41MOL    H8121761   0.210   3.366   5.931 -1.8155  0.2982  1.6168
   41MOL    H8221762   0.350   3.468   5.937  1.5268 -0.8118  1.5014
   41MOL    C8321763   7.366   3.159   5.813  0.6121 -0.4478  0.7099
   41MOL    C8421764   7.380   3.229   5.949 -0.1708  0.3656 -0.0006
   41MOL    C8521765   7.506   3.188   6.028 -0.3309  0.8254 -0.3268
   41MOL    C8621766   7.639   3.238   5.966 -0.0833  0.5563 -0.2041
   41MOL    C8721767   7.646   3.388   5.951  0.4108 -0.1354  0.4914
   41MOL    O8821768   7.785   3.419   5.926 -0.1563 -0.1044  0.1207
   41MOL    C8921769   0.016   3.545   5.951 -0.3870 -0.0048  0.4029
   41MOL    O9021770   7.754   3.631   6.000  0.6660 -0.1397  0.1581
   41MOL    C9121771   0.164   3.575   5.928  0.2085 -0.5389 -0.8234
   41MOL    C9221772   0.205   3.707   6.004  0.2380  0.3621  0.2848
   41MOL    C9321773   0.185   3.593   5.773 -0.1181 -0.3991 -0.5922
   41MOL    H9421774   7.266   3.164   5.771  0.1309  1.2643  2.0033
   41MOL    H9521775   7.425   3.212   5.738 -0.0135  0.5719  0.9386
   41MOL    H9621776   7.400   3.056   5.829  0.4641 -0.9066 -1.7876
   41MOL    H9721777   7.294   3.189   6.003 -0.2967 -2.1900 -1.9846
   41MOL    H9821778   7.355   3.334   5.935 -0.1624  0.3950  0.2023
   41MOL    H9921779   7.520   3.081   6.014  1.0076  0.9981 -0.4139
   41MOL   H10021780   7.507   3.210   6.135 -1.5917 -0.0297 -0.1351
   41MOL   H10121781   7.665   3.190   5.872  1.0768 -2.7699  1.7229
   41MOL   H10221782   7.720   3.204   6.031 -0.7177 -1.6514 -0.5241
   41MOL   H10321783   7.602   3.431   6.042 -0.8180 -0.3756  0.0208
   41MOL   H10421784   7.593   3.424   5.863 -1.9454 -1.2860  1.3756
   41MOL   H10521785   0.201   3.691   6.112 -1.3341  0.0081  0.1795
   41MOL   H10621786   0.142   3.795   5.989 -0.7346 -0.7146 -2.2097
   41MOL   H10721787   0.308   3.737   5.984  0.0838 -0.2054 -1.3641
   41MOL   H10821788   0.283   3.557   5.742 -0.6451 -2.4677 -0.0098
   41MOL   H10921789   0.119   3.529   5.715  1.0847 -2.8300  0.6281
   41MOL   C11021790   0.754   4.323   5.639  0.3726  0.6578  0.2404
   41MOL   C11121791   0.633   4.233   5.607 -0.2898 -0.2219 -0.2375
   41MOL   C11221792   0.612   4.111   5.705  1.0115 -0.3817 -0.1123
   41MOL   C11321793   0.487   4.028   5.683 -0.4948 -0.1182 -0.2576
   41MOL   C11421794   0.471   3.910   5.787 -0.1974  0.2488  0.1218
   41MOL   O11521795   0.378   3.814   5.739 -0.1404 -0.3535  0.2836
   41MOL   C11621796   0.253   3.840   5.746  0.0718  0.0985  0.1744
   41MOL   O11721797   0.204   3.948   5.788 -0.3599  0.1421  0.2742
   41MOL   C11821798   0.154   3.729   5.697  0.3811  0.4542 -0.0670
   41MOL   C11921799   0.009   3.778   5.720  0.2875 -0.6453  0.0079
   41MOL   C12021800   0.185   3.693   5.543 -0.7823 -0.1276  0.5556
   41MOL   H12121801   0.767   4.399   5.562  0.0232  1.3180  0.8288
   41MOL   H12221802   0.738   4.372   5.735 -0.1893  2.1175 -0.5798
   41MOL   H12321803   0.851   4.274   5.629  0.0685 -0.1408  1.1334
   41MOL   H12421804   0.547   4.300   5.612  0.9847  1.3578  1.0790
   41MOL   H12521805   0.647   4.191   5.507  0.3493  1.1335 -0.7377
   41MOL   H12621806   0.700   4.046   5.707  0.6750 -0.8153  0.7358
   41MOL   H12721807   0.622   4.167   5.799 -0.8885  0.4110 -0.3581
   41MOL   H12821808   0.473   3.984   5.584  2.8804 -0.8224 -0.5134
   41MOL   H12921809   0.419   4.111   5.697  0.5109  0.4137  1.6431
   41MOL   H13021810   0.571   3.867   5.791 -0.0101  0.4262 -2.0914
   41MOL   H13121811   0.442   3.939   5.888 -1.6168  0.4451 -0.3265
   41MOL   H13221812   7.754   3.707   5.675  1.2530 -1.2550 -0.5097
   41MOL   H13321813   7.802   3.787   5.826 -2.1532 -0.6952 -0.4469
   41MOL   H13421814   7.806   3.873   5.669  1.3133  0.3462  1.4798
   41MOL   H13521815   0.289   3.666   5.524 -1.6293 -3.0713 -0.0803
   41MOL   H13621816   0.137   3.600   5.515  1.4049 -0.9202 -0.6608
   41MOL   C13721817   7.301   3.364   5.289  0.0517  0.2085  0.4777
   41MOL   C13821818   7.319   3.440   5.423  0.4460 -0.2604 -0.2980
   41MOL   C13921819   7.387   3.575   5.403  0.0820  0.2255 -0.2799
   41MOL   C14021820   7.541   3.569   5.369  0.2613  0.0682 -0.5989
   41MOL   C14121821   7.612   3.704   5.393  0.2394 -0.0959  0.9188
   41MOL   O14221822   7.752   3.688   5.393 -0.2081  0.1791  0.2539
   41MOL   C14321823   0.009   3.800   5.393 -0.1570 -0.3747 -0.2460
   41MOL   O14421824   7.778   3.913   5.377 -0.4963 -0.7217  0.1140
   41MOL   C14521825   0.160   3.785   5.417 -0.6218  0.0588 -0.4258
   41MOL   C14621826   0.218   3.926   5.443  0.0171  0.1044 -0.0638
   41MOL   C14721827   0.236   3.726   5.297  0.5167  0.6261 -0.9143
   41MOL   H14821828   7.241   3.427   5.222 -1.3030 -0.1546  1.3250
   41MOL   H14921829   7.245   3.271   5.293 -1.2647  0.8930 -1.4096
   41MOL   H15021830   7.391   3.337   5.234 -0.4761 -0.5106 -0.0358
   41MOL   H15121831   7.361   3.373   5.498  1.4749  1.4512  0.6753
   41MOL   H15221832   7.219   3.452   5.464  0.7067  0.6698  0.0644
   41MOL   H15321833   7.334   3.621   5.319 -1.7935 -1.6638 -0.1745
   41MOL   H15421834   7.384   3.635   5.495  0.8886 -0.3034  0.0975
   41MOL   H15521835   7.579   3.494   5.439  0.3716  0.2662 -0.4464
   41MOL   H15621836   7.565   3.534   5.269 -1.4031  0.0779 -1.0153
   41MOL   H15721837   7.585   3.744   5.491  1.8377 -0.8660  1.6814
   41MOL   H15821838   7.574   3.776   5.320 -2.7283 -3.8260 -1.4163
   41MOL   H15921839   0.327   3.924   5.432 -0.0298 -0.2256 -0.4650
   41MOL   H16021840   0.192   3.968   5.540  0.3515 -1.7554  0.8534
   41MOL   H16121841   0.186   4.000   5.370  1.2974 -0.7329 -1.5027
   41MOL   H16221842   0.236   3.808   5.224 -2.0037  2.2180  0.7754
   41MOL   H16321843   0.337   3.703   5.331  0.3418  0.9637 -0.1553
   41MOL   C16421844   0.704   3.794   5.403 -0.3029 -0.4191 -0.0773
   41MOL   C16521845   0.663   3.721   5.277  0.2202  0.3457  0.1903
   41MOL   C16621846   0.660   3.573   5.291  0.6046 -0.3409  0.1433
   41MOL   C16721847   0.655   3.487   5.170 -0.3130  0.0819 -0.3275
   41MOL   C16821848   0.532   3.526   5.085 -0.4052 -1.1165  0.2972
   41MOL   O16921849   0.416   3.548   5.157  0.4491  0.1018 -0.2811
   41MOL   C17021850   0.304   3.605   5.102  0.4413 -0.9705  0.6476
   41MOL   O17121851   0.296   3.644   4.985 -0.4989  0.6029  0.2289
   41MOL   C17221852   0.186   3.615   5.199  0.3301 -0.1317 -0.3605
   41MOL   C17321853   0.052   3.652   5.123 -0.3778  0.0695  0.7547
   41MOL   C17421854   0.163   3.474   5.265 -0.0992 -0.2682  0.0521
   41MOL   H17521855   0.692   3.901   5.390 -1.3358 -0.4794  0.3234
   41MOL   H17621856   0.809   3.776   5.424  0.1478  2.5500  0.3355
   41MOL   H17721857   0.646   3.763   5.490 -0.6218  2.5771  0.8158
   41MOL   H17821858   0.724   3.745   5.190 -0.1451  1.7912  0.3061
   41MOL   H17921859   0.565   3.755   5.242  0.3477 -0.2674 -0.7928
   41MOL   H18021860   0.737   3.540   5.361  1.5101 -0.6992 -1.0263
   41MOL   H18121861   0.576   3.548   5.357  0.2001  0.0709 -0.2157
   41MOL   H18221862   0.645   3.381   5.194 -1.0593 -0.4816 -2.9407
   41MOL   H18321863   0.741   3.498   5.104 -0.0984  1.2382  0.1254
   41MOL   H18421864   0.507   3.457   5.004  1.8829  1.9014 -3.1659
   41MOL   H18521865   0.558   3.618   5.033 -0.4482 -0.7988  0.8438
   41MOL   H18621866   0.059   3.624   5.018 -1.7864 -3.0781  1.4415
   41MOL   H18721867   0.034   3.759   5.115 -0.1012  0.1415  1.1195
   41MOL   H18821868   7.779   3.601   5.165  0.2358 -0.0720  1.8748
   41MOL   H18921869   0.241   3.467   5.341  0.1076  1.5073  0.0208
   41MOL   H19021870   0.073   3.485   5.325 -0.5784 -0.4077 -0.6422
   41MOL   C19121871   0.800   2.787   5.273  0.4020 -0.6614  0.8786
   41MOL   C19221872   0.665   2.853   5.305  0.5474  0.1797  0.1495
   41MOL   C19321873   0.613   2.940   5.192  0.1280  0.3208 -0.0061
   41MOL   C19421874   0.477   3.005   5.223 -0.0527 -0.2438 -0.5676
   41MOL   C19521875   0.417   3.072   5.104  0.1835  0.4817  0.3866
   41MOL   O19621876   0.290   3.139   5.123 -0.1913  0.6641 -0.3821
   41MOL   C19721877   0.287   3.249   5.198  0.0099  0.8926  0.3295
   41MOL   O19821878   0.379   3.283   5.263 -0.6201 -0.0652  0.0248
   41MOL   C19921879   0.153   3.337   5.192 -1.0254  0.1925 -0.9865
   41MOL   C20021880   0.119   3.349   5.037  0.3135 -0.4210 -0.7450
   41MOL   C20121881   0.032   3.259   5.256  0.1477  0.4794  0.0632
   41MOL   H20221882   0.875   2.865   5.259 -0.6842  0.2995  0.2827
   41MOL   H20321883   0.831   2.716   5.350 -1.3601 -3.1791 -0.6298
   41MOL   H20421884   0.785   2.720   5.189 -1.8699 -0.5180  1.1314
   41MOL   H20521885   0.657   2.901   5.403 -0.3517 -0.5604  0.4415
   41MOL   H20621886   0.587   2.779   5.321  0.2283  0.6568  0.8651
   41MOL   H20721887   0.604   2.882   5.101 -1.4550  1.4200 -0.5680
   41MOL   H20821888   0.675   3.027   5.168 -2.2013  2.0371 -0.0475
   41MOL   H20921889   0.413   2.925   5.260 -1.3579  0.6454 -0.8573
   41MOL   H21021890   0.478   3.077   5.304 -1.9390  0.6218 -1.2873
   41MOL   H21121891   0.486   3.150   5.073 -1.3619  1.0169 -1.8638
   41MOL   H21221892   0.410   3.003   5.020  0.3287  2.6525 -1.4637
   41MOL   H21321893   0.034   3.414   5.022 -0.6547 -1.7778 -1.2352
   41MOL   H21421894   0.102   3.250   4.994 -1.7668 -0.4196  0.0305
   41MOL   H21521895   0.209   3.385   4.986 -0.0683 -0.8717 -1.7572
   41MOL   H21621896   0.012   3.172   5.194 -0.4814  0.0925  0.7956
   41MOL   H21721897   7.762   3.326   5.236 -0.6952 -1.1443 -2.0192
   41MOL   C21821898   7.119   2.813   5.465 -0.1272 -0.0926 -0.0031
   41MOL   C21921899   7.259   2.854   5.447 -0.4015  0.1471  0.1557
   41MOL   C22021900   7.263   2.956   5.325  0.1392  0.3443 -0.1617
   41MOL   C22121901   7.412   2.984   5.276  0.6026 -0.4103 -1.0296
   41MOL   C22221902   7.489   3.062   5.383  0.5895 -0.0262  0.6123
   41MOL   O22321903   7.622   3.084   5.351 -0.1489  0.9704 -0.3040
   41MOL   C22421904   7.677   3.179   5.429 -0.6058 -0.0009  0.7401
   41MOL   O22521905   7.617   3.234   5.522  0.3669 -0.1833 -0.1538
   41MOL   C22621906   0.014   3.203   5.408  0.0230  0.0147 -0.1795
   41MOL   C22721907   0.056   3.308   5.513  0.4401  0.1632  0.1933
   41MOL   C22821908   0.102   3.077   5.433  0.0905  0.2136  0.7098
   41MOL   H22921909   7.075   2.745   5.392 -2.0334 -2.4513  3.1920
   41MOL   H23021910   7.106   2.761   5.560 -0.3717  0.0821  0.0595
   41MOL   H23121911   7.048   2.895   5.465 -0.4230 -0.3428  1.0301
   41MOL   H23221912   7.333   2.775   5.440  1.2198  1.6083  0.4229
   41MOL   H23321913   7.293   2.909   5.535  1.6599  0.6462 -0.9065
   41MOL   H23421914   7.215   3.053   5.339  1.0754  0.7885  0.0048
   41MOL   H23521915   7.203   2.910   5.246 -0.2402 -0.0084  0.3315
   41MOL   H23621916   7.468   2.893   5.255  0.9508  0.2315 -2.9531
   41MOL   H23721917   7.409   3.045   5.186  1.4208 -0.3604 -1.0331
   41MOL   H23821918   7.486   3.002   5.473 -0.1399 -1.4753 -0.3586
   41MOL   H23921919   7.429   3.151   5.402 -0.6242 -0.0685 -2.7179
   41MOL   H24021920   0.051   3.272   5.616 -0.2850  1.3640  0.5913
   41MOL   H24121921   7.794   3.386   5.516 -1.5359 -1.7770  3.2548
   41MOL   H24221922   0.159   3.342   5.506  1.0316 -1.6163 -0.1146
   41MOL   H24321923   0.207   3.107   5.441  0.6907 -1.1049 -1.5597
   41MOL   H24421924   0.104   3.028   5.335 -0.2420  2.2635 -0.3498
   41MOL   C24521925   0.082   2.748   5.093  0.9255  0.4907 -0.2534
   41MOL   C24621926   7.757   2.808   5.098 -0.5484  0.1271  0.1066
   41MOL   C24721927   7.660   2.704   5.149  0.4017  1.0098 -0.1812
   41MOL   C24821928   7.691   2.631   5.284  0.0237 -0.2728 -0.1430
   41MOL   C24921929   7.664   2.710   5.409 -0.9483 -0.9844  0.2576
   41MOL   O25021930   7.775   2.803   5.422  0.1120  0.3420  0.0528
   41MOL   C25121931   7.774   2.883   5.527  0.1913 -0.0608 -0.9340
   41MOL   O25221932   7.676   2.889   5.607  0.8792  0.0618 -0.1614
   41MOL   C25321933   0.084   2.971   5.551  0.7045 -0.1893 -0.0357
   41MOL   C25421934   0.070   3.033   5.693  0.3515 -0.1372 -0.2937
   41MOL   C25521935   0.216   2.880   5.547  0.4546  0.1865  0.2580
   41MOL   H25621936   0.161   2.819   5.069  1.0788  0.4980  0.2666
   41MOL   H25721937   0.109   2.710   5.192 -2.9219 -1.2136  0.2379
   41MOL   H25821938   0.092   2.657   5.034 -3.5288 -0.4023  0.1940
   41MOL   H25921939   7.744   2.891   5.168 -0.3978  1.1155 -1.0222
   41MOL   H26021940   7.728   2.841   4.998  2.4960  1.6950 -0.3128
   41MOL   H26121941   7.667   2.620   5.081  0.8449  0.4450  0.5590
   41MOL   H26221942   7.559   2.744   5.146 -0.5137 -1.0089  1.9450
   41MOL   H26321943   7.626   2.544   5.294  0.6106 -0.4710  2.0782
   41MOL   H26421944   7.788   2.582   5.281 -0.7882 -2.0152  1.0901
   41MOL   H26521945   7.570   2.762   5.389 -0.6710 -0.3158  0.6765
   41MOL   H26621946   7.664   2.660   5.506 -2.0137  0.4703  1.0308
   41MOL   H26721947   7.794   3.095   5.697 -0.0623 -0.7593  0.0451
   41MOL   H26821948   0.063   2.965   5.778  0.4011  1.0490  0.6758
   41MOL   H26921949   0.155   3.101   5.704  0.1797  0.1327 -0.6123
   41MOL   H27021950   0.207   2.806   5.468  2.6450  0.8201 -0.6066
   41MOL   H27121951   0.303   2.936   5.513 -1.1586  1.7647 -1.4352
   41MOL   C27221952   0.584   3.461   5.636  0.4630  0.4514  0.0878
   41MOL   C27321953   0.501   3.361   5.555 -0.3951 -0.0860  0.3552
   41MOL   C27421954   0.448   3.248   5.641 -0.0906 -0.6409  0.0231
   41MOL   C27521955   0.549   3.179   5.739  0.2165  0.6216 -0.5302
   41MOL   C27621956   0.477   3.075   5.825  0.0104  0.2385  0.2466
   41MOL   O27721957   0.420   2.983   5.732  0.1675  0.2780 -0.3789
   41MOL   C27821958   0.331   2.896   5.773 -0.5844  0.1873 -0.5047
   41MOL   O27921959   0.295   2.878   5.892  0.1360 -0.2033 -0.4872
   41MOL   C28021960   0.286   2.802   5.663  0.1064  0.4631  0.3073
   41MOL   C28121961   0.179   2.701   5.715  0.2638 -0.0462 -0.2935
   41MOL   C28221962   0.404   2.718   5.600 -0.7529 -0.4531 -0.4650
   41MOL   H28321963   0.553   3.488   5.737  1.4659  0.1326  0.4890
   41MOL   H28421964   0.683   3.418   5.651  0.6199  1.5449  2.4254
   41MOL   H28521965   0.607   3.549   5.577 -1.6199  0.7335 -0.3515
   41MOL   H28621966   0.419   3.423   5.518 -2.9616 -3.4512  0.2146
   41MOL   H28721967   0.547   3.323   5.464 -0.8982 -0.7664  0.3881
   41MOL   H28821968   0.367   3.287   5.703  3.1017  1.3736  3.1044
   41MOL   H28921969   0.418   3.165   5.577  1.0420 -0.5636 -0.6035
   41MOL   H29021970   0.629   3.138   5.677  2.5218 -0.5871  3.1412
   41MOL   H29121971   0.599   3.258   5.794 -0.5935  0.4213  0.4991
   41MOL   H29221972   0.398   3.118   5.885 -1.8809 -0.6236 -1.5712
   41MOL   H29321973   0.549   3.031   5.894 -0.4006 -0.8453 -0.0079
   41MOL   H29421974   0.091   2.755   5.752 -0.1397  0.1594 -1.5477
   41MOL   H29521975   0.147   2.622   5.648 -0.5048 -1.4785  1.6952
   41MOL   H29621976   0.212   2.639   5.799  1.7878 -0.5401 -1.2590
   41MOL   H29721977   0.373   2.689   5.499  0.5064  0.1040 -1.0268
   41MOL   H29821978   0.475   2.794   5.568  0.9349 -1.6051  0.4787
   41MOL   C29921979   7.660   2.223   5.163 -0.0537  0.4812  0.3064
   41MOL   C30021980   7.801   2.289   5.177 -0.3451 -0.1775  0.0935
   41MOL   C30121981   0.036   2.293   5.324  0.1150 -0.7465  0.2194
   41MOL   C30221982   0.168   2.375   5.339  0.0276 -0.0233 -0.0817
   41MOL   C30321983   0.219   2.369   5.484  0.2746 -0.2307  0.8417
   41MOL   O30421984   0.319   2.451   5.518  0.0310  0.4095  0.2969
   41MOL   C30521985   0.366   2.463   5.644  0.3851  0.3015  0.4339
   41MOL   O30621986   0.323   2.403   5.744 -0.4520 -0.6447  0.7859
   41MOL   C30721987   0.472   2.577   5.658 -0.4320 -0.5653 -0.2428
   41MOL   C30821988   0.596   2.551   5.572  0.4490  0.3622 -0.4154
   41MOL   C30921989   0.504   2.599   5.811 -0.1705 -1.0256 -0.5982
   41MOL   H31021990   7.587   2.282   5.219 -1.3259  0.9350 -1.7900
   41MOL   H31121991   7.644   2.127   5.211 -1.1466  0.2076 -0.5996
   41MOL   H31221992   7.615   2.223   5.064 -2.2614  0.4362  1.2745
   41MOL   H31321993   7.811   2.386   5.128 -0.2724  0.4403  1.3010
   41MOL   H31421994   0.065   2.230   5.129 -2.8450 -1.8631 -2.0073
   41MOL   H31521995   0.051   2.191   5.359  0.3864 -0.6383  0.4165
   41MOL   H31621996   7.773   2.336   5.388  0.5544 -0.5635  0.6308
   41MOL   H31721997   0.171   2.478   5.303  0.3883  0.3028  0.8687
   41MOL   H31821998   0.244   2.325   5.279 -0.6495  0.3777 -1.2706
   41MOL   H31921999   0.134   2.387   5.550  0.8313  1.5990  1.0702
   41MOL   H32022000   0.245   2.265   5.505 -2.4936 -1.0955  0.1926
   41MOL   H32122001   0.568   2.554   5.466 -0.8461 -2.9445 -0.2005
   41MOL   H32222002   0.679   2.621   5.580 -0.9050  1.9576 -0.0306
   41MOL   H32322003   0.630   2.449   5.590  0.5620  0.5285  0.3298
   41MOL   H32422004   0.416   2.608   5.874  0.7632  0.5096  0.5319
   41MOL   H32522005   0.552   2.696   5.825 -1.6647 -0.5275  1.2323
   41MOL   C32622006   0.387   1.726   6.176  0.1263  0.1996 -0.3620
   41MOL   C32722007   0.356   1.874   6.157  0.1185  0.4101 -0.6000
   41MOL   C32822008   0.433   1.945   6.041  0.3413 -0.0565 -0.6264
   41MOL   C32922009   0.414   2.098   6.051 -0.4673  0.1715  0.5226
   41MOL   C33022010   0.492   2.167   5.945 -0.1915  0.6587 -0.4316
   41MOL   O33122011   0.497   2.307   5.958 -0.2237  0.1338 -0.2377
   41MOL   C33222012   0.592   2.366   5.881  0.6314 -0.4223  0.1767
   41MOL   O33322013   0.658   2.310   5.795  0.2871 -0.0058  0.8973
   41MOL   C33422014   0.611   2.522   5.898  0.3202  0.8140 -0.6260
   41MOL   C33522015   0.747   2.566   5.860 -0.5031  0.2646 -0.9565
   41MOL   C33622016   0.577   2.562   6.039  0.1302 -0.0742 -0.5431
   41MOL   H33722017   0.339   1.679   6.262  0.5409  1.2894  0.4783
   41MOL   H33822018   0.494   1.707   6.172 -0.0715 -1.8387  2.6685
   41MOL   H33922019   0.348   1.684   6.083 -1.7540  2.7846 -0.7974
   41MOL   H34022020   0.388   1.926   6.247 -2.4598  0.8285  0.1264
   41MOL   H34122021   0.251   1.904   6.155  0.4685  1.5590 -3.0176
   41MOL   H34222022   0.394   1.913   5.945 -1.5087  0.8661 -0.2007
   41MOL   H34322023   0.539   1.919   6.035  0.2826 -0.7057  1.0441
   41MOL   H34422024   0.453   2.140   6.144  1.3318 -0.2665 -0.0127
   41MOL   H34522025   0.307   2.118   6.048 -0.2958  1.5566  2.3044
   41MOL   H34622026   0.447   2.140   5.850 -0.0871 -0.8116 -0.0731
   41MOL   H34722027   0.595   2.130   5.943 -1.3701 -2.8747  0.6278
   41MOL   H34822028   0.787   2.524   5.768  1.1486  1.9888 -1.0650
   41MOL   H34922029   0.821   2.526   5.930 -1.1098  1.2696  0.2827
   41MOL   H35022030   0.759   2.674   5.856  0.3690  0.1628 -1.2718
   41MOL   H35122031   0.481   2.524   6.072 -0.3578  0.9524 -0.7773
   41MOL   H35222032   0.564   2.670   6.039  0.5104 -0.0145  0.9227
   41MOL   C35322033   0.953   2.065   5.698 -0.5234  0.1800  0.5085
   41MOL   C35422034   0.975   2.075   5.854 -0.8695  0.1000 -0.1200
   41MOL   C35522035   1.003   2.217   5.911  0.1504 -0.0671 -0.1613
   41MOL   C35622036   0.998   2.222   6.069  0.3144 -0.1947 -0.1647
   41MOL   C35722037   0.867   2.242   6.142 -0.8233  0.3726 -0.7216
   41MOL   O35822038   0.814   2.373   6.120 -0.4770  0.7368  0.0013
   41MOL   C35922039   0.708   2.409   6.192 -0.3347  0.9369  0.2523
   41MOL   O36022040   0.650   2.340   6.271 -0.1591 -0.7695  0.1409
   41MOL   C36122041   0.665   2.557   6.173  0.0031 -0.0814 -0.6759
   41MOL   C36222042   0.559   2.586   6.281 -0.4913  0.0135 -0.0519
   41MOL   C36322043   0.786   2.662   6.173  0.0509  0.4290 -0.9402
   41MOL   H36422044   1.032   2.111   5.639 -1.0954  1.5792  0.8022
   41MOL   H36522045   0.859   2.117   5.680 -0.2315  0.8831  0.9752
   41MOL   H36622046   0.929   1.968   5.655  1.1784 -0.3471  0.7186
   41MOL   H36722047   0.885   2.030   5.897 -1.0428 -0.8265 -1.4542
   41MOL   H36822048   1.059   2.008   5.870 -0.7242  0.1956 -0.4846
   41MOL   H36922049   0.950   2.301   5.866 -0.7034 -0.4205  0.1732
   41MOL   H37022050   1.099   2.239   5.866  1.1633 -0.6580  1.6742
   41MOL   H37122051   1.065   2.304   6.097  0.1196  0.3291 -1.2392
   41MOL   H37222052   1.045   2.132   6.110 -0.2367 -0.2272  0.4130
   41MOL   H37322053   0.800   2.158   6.126 -2.1120  1.4621 -1.1614
   41MOL   H37422054   0.894   2.226   6.247  0.1895  0.7509 -0.9174
   41MOL   H37522055   0.471   2.522   6.286 -0.7713  0.4814  1.3675
   41MOL   H37622056   0.603   2.573   6.380  1.4000  1.1121 -0.7335
   41MOL   H37722057   0.530   2.690   6.264  3.2760  1.0279 -0.6446
   41MOL   H37822058   0.858   2.621   6.103 -1.0641  1.4659 -2.7448
   41MOL   H37922059   0.755   2.749   6.115 -0.1157  1.0738  0.1010
   41MOL   C38022060   0.352   2.452   6.754 -0.2045 -0.5834 -0.2665
   41MOL   C38122061   0.375   2.597   6.719 -0.1537  0.3359  0.1414
   41MOL   C38222062   0.528   2.625   6.692  0.9212  0.0813 -0.4261
   41MOL   C38322063   0.549   2.756   6.615 -0.6635  0.2708 -0.1205
   41MOL   C38422064   0.683   2.822   6.608  0.0380  0.5663 -0.8827
   41MOL   O38522065   0.769   2.751   6.518  0.7068  0.1588  0.1490
   41MOL   C38622066   0.784   2.787   6.394  0.1341  0.1925  0.6029
   41MOL   O38722067   0.733   2.886   6.344 -0.1073 -0.0322  0.5615
   41MOL   C38822068   0.870   2.693   6.304 -0.1564  0.2037  0.3739
   41MOL   C38922069   0.906   2.563   6.386 -0.3369  0.0562 -0.2854
   41MOL   C39022070   0.998   2.786   6.280 -0.2242 -0.1700  0.6720
   41MOL   H39122071   0.370   2.389   6.668 -0.5765  0.5878 -1.2186
   41MOL   H39222072   0.402   2.414   6.843 -0.8954  0.3386  0.5401
   41MOL   H39322073   0.247   2.439   6.782  0.1680 -1.0484  0.9413
   41MOL   H39422074   0.314   2.670   6.771 -0.1359 -0.0696  0.7289
   41MOL   H39522075   0.324   2.615   6.624 -1.7642 -3.4688  0.2060
   41MOL   H39622076   0.574   2.623   6.791  2.9386 -0.8923 -1.3422
   41MOL   H39722077   0.573   2.541   6.638 -0.9176 -1.4042  0.2949
   41MOL   H39822078   0.513   2.741   6.514  0.9194  0.5751 -0.7327
   41MOL   H39922079   0.493   2.841   6.654  1.7467  2.8078 -2.0404
   41MOL   H40022080   0.742   2.820   6.699 -4.2843  0.3107  2.0779
   41MOL   H40122081   0.661   2.924   6.573  0.5933  0.7976 -0.5599
   41MOL   H40222082   0.970   2.583   6.472 -0.6261  2.8518 -0.6762
   41MOL   H40322083   0.952   2.482   6.330 -0.9791  0.0093 -0.7406
   41MOL   H40422084   0.820   2.520   6.437  1.0989 -0.4241  1.7863
   41MOL   H40522085   1.036   2.793   6.382 -1.5278 -2.5753  1.3870
   41MOL   H40622086   0.968   2.887   6.254  1.1732  0.2774  0.7780
   41MOL   C40722087   0.928   3.125   6.656 -0.2525  0.3614 -0.0520
   41MOL   C40822088   1.059   3.053   6.651  0.0927  0.0547  0.0190
   41MOL   C40922089   1.134   3.082   6.524  0.1693  0.0505  0.1096
   41MOL   C41022090   1.260   3.005   6.497  0.3634 -0.3539  0.6014
   41MOL   C41122091   1.311   3.014   6.352  0.2929  0.8153 -0.6835
   41MOL   O41222092   1.219   2.947   6.263 -0.3418  0.1400  0.2664
   41MOL   C41322093   1.237   2.819   6.234 -0.1724 -0.3701 -0.0037
   41MOL   O41422094   1.345   2.760   6.251 -0.2997 -0.0088  0.1709
   41MOL   C41522095   1.112   2.746   6.179 -0.0632 -0.4950  0.5026
   41MOL   C41622096   1.146   2.600   6.180 -0.0612  0.3208  0.6153
   41MOL   C41722097   1.081   2.812   6.032  0.3796 -0.6577  0.7015
   41MOL   H41822098   0.854   3.101   6.580  1.9666 -2.7664 -1.3314
   41MOL   H41922099   0.869   3.110   6.747  0.7982 -1.1230  0.3915
   41MOL   H42022100   0.949   3.230   6.674  1.8933 -0.5094  2.9713
   41MOL   H42122101   1.037   2.948   6.669  1.5497  0.0540  1.7941
   41MOL   H42222102   1.107   3.086   6.743  0.0622  0.1345  0.0069
   41MOL   H42322103   1.065   3.075   6.439  0.7206 -2.0616 -0.1769
   41MOL   H42422104   1.170   3.184   6.508 -0.2494  0.1309 -0.3378
   41MOL   H42522105   1.242   2.901   6.524  0.1082 -0.3490  0.4480
   41MOL   H42622106   1.337   3.038   6.568  0.8283  0.8147 -0.4385
   41MOL   H42722107   1.315   3.120   6.326 -1.2253  0.7004 -1.4536
   41MOL   H42822108   1.412   2.979   6.332  1.7096  4.2153  0.1590
   41MOL   H42922109   1.234   2.571   6.122 -0.0434  1.3319  0.1222
   41MOL   H43022110   1.067   2.548   6.126 -1.4885  0.3793  2.6029
   41MOL   H43122111   1.141   2.572   6.285  1.5576 -0.5708  0.4720
   41MOL   H43222112   1.092   2.919   6.045 -0.3554 -0.5361  0.3672
   41MOL   H43322113   0.975   2.791   6.019  0.0426  1.1401  0.4364
   41MOL   C43422114   0.896   2.402   5.365 -0.6011 -0.3585 -0.1285
   41MOL   C43522115   1.042   2.432   5.335  0.1292 -0.1159  0.4213
   41MOL   C43622116   1.133   2.399   5.447  0.6068 -0.5299 -0.0601
   41MOL   C43722117   1.136   2.509   5.560  0.2073 -0.2832  0.6329
   41MOL   C43822118   1.229   2.489   5.686  0.6938  0.2938  0.0442
   41MOL   O43922119   1.234   2.617   5.749 -0.0044  0.3048 -0.9941
   41MOL   C44022120   1.143   2.637   5.847 -0.3579  0.9018  0.6769
   41MOL   O44122121   1.050   2.564   5.885 -0.3476  0.0552 -0.4089
   41MOL   C44222122   1.163   2.779   5.903  0.2729  0.3519 -0.3284
   41MOL   C44322123   1.313   2.794   5.937  0.3405  0.4111 -0.1987
   41MOL   C44422124   1.143   2.887   5.789 -0.1665  0.2588 -0.5605
   41MOL   H44522125   0.851   2.400   5.266  1.1859 -1.7163 -0.9350
   41MOL   H44622126   0.893   2.310   5.423  2.4180 -0.5540 -0.2292
   41MOL   H44722127   0.852   2.486   5.420  0.6336 -1.7939  3.1811
   41MOL   H44822128   1.074   2.378   5.245 -1.9950 -0.7002 -0.0141
   41MOL   H44922129   1.054   2.539   5.315 -2.2240 -0.3155 -2.3758
   41MOL   H45022130   1.110   2.295   5.472 -1.2713 -0.5813 -1.8659
   41MOL   H45122131   1.241   2.393   5.432  1.0634  2.5167  1.7721
   41MOL   H45222132   1.032   2.525   5.590  0.0601  1.5282 -0.7962
   41MOL   H45322133   1.170   2.600   5.511 -1.1276  0.0680  0.3294
   41MOL   H45422134   1.332   2.476   5.651 -0.0810 -1.3433 -1.7767
   41MOL   H45522135   1.196   2.402   5.742  1.8640  1.4602  2.6119
   41MOL   H45622136   1.355   2.711   5.995 -0.3025 -0.3863 -0.8639
   41MOL   H45722137   1.379   2.797   5.850 -0.4809 -0.2485 -0.8510
   41MOL   H45822138   1.333   2.886   5.992 -2.0385 -0.1839  1.7497
   41MOL   H45922139   1.212   2.865   5.707  0.8265 -3.4964  1.1743
   41MOL   H46022140   1.184   2.981   5.824  0.0504 -0.1226  0.2185
   41MOL   C46122141   0.948   3.515   6.234  0.5944  0.3437  0.3215
   41MOL   C46222142   0.847   3.401   6.209 -0.6331 -0.1897  0.0373
   41MOL   C46322143   0.896   3.258   6.232  0.4757 -0.2358 -0.0910
   41MOL   C46422144   0.968   3.205   6.110 -0.0823  0.0256 -0.0953
   41MOL   C46522145   0.883   3.137   6.004  0.0366  0.4399  0.4852
   41MOL   O46622146   0.958   3.075   5.900  0.5912  0.0924 -0.2405
   41MOL   C46722147   0.903   2.980   5.824 -0.0257 -0.1867  0.0633
   41MOL   O46822148   0.781   2.954   5.827  0.4324 -0.3723 -0.1014
   41MOL   C46922149   1.001   2.922   5.724 -0.5458  0.1836  0.5620
   41MOL   C47022150   0.950   2.790   5.661 -0.7815  0.0538  0.0259
   41MOL   C47122151   1.013   3.027   5.601 -0.4088 -0.2908  0.7278
   41MOL   H47222152   1.044   3.498   6.184 -0.2129 -1.3004 -0.7069
   41MOL   H47322153   0.974   3.502   6.339 -0.8937 -0.8372  0.5547
   41MOL   H47422154   0.907   3.615   6.224 -1.1700 -0.6223 -2.5211
   41MOL   H47522155   0.795   3.415   6.114 -2.8297 -2.4777  0.8377
   41MOL   H47622156   0.761   3.414   6.274  0.3606  1.2593  1.0840
   41MOL   H47722157   0.824   3.180   6.257 -0.0513  0.1390 -0.4396
   41MOL   H47822158   0.965   3.253   6.316 -1.6990  0.2904  1.7574
   41MOL   H47922159   1.044   3.134   6.143  1.4715  0.8252 -1.8806
   41MOL   H48022160   1.027   3.287   6.070 -0.0583 -1.1425 -2.5318
   41MOL   H48122161   0.818   3.065   6.054 -1.0987  1.7406  0.8989
   41MOL   H48222162   0.804   3.199   5.963 -1.2203 -1.1888  0.3656
   41MOL   H48322163   0.854   2.805   5.612  0.9579  3.3891 -2.6324
   41MOL   H48422164   0.929   2.712   5.734 -2.2412  1.0028  0.6401
   41MOL   H48522165   1.022   2.753   5.587 -0.1090  0.3981  0.5073
   41MOL   H48622166   0.930   3.008   5.534  2.0158  0.4108 -2.5813
   41MOL   H48722167   1.100   2.996   5.542 -0.8701  0.0852 -0.1540
   41MOL   C48822168   1.811   3.037   5.750 -0.0291  0.2407  0.0552
   41MOL   C48922169   1.682   2.973   5.680  0.1486 -0.0388  0.3213
   41MOL   C49022170   1.546   3.027   5.727  0.1621  0.1851  0.1125
   41MOL   C49122171   1.520   3.178   5.704  0.8447  0.3186  0.0057
   41MOL   C49222172   1.381   3.212   5.758 -0.3598  0.0772  0.0049
   41MOL   O49322173   1.269   3.166   5.679 -0.0753 -0.1676  0.2827
   41MOL   C49422174   1.149   3.221   5.711 -0.6051 -0.1904  0.5240
   41MOL   O49522175   1.133   3.307   5.798  0.3122  0.0364 -0.5863
   41MOL   C49622176   1.041   3.183   5.610  0.3987 -0.9722 -0.3629
   41MOL   C49722177   0.910   3.257   5.631 -0.3020  0.6913 -0.1869
   41MOL   C49822178   1.092   3.239   5.467 -1.2513 -0.0526 -0.1799
   41MOL   H49922179   1.832   2.986   5.845 -1.0854  1.5259  0.9963
   41MOL   H50022180   1.900   3.010   5.694 -0.3558  0.8488 -0.7509
   41MOL   H50122181   1.807   3.145   5.749 -2.0154  0.1917 -1.9894
   41MOL   H50222182   1.684   2.864   5.677 -0.2466 -0.0060 -1.2103
   41MOL   H50322183   1.679   2.990   5.573  0.6361  0.5200  0.3989
   41MOL   H50422184   1.459   2.974   5.687  1.2827 -1.5369 -0.0822
   41MOL   H50522185   1.555   3.010   5.834  0.7304 -0.3575 -0.0180
   41MOL   H50622186   1.513   3.194   5.596  0.5968 -1.8293 -0.3225
   41MOL   H50722187   1.603   3.239   5.738 -1.0013  2.0480  1.4958
   41MOL   H50822188   1.363   3.180   5.861  0.5670 -0.3579  0.0364
   41MOL   H50922189   1.377   3.321   5.758  0.5181  0.1282  1.4617
   41MOL   H51022190   0.927   3.363   5.646  1.8922  0.5903 -1.8057
   41MOL   H51122191   0.865   3.223   5.724 -1.4171 -0.0350 -0.9698
   41MOL   H51222192   0.845   3.235   5.546 -1.0497 -1.5968  0.9314
   41MOL   H51322193   1.038   3.189   5.386 -2.2806 -1.7164  1.5068
   41MOL   H51422194   1.187   3.185   5.461 -1.2036 -0.1120  0.9942
   41MOL   C51522195   1.840   3.011   5.311  0.7190  0.3288 -0.0294
   41MOL   C51622196   1.777   3.152   5.292 -0.8151  0.0431 -0.2448
   41MOL   C51722197   1.664   3.175   5.202 -0.2425 -0.1893 -0.1485
   41MOL   C51822198   1.555   3.256   5.277 -0.9458 -0.0334  0.0074
   41MOL   C51922199   1.424   3.283   5.211 -0.5248  0.3657 -0.5649
   41MOL   O52022200   1.327   3.316   5.316  0.2474  0.2953 -0.4230
   41MOL   C52122201   1.207   3.377   5.290  0.6195 -0.3728 -0.1020
   41MOL   O52222202   1.168   3.386   5.174  0.1403 -0.1566 -0.3299
   41MOL   C52322203   1.122   3.389   5.421 -0.1134  0.6930 -0.2123
   41MOL   C52422204   1.208   3.465   5.522  0.3432 -0.0914  0.0325
   41MOL   C52522205   0.992   3.456   5.386  0.6559  0.1313  0.0373
   41MOL   H52622206   1.916   3.014   5.389  0.2882  0.6399  0.3807
   41MOL   H52722207   1.763   2.940   5.339  2.0373 -0.2617  2.2038
   41MOL   H52822208   1.893   2.977   5.222  1.1764  4.8607 -1.6636
   41MOL   H52922209   1.757   3.191   5.392  0.9838  0.2700  0.0339
   41MOL   H53022210   1.847   3.234   5.278 -1.2981  0.6137  0.6281
   41MOL   H53122211   1.684   3.216   5.103  5.1862 -1.8183  0.0947
   41MOL   H53222212   1.614   3.080   5.187 -1.7341  0.3644  1.1186
   41MOL   H53322213   1.588   3.354   5.310 -0.1138 -0.2868 -0.0732
   41MOL   H53422214   1.531   3.206   5.371 -0.3378  1.3455  0.9126
   41MOL   H53522215   1.423   3.370   5.146 -2.6919  0.8974  0.1248
   41MOL   H53622216   1.396   3.200   5.146  2.2854  0.3465 -1.8196
   41MOL   H53722217   1.240   3.558   5.476 -0.4893 -0.3348 -1.0711
   41MOL   H53822218   1.286   3.399   5.560 -1.0749 -1.4216  0.6919
   41MOL   H53922219   1.155   3.513   5.604 -0.7112  1.3809 -1.4755
   41MOL   H54022220   0.926   3.401   5.319  0.5702  1.1334 -0.7133
   41MOL   H54122221   1.016   3.552   5.341  1.0613 -0.0774 -0.1868
   41MOL   H54222222   0.931   3.489   5.471  0.0022 -0.1002 -0.3331
   42MOL     C122223   3.145   5.522   1.041 -0.1150 -0.2365  0.2166
   42MOL     C222224   3.219   5.451   1.154 -0.1229 -0.0318 -0.4521
   42MOL     C322225   3.164   5.494   1.292  0.5728 -0.0760  0.2156
   42MOL     C422226   3.216   5.396   1.400  0.8218  0.2131 -0.5558
   42MOL     C522227   3.194   5.435   1.541  0.3284  0.7716  0.4935
   42MOL     O622228   3.056   5.441   1.580  0.1838 -0.3994 -0.1610
   42MOL     C722229   3.025   5.460   1.710 -0.7500 -0.8515  0.3144
   42MOL     O822230   3.106   5.458   1.797 -0.5861 -0.2132  0.0998
   42MOL     C922231   2.879   5.465   1.744 -0.5424 -0.1997  0.5394
   42MOL    C1022232   2.812   5.599   1.686 -0.0549  0.4375 -0.1375
   42MOL    C1122233   2.848   5.443   1.892 -0.5973 -0.2352 -0.2620
   42MOL    H1222234   3.169   5.483   0.943 -4.2603 -0.6546 -0.7175
   42MOL    H1322235   3.162   5.630   1.031 -1.7159 -0.2040 -2.7566
   42MOL    H1422236   3.037   5.513   1.043 -0.1612 -0.2850 -1.9312
   42MOL    H1522237   3.207   5.344   1.138 -0.9010  0.4982 -3.7061
   42MOL    H1622238   3.327   5.467   1.148  0.2921 -1.5591  1.9368
   42MOL    H1722239   3.205   5.592   1.318 -0.1231  0.5333 -0.9238
   42MOL    H1822240   3.055   5.496   1.303  0.7737  2.2817  2.3228
   42MOL    H1922241   3.321   5.375   1.378 -0.0456 -1.9364 -2.7868
   42MOL    H2022242   3.162   5.303   1.385  0.8430  0.3230 -1.3855
   42MOL    H2122243   3.232   5.355   1.604 -1.9080 -1.9884 -1.5566
   42MOL    H2222244   3.244   5.532   1.546 -1.9232  2.0982 -1.5517
   42MOL    H2322245   2.851   5.696   1.715  0.1903  0.3215 -0.0754
   42MOL    H2422246   2.708   5.601   1.718  0.8497  0.6106  2.9864
   42MOL    H2522247   2.823   5.590   1.578  0.7238  2.2418 -0.2199
   42MOL    H2622248   2.762   5.506   1.914 -1.1840 -0.6237 -1.3843
   42MOL    H2722249   2.925   5.498   1.946 -0.6404  1.4102 -1.8038
   42MOL    H2822250   2.833   5.386   1.684  0.1947  0.6864 -1.2250
   42MOL    C2922251   2.666   4.767   1.814 -0.0633  0.2436  0.3112
   42MOL    C3022252   2.795   4.851   1.835 -1.0039  0.0001  0.5597
   42MOL    C3122253   2.877   4.845   1.704 -0.5002  0.1159  1.0418
   42MOL    C3222254   3.003   4.933   1.715  1.4981  0.1949  0.5061
   42MOL    C3322255   2.976   5.083   1.667  0.2325 -0.0592  0.4575
   42MOL    O3422256   2.884   5.154   1.752  0.3036  0.0783 -0.2073
   42MOL    C3522257   2.911   5.184   1.882  0.5515 -0.2278  0.0493
   42MOL    O3622258   3.003   5.139   1.948  0.4760 -0.3461  1.0751
   42MOL    C3722259   2.814   5.298   1.949  0.0251 -0.8730  0.0003
   42MOL    C3822260   2.664   5.267   1.911 -0.1934  0.1106  0.4215
   42MOL    C3922261   2.831   5.313   2.105 -0.4865  0.4481  0.6017
   42MOL    H4022262   2.597   4.809   1.740  0.4008 -1.2789 -1.0186
   42MOL    H4122263   2.695   4.671   1.772 -1.0747  1.0209 -2.2835
   42MOL    H4222264   2.612   4.740   1.904 -1.6481 -1.6107 -1.1443
   42MOL    H4322265   2.862   4.807   1.910  0.9721  1.1104 -0.5230
   42MOL    H4422266   2.769   4.951   1.869  0.6390  0.9907 -0.9810
   42MOL    H4522267   2.820   4.885   1.620  3.0116 -0.0420 -1.5420
   42MOL    H4622268   2.919   4.745   1.697  1.1987  0.8790 -0.1008
   42MOL    H4722269   3.045   4.942   1.815 -0.6961 -1.8814  1.6683
   42MOL    H4822270   3.077   4.886   1.650 -0.8201 -1.4429 -1.0201
   42MOL    H4922271   2.941   5.081   1.563  1.6434  1.1326 -0.0497
   42MOL    H5022272   3.063   5.147   1.677  0.4026 -0.0974 -0.6544
   42MOL    H5122273   2.598   5.341   1.956 -1.7910  0.6485 -2.6823
   42MOL    H5222274   2.623   5.176   1.955 -1.9515 -0.3153 -2.0220
   42MOL    H5322275   2.641   5.260   1.805  1.5587 -1.5394  0.1222
   42MOL    H5422276   2.844   5.418   2.130  2.0448  0.5745 -1.0665
   42MOL    H5522277   2.936   5.283   2.116 -1.4691 -2.9465  1.2354
   42MOL    C5622278   2.455   5.493   2.817  0.3130  0.3046 -0.1839
   42MOL    C5722279   2.442   5.573   2.683 -0.2688 -0.1247 -0.4451
   42MOL    C5822280   2.436   5.468   2.570 -0.4438 -1.3347 -0.2811
   42MOL    C5922281   2.449   5.524   2.429 -0.5115 -0.0271  0.0368
   42MOL    C6022282   2.453   5.425   2.314 -1.3410 -0.1515 -0.4764
   42MOL    O6122283   2.589   5.375   2.296 -0.0746 -0.1964 -0.2224
   42MOL    C6222284   2.606   5.268   2.223  0.4660  1.1179 -0.4206
   42MOL    O6322285   2.514   5.194   2.181  0.0963 -0.4061 -0.1473
   42MOL    C6422286   2.755   5.227   2.213 -0.3841 -0.0209  0.2582
   42MOL    C6522287   2.832   5.271   2.342  0.7245 -0.2380  0.1092
   42MOL    C6622288   2.765   5.067   2.193 -0.6809  0.5905 -0.2538
   42MOL    H6722289   2.476   5.565   2.896  0.7757  1.5035 -1.3832
   42MOL    H6822290   2.548   5.436   2.812  0.0701  0.0946 -3.2552
   42MOL    H6922291   2.372   5.429   2.847  0.1412 -0.1898 -1.6953
   42MOL    H7022292   2.350   5.631   2.681 -1.2518 -1.6727 -0.8815
   42MOL    H7122293   2.527   5.639   2.669  0.1445 -0.6014 -0.2141
   42MOL    H7222294   2.513   5.391   2.579  0.4812 -0.4870 -0.8578
   42MOL    H7322295   2.346   5.407   2.581 -0.8118 -1.0454 -1.5603
   42MOL    H7422296   2.541   5.582   2.440 -2.0980  2.7507 -0.9734
   42MOL    H7522297   2.360   5.585   2.413 -0.8603  0.7372  4.2739
   42MOL    H7622298   2.380   5.345   2.319 -1.3205 -0.3615 -2.7406
   42MOL    H7722299   2.426   5.474   2.220  2.3030  0.1923 -1.4131
   42MOL    H7822300   2.934   5.233   2.350  1.6052  2.3296  1.6200
   42MOL    H7922301   2.780   5.242   2.433  0.6877 -1.5607 -0.3209
   42MOL    H8022302   2.836   5.379   2.353  2.4480 -0.1637 -1.0743
   42MOL    H8122303   2.856   5.043   2.138 -0.9140  0.8670 -0.7682
   42MOL    H8222304   2.688   5.044   2.118 -1.8178 -0.0721  1.0822
   42MOL    C8322305   3.253   4.543   2.107 -0.4243 -0.1792 -0.4406
   42MOL    C8422306   3.276   4.689   2.151  0.1570  0.7368  0.1817
   42MOL    C8522307   3.191   4.732   2.271  0.6338 -0.1325  0.5896
   42MOL    C8622308   3.225   4.879   2.323  0.5088 -0.3773 -0.1368
   42MOL    C8722309   3.106   4.937   2.416  0.4224  0.0766  0.2864
   42MOL    O8822310   2.985   4.946   2.343  0.0203 -0.7380  0.4710
   42MOL    C8922311   2.869   4.959   2.405  0.2444 -0.0310  0.2061
   42MOL    O9022312   2.854   4.968   2.529  0.6291 -0.5894  0.1907
   42MOL    C9122313   2.745   4.962   2.307  0.1030 -1.2590 -0.4889
   42MOL    C9222314   2.612   4.981   2.384 -0.8249 -0.1573 -0.5890
   42MOL    C9322315   2.748   4.821   2.237  0.6866  0.1863 -0.0303
   42MOL    H9422316   3.297   4.530   2.008 -3.0288  1.1197 -1.8220
   42MOL    H9522317   3.300   4.469   2.173  0.0225 -0.2082 -0.7891
   42MOL    H9622318   3.152   4.505   2.093 -0.2567 -0.3400 -1.2577
   42MOL    H9722319   3.260   4.753   2.064  0.2709  0.1957 -0.2445
   42MOL    H9822320   3.381   4.694   2.180  0.4580  1.4393 -0.9791
   42MOL    H9922321   3.197   4.658   2.350 -0.2594 -0.6697  0.1667
   42MOL   H10022322   3.090   4.733   2.230  0.7256 -0.6737  0.3506
   42MOL   H10122323   3.238   4.944   2.237  1.5600 -0.8920 -0.3773
   42MOL   H10222324   3.318   4.880   2.380  1.1305 -0.1053 -1.1375
   42MOL   H10322325   3.136   5.036   2.452  0.9680 -0.3132  0.9198
   42MOL   H10422326   3.088   4.865   2.496 -0.5493 -0.0107 -0.0004
   42MOL   H10522327   2.584   5.073   2.434 -1.3225 -1.0111  0.7467
   42MOL   H10622328   2.606   4.907   2.465 -2.1564 -1.1840 -1.6010
   42MOL   H10722329   2.516   4.966   2.335 -0.5824 -1.0108 -0.8172
   42MOL   H10822330   2.685   4.823   2.148 -0.1956  0.1470  0.5799
   42MOL   H10922331   2.843   4.803   2.188  0.7135 -0.4033  0.2319
   42MOL   C11022332   2.252   4.980   1.848 -0.5914  0.0380  0.3955
   42MOL   C11122333   2.343   4.993   1.965 -0.6111  0.2158  0.0885
   42MOL   C11222334   2.317   4.893   2.083 -0.4764  0.1071  0.1140
   42MOL   C11322335   2.310   4.748   2.048 -0.0819 -0.6886  0.0481
   42MOL   C11422336   2.348   4.649   2.160 -0.0242 -0.1116  0.3975
   42MOL   O11522337   2.486   4.652   2.185  0.3116 -0.9273 -0.4335
   42MOL   C11622338   2.538   4.677   2.306 -0.1058  0.0557 -0.1716
   42MOL   O11722339   2.466   4.695   2.410 -0.6172 -0.4944 -0.2217
   42MOL   C11822340   2.696   4.688   2.308 -0.3261  0.0377 -0.2739
   42MOL   C11922341   2.754   4.679   2.457  0.1843 -0.2724  0.4128
   42MOL   C12022342   2.752   4.558   2.234 -0.2699 -0.0017  0.1901
   42MOL   H12122343   2.263   4.884   1.797 -1.3548 -0.0264  0.3408
   42MOL   H12222344   2.150   4.979   1.886 -0.3960 -1.6488  0.9440
   42MOL   H12322345   2.277   5.063   1.782  1.4695  0.2476  1.3943
   42MOL   H12422346   2.445   4.977   1.931 -0.9294 -1.0958 -0.2481
   42MOL   H12522347   2.341   5.098   1.995 -0.2047  0.7372 -1.6584
   42MOL   H12622348   2.393   4.903   2.161 -0.0811 -1.2700 -0.0662
   42MOL   H12722349   2.224   4.921   2.132 -1.3287  0.0767 -1.4691
   42MOL   H12822350   2.383   4.729   1.970  0.4041  1.3686 -0.0195
   42MOL   H12922351   2.210   4.728   2.009 -1.7746 -1.2243  4.3003
   42MOL   H13022352   2.294   4.661   2.254  1.2405  3.2149  0.7718
   42MOL   H13122353   2.313   4.550   2.129  1.5554 -0.9840  1.3636
   42MOL   H13222354   2.863   4.670   2.455  0.3349  1.4712 -0.7210
   42MOL   H13322355   2.720   4.758   2.523 -1.5806  1.3199 -2.2907
   42MOL   H13422356   2.709   4.592   2.505 -0.9638 -0.7927 -1.5560
   42MOL   H13522357   2.725   4.568   2.129  0.3117  1.9849  0.2022
   42MOL   H13622358   2.855   4.585   2.212 -0.6796  1.5206  0.0798
   42MOL   C13722359   3.312   4.076   2.248  0.1772  0.2233 -0.6293
   42MOL   C13822360   3.245   4.112   2.373  0.2500 -0.4131 -0.6413
   42MOL   C13922361   3.202   4.257   2.376 -0.3077 -0.2833  0.0772
   42MOL   C14022362   3.135   4.298   2.506  0.5219  0.2094  0.0634
   42MOL   C14122363   3.054   4.432   2.496 -0.5170  0.9386 -0.1798
   42MOL   O14222364   2.960   4.433   2.393 -0.4312  0.2208  0.3556
   42MOL   C14322365   2.830   4.377   2.407  0.6246 -0.1478  0.2884
   42MOL   O14422366   2.789   4.307   2.498 -0.2985 -0.4798  0.4198
   42MOL   C14522367   2.748   4.406   2.272 -0.1554  0.4421  0.1029
   42MOL   C14622368   2.599   4.359   2.299  0.3244  0.7113  0.4493
   42MOL   C14722369   2.808   4.319   2.146  0.3678 -0.0149 -0.7005
   42MOL   H14822370   3.323   3.969   2.232  2.0303  0.3872 -0.5686
   42MOL   H14922371   3.408   4.127   2.244  0.0798  0.6707  1.8758
   42MOL   H15022372   3.249   4.095   2.161 -1.3249  1.5048  0.7112
   42MOL   H15122373   3.325   4.089   2.444 -1.5093 -1.9300  0.9007
   42MOL   H15222374   3.166   4.038   2.383  0.9223 -1.4203 -2.5614
   42MOL   H15322375   3.287   4.321   2.351  0.8366 -0.6219  2.8648
   42MOL   H15422376   3.130   4.284   2.298  2.4130  1.0599 -2.0406
   42MOL   H15522377   3.066   4.221   2.540 -1.5371  0.4247 -3.4510
   42MOL   H15622378   3.205   4.309   2.589 -0.9946  0.0696  1.3940
   42MOL   H15722379   3.119   4.515   2.471  0.9031  0.2746  1.1988
   42MOL   H15822380   3.008   4.457   2.592 -0.8625  1.0071 -0.3660
   42MOL   H15922381   2.584   4.252   2.311 -0.9573  1.0405  1.9896
   42MOL   H16022382   2.539   4.377   2.210  2.1818  2.9015 -0.4074
   42MOL   H16122383   2.573   4.409   2.392 -1.0257 -2.2069  1.6890
   42MOL   H16222384   2.781   4.379   2.060  0.5778 -1.0249 -1.4813
   42MOL   H16322385   2.915   4.327   2.161  0.3841 -2.6137  0.8772
   42MOL   C16422386   2.179   4.606   1.636  0.0121  0.4754  0.2546
   42MOL   C16522387   2.317   4.585   1.699  0.1458  0.5433  0.2129
   42MOL   C16622388   2.326   4.461   1.781 -0.6387 -0.5561  0.0540
   42MOL   C16722389   2.465   4.434   1.838  0.0063 -0.1300  0.3224
   42MOL   C16822390   2.465   4.305   1.918  0.1685  0.3263  0.0710
   42MOL   O16922391   2.596   4.272   1.958  0.0590  0.2226  0.3304
   42MOL   C17022392   2.629   4.168   2.047  0.3479 -0.0946  0.3200
   42MOL   O17122393   2.549   4.077   2.070 -0.6764 -0.6954 -0.0065
   42MOL   C17222394   2.770   4.173   2.105 -0.1106 -0.0284  0.7615
   42MOL   C17322395   2.790   4.080   2.224 -0.2447 -0.2972  0.7793
   42MOL   C17422396   2.871   4.148   1.991 -0.4519  0.3828  0.0187
   42MOL   H17522397   2.101   4.630   1.709  0.1674 -0.9376  0.9061
   42MOL   H17622398   2.150   4.519   1.577 -0.6824  1.6658 -1.2022
   42MOL   H17722399   2.173   4.682   1.558  2.0114  1.6339  1.1830
   42MOL   H17822400   2.360   4.672   1.749  0.5118  1.0858 -1.0266
   42MOL   H17922401   2.372   4.558   1.609 -0.2940 -0.7807  0.3333
   42MOL   H18022402   2.246   4.461   1.854 -1.9627 -2.4197 -1.3329
   42MOL   H18122403   2.304   4.382   1.709 -1.3401 -0.1539 -0.1758
   42MOL   H18222404   2.518   4.509   1.897  2.2297 -0.4355 -1.2401
   42MOL   H18322405   2.537   4.425   1.757 -0.8591  0.7414 -0.5596
   42MOL   H18422406   2.441   4.223   1.851 -1.1653  0.1041  0.8016
   42MOL   H18522407   2.394   4.304   2.000  1.4310  0.9807  1.1959
   42MOL   H18622408   2.728   4.109   2.309 -1.5062 -0.7194  0.0199
   42MOL   H18722409   2.895   4.076   2.251 -0.8604  0.7287  3.5620
   42MOL   H18822410   2.748   3.980   2.211 -1.6921  0.4942 -0.7299
   42MOL   H18922411   2.862   4.240   1.933  0.0236  0.2426 -0.2860
   42MOL   H19022412   2.970   4.155   2.037  0.1683  2.7108 -1.5324
   42MOL   C19122413   2.411   3.564   1.641  0.4432  0.4871  0.0697
   42MOL   C19222414   2.427   3.715   1.611  0.6890  0.0975  0.3137
   42MOL   C19322415   2.577   3.745   1.620  0.0129 -0.8266 -0.2475
   42MOL   C19422416   2.606   3.877   1.546  0.0842 -0.2877  0.0544
   42MOL   C19522417   2.742   3.934   1.565 -0.3212  0.9738 -0.3601
   42MOL   O19622418   2.798   3.924   1.693  0.0126  0.5706  0.3908
   42MOL   C19722419   2.794   4.035   1.770 -0.3438 -0.2347  0.3537
   42MOL   O19822420   2.737   4.141   1.734  0.4247 -0.0624  0.1550
   42MOL   C19922421   2.878   4.017   1.898 -0.2364  0.1315  0.3381
   42MOL   C20022422   2.840   3.895   1.982  0.1827 -0.2981 -0.0122
   42MOL   C20122423   3.031   3.976   1.859  0.4171 -0.5211  0.3591
   42MOL   H20222424   2.308   3.532   1.651  0.8654 -1.5619 -1.9056
   42MOL   H20322425   2.464   3.503   1.569 -1.0125 -1.9823  1.0348
   42MOL   H20422426   2.461   3.536   1.734  2.8755 -1.1809 -1.6759
   42MOL   H20522427   2.373   3.767   1.689  0.0005  0.3805 -0.3413
   42MOL   H20622428   2.365   3.736   1.524  0.0289 -1.1091  0.4743
   42MOL   H20722429   2.647   3.674   1.574 -0.1502 -0.6791 -0.7308
   42MOL   H20822430   2.611   3.756   1.723 -0.4042 -1.2897 -0.0583
   42MOL   H20922431   2.584   3.880   1.440  0.6917  0.2740 -0.0526
   42MOL   H21022432   2.537   3.947   1.593  1.0975 -0.6309  2.1518
   42MOL   H21122433   2.805   3.869   1.505 -1.4617  0.8459 -1.4503
   42MOL   H21222434   2.748   4.036   1.526  0.0665  1.2515  0.4121
   42MOL   H21322435   2.900   3.881   2.071  0.4793  1.8067  0.1274
   42MOL   H21422436   2.859   3.801   1.929 -0.8867  0.2594 -1.4169
   42MOL   H21522437   2.737   3.896   2.017  0.6735  1.2127  1.4282
   42MOL   H21622438   3.032   3.870   1.833  2.1374 -0.5571  0.5217
   42MOL   H21722439   3.075   3.983   1.958  0.0049  1.0790  0.4490
   42MOL   C21822440   3.271   4.596   1.339 -0.0417  0.2983  0.1042
   42MOL   C21922441   3.258   4.610   1.495  0.7338 -0.4809 -0.0052
   42MOL   C22022442   3.152   4.520   1.553 -0.4274  0.0463 -0.0294
   42MOL   C22122443   3.129   4.513   1.707 -0.1630  0.5991 -0.1081
   42MOL   C22222444   3.014   4.428   1.756  0.3506 -0.3903  0.5706
   42MOL   O22322445   3.033   4.288   1.720 -0.5653 -0.0211  0.6307
   42MOL   C22422446   3.113   4.208   1.801  0.1975 -0.1910  0.0371
   42MOL   O22522447   3.168   4.255   1.899  0.0087 -0.3553  0.0405
   42MOL   C22622448   3.128   4.058   1.763  0.1787  0.0018  0.9800
   42MOL   C22722449   3.084   4.048   1.612 -0.1909  0.3987 -0.4060
   42MOL   C22822450   3.278   4.023   1.778  0.0153  0.1529  0.1168
   42MOL   H22922451   3.176   4.593   1.286 -0.9728  1.5444  1.6680
   42MOL   H23022452   3.339   4.672   1.300  1.7320 -1.5380 -0.4790
   42MOL   H23122453   3.313   4.501   1.306 -2.6746 -2.1045  3.2577
   42MOL   H23222454   3.229   4.715   1.503 -2.8091 -1.3380 -0.7486
   42MOL   H23322455   3.350   4.586   1.547  0.1451 -1.9429  0.3809
   42MOL   H23422456   3.176   4.424   1.507 -1.5576  0.8116 -2.2867
   42MOL   H23522457   3.063   4.550   1.498 -2.0966 -2.4781  1.2167
   42MOL   H23622458   3.222   4.484   1.755 -0.9810 -0.0249  1.1165
   42MOL   H23722459   3.109   4.613   1.748 -3.5081 -0.4209  0.9514
   42MOL   H23822460   2.921   4.461   1.709  0.9336  1.0667  0.4276
   42MOL   H23922461   3.004   4.442   1.864 -3.4771 -3.3628  0.7093
   42MOL   H24022462   3.153   4.087   1.537  1.8784 -2.0272  0.1226
   42MOL   H24122463   2.984   4.087   1.599  0.9383  2.4704 -3.4032
   42MOL   H24222464   3.076   3.941   1.592  1.0512  0.2548 -0.1901
   42MOL   H24322465   3.312   4.068   1.872 -0.0109  1.6378 -0.5706
   42MOL   H24422466   3.340   4.072   1.703  1.5651 -1.9547  0.0014
   42MOL   C24522467   3.260   3.239   1.825  0.4004  0.1499 -0.2507
   42MOL   C24622468   3.199   3.357   1.737  0.2061  0.4739 -1.0029
   42MOL   C24722469   3.100   3.444   1.818 -0.3401  0.6210  0.1574
   42MOL   C24822470   3.010   3.529   1.730  0.6502  0.0822 -0.6155
   42MOL   C24922471   3.083   3.632   1.641 -0.7454  0.4998  0.0671
   42MOL   O25022472   3.171   3.701   1.722 -0.5231  0.2336  0.3248
   42MOL   C25122473   3.266   3.780   1.673 -0.0470  0.6684  0.3659
   42MOL   O25222474   3.291   3.795   1.553 -0.3438 -0.4240  0.7712
   42MOL   C25322475   3.341   3.870   1.772  0.7618  1.0251 -0.5054
   42MOL   C25422476   3.333   3.809   1.916 -0.4869 -0.2699  0.0613
   42MOL   C25522477   3.491   3.896   1.733  1.0605 -0.5944  0.5949
   42MOL   H25622478   3.172   3.185   1.862 -1.1572  1.3214 -2.1427
   42MOL   H25722479   3.315   3.175   1.755  0.7793  0.0317  0.1512
   42MOL   H25822480   3.331   3.279   1.898  0.3336  2.0646 -1.2103
   42MOL   H25922481   3.277   3.417   1.691 -0.3022  0.1660 -2.2933
   42MOL   H26022482   3.132   3.317   1.661  0.4487 -2.2337  0.1468
   42MOL   H26122483   3.137   3.505   1.900 -1.0654 -0.9295  1.6617
   42MOL   H26222484   3.041   3.367   1.866  0.9935  0.1673  1.0847
   42MOL   H26322485   2.940   3.467   1.675 -0.9481  2.3761 -1.2776
   42MOL   H26422486   2.954   3.588   1.802  1.3943 -1.0585  0.9208
   42MOL   H26522487   3.137   3.586   1.558 -2.1567 -0.1031 -0.5352
   42MOL   H26622488   3.011   3.697   1.591 -1.0468  1.3096  1.5540
   42MOL   H26722489   3.230   3.796   1.951 -0.9944 -0.5429 -1.5189
   42MOL   H26822490   3.365   3.705   1.914  1.7920  0.4009  0.4519
   42MOL   H26922491   3.388   3.856   1.998  0.9540 -1.4624 -0.2098
   42MOL   H27022492   3.481   3.930   1.630  0.9307  0.3378  0.9120
   42MOL   H27122493   3.527   3.990   1.775  0.8280 -0.0826 -0.3390
   42MOL   C27222494   4.157   3.947   1.978 -0.2983  0.8065 -0.6038
   42MOL   C27322495   4.071   3.935   2.101  0.1823  0.5642  0.2584
   42MOL   C27422496   3.918   3.951   2.057 -0.3567  0.0449 -0.0075
   42MOL   C27522497   3.819   3.852   2.130 -0.1464 -0.1886 -0.0463
   42MOL   C27622498   3.670   3.894   2.101 -0.4193  0.0182 -0.2522
   42MOL   O27722499   3.646   3.897   1.960 -0.5303  0.0172 -0.0822
   42MOL   C27822500   3.635   3.775   1.899  0.2722  0.3996  0.7477
   42MOL   O27922501   3.642   3.669   1.957  0.7208  0.1543 -0.1776
   42MOL   C28022502   3.611   3.785   1.746  0.2754  0.2373 -0.1460
   42MOL   C28122503   3.560   3.656   1.682  0.1174 -0.8328 -0.7891
   42MOL   C28222504   3.747   3.848   1.682  0.7221  0.5041  0.2494
   42MOL   H28322505   4.137   4.038   1.921 -0.8721  0.8891 -0.2670
   42MOL   H28422506   4.260   3.968   2.009  0.2459  1.4409 -2.7507
   42MOL   H28522507   4.154   3.864   1.908 -0.1141  0.5076 -0.2623
   42MOL   H28622508   4.093   3.849   2.163  1.8715  0.6655 -0.1674
   42MOL   H28722509   4.096   4.028   2.152  0.6576  0.9756 -0.7047
   42MOL   H28822510   3.888   4.055   2.069 -0.8001 -0.1349  0.4982
   42MOL   H28922511   3.899   3.939   1.951 -0.6886  1.1864 -0.0802
   42MOL   H29022512   3.842   3.747   2.109  1.8056  0.3972 -0.9478
   42MOL   H29122513   3.829   3.859   2.238 -1.4665  0.3825  0.0474
   42MOL   H29222514   3.657   3.990   2.151 -0.8534  1.7626 -3.6031
   42MOL   H29322515   3.601   3.822   2.146 -0.9684  2.5429  3.1250
   42MOL   H29422516   3.631   3.577   1.703  2.1744  0.2917 -3.2889
   42MOL   H29522517   3.474   3.618   1.737 -1.3127  0.9441 -1.7376
   42MOL   H29622518   3.528   3.664   1.578  1.1322  0.5803 -1.0137
   42MOL   H29722519   3.722   3.890   1.585  0.8020 -3.3204 -1.5170
   42MOL   H29822520   3.778   3.934   1.743  0.7815  0.0057  0.9305
   42MOL   C29922521   4.093   3.999   1.084  0.5349  0.5288 -0.7192
   42MOL   C30022522   4.153   3.858   1.129 -0.1334 -0.3747 -0.5742
   42MOL   C30122523   4.062   3.786   1.227 -0.6348 -0.2229 -0.7248
   42MOL   C30222524   4.098   3.641   1.263  0.7599 -0.1549  0.4690
   42MOL   C30322525   3.982   3.568   1.339  0.3410 -0.0504 -0.6753
   42MOL   O30422526   3.974   3.630   1.462  0.2565  0.1821  0.1802
   42MOL   C30522527   3.859   3.688   1.506 -1.2058  0.2981 -0.2841
   42MOL   O30622528   3.758   3.694   1.442  0.1879  0.7521  0.0583
   42MOL   C30722529   3.880   3.761   1.642 -0.1549  0.6946 -0.2051
   42MOL   C30822530   4.008   3.856   1.625 -0.5261  0.7188  0.6178
   42MOL   C30922531   3.922   3.676   1.766 -0.7023  0.0751  0.5215
   42MOL   H31022532   4.150   4.040   1.001  0.9477 -0.5808 -1.0024
   42MOL   H31122533   4.113   4.072   1.163  2.1146  0.8508 -1.3947
   42MOL   H31222534   3.987   3.992   1.062  0.3360 -0.1832  0.4431
   42MOL   H31322535   4.252   3.872   1.174 -1.2645  2.0580  1.2896
   42MOL   H31422536   4.173   3.794   1.043 -2.0643 -0.6692 -0.8278
   42MOL   H31522537   3.972   3.795   1.166  0.6319  0.5569 -2.5138
   42MOL   H31622538   4.045   3.849   1.314  0.0261 -1.1449  0.0864
   42MOL   H31722539   4.190   3.643   1.320  0.2439 -1.8812  1.4057
   42MOL   H31822540   4.119   3.581   1.174 -1.2526 -0.7750  0.3786
   42MOL   H31922541   3.891   3.584   1.282  0.4488  2.2276 -0.2669
   42MOL   H32022542   4.021   3.467   1.354  2.0797  0.6911 -0.0089
   42MOL   H32122543   4.038   3.892   1.723  3.3013 -0.4702 -0.0479
   42MOL   H32222544   4.096   3.810   1.579 -2.0684 -0.0164 -1.7320
   42MOL   H32322545   3.987   3.941   1.560  0.2407 -1.3973 -2.4934
   42MOL   H32422546   3.826   3.637   1.801  0.2667 -1.0596  1.9239
   42MOL   H32522547   3.949   3.739   1.850 -0.3058 -2.2279  2.1585
   42MOL   C32622548   4.680   4.006   1.519 -0.3325  0.7308 -0.3237
   42MOL   C32722549   4.551   3.926   1.560  0.0277 -0.0335  0.3078
   42MOL   C32822550   4.560   3.884   1.706  0.6294  0.1029  0.2256
   42MOL   C32922551   4.422   3.840   1.753  0.0286  0.2350 -0.2275
   42MOL   C33022552   4.371   3.702   1.699 -0.0537  0.3015  0.0542
   42MOL   O33122553   4.241   3.672   1.750  0.9599 -0.2099 -0.0674
   42MOL   C33222554   4.159   3.587   1.692 -0.1527  0.5024 -0.6377
   42MOL   O33322555   4.203   3.520   1.597  0.0298 -0.0168  0.3148
   42MOL   C33422556   4.025   3.559   1.771 -0.2746  0.2394  1.2363
   42MOL   C33522557   4.056   3.538   1.915  0.6110 -0.1773  0.4302
   42MOL   C33622558   3.949   3.432   1.717  0.3722  0.3709 -0.3156
   42MOL   H33722559   4.696   4.085   1.592 -2.6742 -1.1400  2.3633
   42MOL   H33822560   4.665   4.060   1.426  1.2522  3.1765  0.8004
   42MOL   H33922561   4.769   3.943   1.515 -2.2177 -1.9706 -2.0093
   42MOL   H34022562   4.544   3.841   1.492 -0.5298  0.9897 -0.9577
   42MOL   H34122563   4.468   3.996   1.546  0.5055  0.5316  0.2612
   42MOL   H34222564   4.611   3.961   1.764  0.2582  0.2256  0.3861
   42MOL   H34322565   4.623   3.795   1.713  1.2604  0.5456  0.2765
   42MOL   H34422566   4.354   3.925   1.742 -0.3596  0.2313  1.8622
   42MOL   H34522567   4.430   3.838   1.862  1.2656  1.5697 -0.2857
   42MOL   H34622568   4.440   3.618   1.704 -2.3129 -1.5621  0.5495
   42MOL   H34722569   4.347   3.729   1.596  0.2228 -0.5289 -0.2258
   42MOL   H34822570   3.967   3.542   1.978 -0.1057 -1.2374 -0.4846
   42MOL   H34922571   4.121   3.617   1.953  1.9782 -0.0610 -2.0427
   42MOL   H35022572   4.115   3.450   1.940  0.6182 -0.4336 -0.4913
   42MOL   H35122573   3.932   3.444   1.610 -0.2011  2.0412 -0.0520
   42MOL   H35222574   3.847   3.442   1.755  0.4185  0.1360 -0.1310
   42MOL   C35322575   4.287   2.641   2.067  0.2698 -0.0289 -0.2395
   42MOL   C35422576   4.285   2.734   1.946 -1.2530  0.1295  0.6273
   42MOL   C35522577   4.168   2.828   1.932  0.3904  0.0163 -0.3858
   42MOL   C35622578   4.172   2.952   2.031 -0.2919  0.3838 -0.2128
   42MOL   C35722579   4.048   3.043   2.015  0.2388 -0.3652  0.2476
   42MOL   O35822580   4.058   3.113   1.892 -0.1397  0.6959  0.1249
   42MOL   C35922581   3.983   3.227   1.874 -0.3645 -0.0128  0.4014
   42MOL   O36022582   3.906   3.273   1.963 -0.8580 -0.2211  0.0434
   42MOL   C36122583   3.992   3.279   1.723 -0.5458  0.3345  0.4543
   42MOL   C36222584   4.140   3.252   1.680 -0.1963 -0.3169 -0.0160
   42MOL   C36322585   3.893   3.186   1.640 -0.5061  0.0102 -0.2725
   42MOL   H36422586   4.306   2.694   2.160  1.8539 -0.2435 -0.4371
   42MOL   H36522587   4.364   2.564   2.069  0.2401 -0.1510 -2.4405
   42MOL   H36622588   4.189   2.592   2.071  0.8435 -1.1286  0.5204
   42MOL   H36722589   4.373   2.799   1.954 -1.5237  0.6437 -0.4753
   42MOL   H36822590   4.309   2.677   1.856 -2.0391  0.6984  0.0506
   42MOL   H36922591   4.070   2.780   1.940 -0.7429  2.4747  1.1628
   42MOL   H37022592   4.165   2.866   1.830  1.5748  3.1399  0.6728
   42MOL   H37122593   4.266   3.004   2.011 -0.6341  1.4063  0.7897
   42MOL   H37222594   4.189   2.915   2.132 -1.7482 -0.3954 -0.2311
   42MOL   H37322595   3.953   2.989   2.020 -0.1991  0.5871  2.5587
   42MOL   H37422596   4.043   3.109   2.101  0.3862  1.0948 -0.8381
   42MOL   H37522597   4.167   3.146   1.672  1.2677  0.1633 -1.7493
   42MOL   H37622598   4.160   3.281   1.577  0.2712 -2.8018 -0.6767
   42MOL   H37722599   4.214   3.303   1.741 -0.7269  0.8520 -0.3479
   42MOL   H37822600   3.917   3.211   1.537  0.4792  1.0868  0.2192
   42MOL   H37922601   3.935   3.086   1.649 -0.2702  0.3449  2.7954
   42MOL   C38022602   3.323   2.602   1.903  0.0106  0.4755  0.1879
   42MOL   C38122603   3.300   2.725   1.995 -0.3113 -0.6564 -0.2080
   42MOL   C38222604   3.409   2.826   2.011 -0.1643  0.6192  0.6000
   42MOL   C38322605   3.446   2.903   1.878  0.2679  0.8668  0.0078
   42MOL   C38422606   3.526   3.027   1.920  0.2167  0.0962  0.1801
   42MOL   O38522607   3.576   3.103   1.816  0.0067  0.2227  0.4363
   42MOL   C38622608   3.702   3.088   1.779  0.0519 -0.6014  0.0215
   42MOL   O38722609   3.784   3.014   1.832  0.1553 -0.6074 -0.1350
   42MOL   C38822610   3.741   3.166   1.656 -0.8485  0.4512  0.1618
   42MOL   C38922611   3.667   3.303   1.653 -0.0444  0.2396 -0.1750
   42MOL   C39022612   3.682   3.075   1.541 -0.3146  0.3148 -0.0517
   42MOL   H39122613   3.371   2.617   1.806  0.8839  0.1934  0.5753
   42MOL   H39222614   3.378   2.530   1.963  1.4376  1.7778  0.4895
   42MOL   H39322615   3.230   2.562   1.865  0.6679 -2.5642  1.6179
   42MOL   H39422616   3.284   2.685   2.095  1.0890 -0.8874 -0.0726
   42MOL   H39522617   3.204   2.766   1.962 -0.7311 -1.8224 -0.4469
   42MOL   H39622618   3.389   2.897   2.091 -0.2279  1.5699 -0.2436
   42MOL   H39722619   3.497   2.776   2.049 -0.8619 -2.1246 -1.2787
   42MOL   H39822620   3.508   2.844   1.811  1.2588  2.1072 -0.1784
   42MOL   H39922621   3.351   2.923   1.827 -0.3515  0.5078  0.9971
   42MOL   H40022622   3.605   3.002   1.991  0.8828  2.7498  0.4137
   42MOL   H40122623   3.469   3.100   1.977 -0.3984 -0.8437  0.7967
   42MOL   H40222624   3.563   3.309   1.620 -0.5411 -0.6483  1.2158
   42MOL   H40322625   3.726   3.374   1.595  1.0869  2.8610  3.9917
   42MOL   H40422626   3.669   3.343   1.754 -1.1954  0.7921 -0.3539
   42MOL   H40522627   3.574   3.077   1.560  0.2041 -1.2993  3.5065
   42MOL   H40622628   3.706   2.971   1.564  3.2708  0.6729 -1.8657
   42MOL   C40722629   3.171   3.283   1.177 -0.5144 -0.6948  0.2651
   42MOL   C40822630   3.185   3.386   1.287  0.7643 -0.9169  0.0016
   42MOL   C40922631   3.320   3.395   1.354  0.3332  0.0938  0.1992
   42MOL   C41022632   3.439   3.440   1.255 -0.8223  1.1231 -0.1986
   42MOL   C41122633   3.580   3.435   1.321 -0.0700 -0.4660 -0.0325
   42MOL   O41222634   3.597   3.301   1.357 -0.5291 -0.3478 -0.8808
   42MOL   C41322635   3.714   3.239   1.343  0.1241  0.1038  0.0100
   42MOL   O41422636   3.820   3.299   1.312 -0.0394  0.1887 -0.5107
   42MOL   C41522637   3.705   3.091   1.381  0.4184 -0.7007 -0.0277
   42MOL   C41622638   3.845   3.027   1.350  0.3050  0.0582  0.9253
   42MOL   C41722639   3.582   3.016   1.310 -0.2225 -0.3380 -0.7210
   42MOL   H41822640   3.064   3.272   1.158 -0.3897 -0.5012 -0.5971
   42MOL   H41922641   3.230   3.314   1.090 -0.4720 -0.6869  0.2972
   42MOL   H42022642   3.211   3.187   1.209  2.0598  0.7352  1.4656
   42MOL   H42122643   3.101   3.372   1.356 -0.9933 -1.6435 -2.2309
   42MOL   H42222644   3.157   3.482   1.244 -0.9026  0.2597  3.4909
   42MOL   H42322645   3.315   3.464   1.438 -0.7702  0.0664  0.1623
   42MOL   H42422646   3.325   3.297   1.401  0.6170 -0.5559 -1.1746
   42MOL   H42522647   3.413   3.542   1.229  0.2640  1.8649  1.5506
   42MOL   H42622648   3.454   3.387   1.161  3.5511  1.2705  0.2879
   42MOL   H42722649   3.647   3.465   1.240 -0.4743 -1.7395 -0.8575
   42MOL   H42822650   3.587   3.500   1.408 -2.3704 -0.2011 -0.0162
   42MOL   H42922651   3.849   2.919   1.364 -0.9832 -0.5146 -2.5428
   42MOL   H43022652   3.930   3.069   1.404  0.4744  0.8649  0.0630
   42MOL   H43122653   3.871   3.035   1.244  2.0900  1.5960  1.4380
   42MOL   H43222654   3.500   3.086   1.325  1.4013  1.0692  1.9084
   42MOL   H43322655   3.556   2.936   1.380  0.1381 -0.4781 -0.7465
   42MOL   C43422656   3.982   2.716   1.584 -0.1245  0.7243  0.3838
   42MOL   C43522657   3.937   2.575   1.544  0.2334  0.5497  0.3979
   42MOL   C43622658   3.819   2.584   1.437 -0.6883  0.2568  0.1965
   42MOL   C43722659   3.871   2.619   1.304 -0.6773  0.4716 -0.2223
   42MOL   C43822660   3.762   2.637   1.205  0.2000  0.3565 -0.0932
   42MOL   O43922661   3.681   2.756   1.227  0.1406 -0.2925  0.3115
   42MOL   C44022662   3.693   2.856   1.144 -0.1575 -0.4355  0.6238
   42MOL   O44122663   3.783   2.870   1.065 -0.7819 -0.3421  0.5524
   42MOL   C44222664   3.587   2.967   1.163 -0.2895  0.4564  0.3048
   42MOL   C44322665   3.614   3.092   1.068  0.2796 -1.0290 -0.2637
   42MOL   C44422666   3.445   2.900   1.139 -0.0212  0.0603 -0.0571
   42MOL   H44522667   3.995   2.773   1.492  1.3929 -1.6966 -0.9589
   42MOL   H44622668   3.912   2.774   1.645 -0.1692 -1.9164  2.9462
   42MOL   H44722669   4.072   2.727   1.644  0.5854  1.6483 -0.8276
   42MOL   H44822670   4.021   2.528   1.494 -1.2283 -0.0229 -1.6027
   42MOL   H44922671   3.916   2.520   1.635  0.6459  1.4206  1.0227
   42MOL   H45022672   3.780   2.482   1.435  0.3848 -0.2132  2.1008
   42MOL   H45122673   3.738   2.650   1.467  0.4967  0.8965  2.0741
   42MOL   H45222674   3.930   2.533   1.273  1.4223  1.5467  0.6273
   42MOL   H45322675   3.940   2.704   1.305 -0.1355  0.0301  1.2176
   42MOL   H45422676   3.695   2.552   1.195 -1.3114  1.4001  0.8810
   42MOL   H45522677   3.804   2.626   1.105  1.9149 -1.5197  0.8089
   42MOL   H45622678   3.604   3.074   0.961 -0.0796 -0.2579 -0.3634
   42MOL   H45722679   3.548   3.174   1.094  1.4456 -0.0901 -0.2229
   42MOL   H45822680   3.719   3.120   1.078 -0.8215  3.2359  0.1536
   42MOL   H45922681   3.366   2.961   1.183 -0.0367  0.4571 -0.6143
   42MOL   H46022682   3.440   2.813   1.203 -1.5038 -0.1986 -0.5052
   42MOL   C46122683   3.590   3.253   0.380 -0.0970 -0.5309  0.7716
   42MOL   C46222684   3.676   3.159   0.467 -0.8749  0.8421 -0.4701
   42MOL   C46322685   3.587   3.058   0.544  0.0116  0.2442  0.1923
   42MOL   C46422686   3.660   2.950   0.629  0.0735  0.2031  0.1714
   42MOL   C46522687   3.562   2.839   0.675 -0.1219  0.6630 -0.4077
   42MOL   O46622688   3.490   2.885   0.791 -0.0180 -1.0756 -0.5320
   42MOL   C46722689   3.471   2.811   0.898  0.3651  0.9183  0.3711
   42MOL   O46822690   3.528   2.707   0.916  0.9140 -0.0549 -0.2734
   42MOL   C46922691   3.369   2.865   1.001  0.1461 -0.2249 -0.0460
   42MOL   C47022692   3.305   2.998   0.958  0.1533  0.2181  0.7567
   42MOL   C47122693   3.256   2.758   1.034 -0.0015 -0.1407  0.3440
   42MOL   H47222694   3.545   3.203   0.294 -0.1939  1.8505 -0.6025
   42MOL   H47322695   3.665   3.321   0.340  0.7031 -1.4617  0.6581
   42MOL   H47422696   3.520   3.314   0.436  1.9734  0.2505  2.5967
   42MOL   H47522697   3.748   3.217   0.524  0.1333 -0.8478 -0.0046
   42MOL   H47622698   3.739   3.097   0.403  0.1873 -0.5067  1.8297
   42MOL   H47722699   3.525   2.997   0.479 -1.4349 -2.0285  3.5661
   42MOL   H47822700   3.506   3.108   0.598 -0.7948 -1.5757  0.7136
   42MOL   H47922701   3.730   2.985   0.705  0.0425 -1.2379  0.8834
   42MOL   H48022702   3.727   2.904   0.556  2.0154  0.7415  1.5614
   42MOL   H48122703   3.487   2.811   0.602  2.4407  0.3069 -2.9816
   42MOL   H48222704   3.626   2.754   0.697 -1.2010 -0.5125 -1.7813
   42MOL   H48322705   3.224   3.038   1.020 -0.8150 -0.9649  0.2828
   42MOL   H48422706   3.289   3.017   0.852 -0.9805  1.8393  1.1963
   42MOL   H48522707   3.379   3.078   0.956 -0.6097  0.9067 -0.1536
   42MOL   H48622708   3.194   2.811   1.107 -1.6975  0.1776 -1.2890
   42MOL   H48722709   3.298   2.681   1.098  0.6327 -1.6587 -1.8809
   42MOL   C48822710   3.786   2.325   1.022 -0.1149  0.2821  0.0251
   42MOL   C48922711   3.663   2.319   0.937  0.0894  0.4296  0.0926
   42MOL   C49022712   3.539   2.308   1.025  0.1786  0.6216 -0.8064
   42MOL   C49122713   3.403   2.275   0.959 -0.4750  0.6851  0.0548
   42MOL   C49222714   3.333   2.370   0.859 -0.3958 -0.0177 -0.1911
   42MOL   O49322715   3.282   2.482   0.925 -0.4629  0.0644 -0.5255
   42MOL   C49422716   3.247   2.587   0.854 -0.7128 -0.0988 -0.5209
   42MOL   O49522717   3.259   2.596   0.734  0.0513 -0.0396 -0.2983
   42MOL   C49622718   3.164   2.695   0.928 -0.2366  0.0971  0.0651
   42MOL   C49722719   3.113   2.803   0.821 -0.5809 -0.6453  0.2283
   42MOL   C49822720   3.046   2.632   1.007 -0.7978  0.3476 -0.0880
   42MOL   H49922721   3.797   2.243   1.093  1.5838  1.2056  0.8963
   42MOL   H50022722   3.876   2.326   0.960 -1.1237 -0.0174 -1.4611
   42MOL   H50122723   3.801   2.420   1.075  1.5001  0.5174 -0.8204
   42MOL   H50222724   3.662   2.232   0.872  1.6083  0.9927 -0.7104
   42MOL   H50322725   3.658   2.408   0.875  0.6235 -1.2074 -2.3543
   42MOL   H50422726   3.552   2.229   1.099 -1.7534  1.0251 -0.0125
   42MOL   H50522727   3.549   2.388   1.099  3.1899 -0.7199  0.3440
   42MOL   H50622728   3.330   2.257   1.039  0.0219  0.8732  0.5512
   42MOL   H50722729   3.406   2.174   0.917  0.7871  0.9515 -0.5151
   42MOL   H50822730   3.405   2.401   0.783  0.1294 -1.5185 -0.3198
   42MOL   H50922731   3.241   2.327   0.819 -1.4409  0.7057  1.3703
   42MOL   H51022732   3.033   2.769   0.754 -0.2013  0.4314 -0.7882
   42MOL   H51122733   3.198   2.834   0.761 -0.4575  0.1971  0.8377
   42MOL   H51222734   3.077   2.893   0.870  2.0464 -1.3272  3.6400
   42MOL   H51322735   2.999   2.714   1.061  0.7443  2.5243 -1.9571
   42MOL   H51422736   3.100   2.582   1.088 -0.9839 -0.0110 -0.1858
   42MOL   C51522737   2.670   2.635   0.316 -0.2939 -0.2039  0.5103
   42MOL   C51622738   2.618   2.707   0.443 -1.2868 -0.4426  0.6116
   42MOL   C51722739   2.643   2.628   0.569 -0.1961  0.9260 -0.4287
   42MOL   C51822740   2.602   2.698   0.697  0.2953  0.2700  0.0037
   42MOL   C51922741   2.592   2.605   0.818 -0.3422 -0.5743 -0.0365
   42MOL   O52022742   2.722   2.548   0.843 -0.2399  0.1208  0.1960
   42MOL   C52122743   2.818   2.624   0.900 -0.2906 -0.0610  0.1581
   42MOL   O52222744   2.816   2.747   0.919 -0.1179  0.4535 -0.2112
   42MOL   C52322745   2.937   2.542   0.953 -0.0966  0.0376  0.6354
   42MOL   C52422746   2.879   2.452   1.069 -0.2374  0.2905  0.2974
   42MOL   C52522747   2.980   2.441   0.844  1.0415  0.3234  0.0539
   42MOL   H52622748   2.635   2.675   0.222 -1.5522  0.1659  1.1282
   42MOL   H52722749   2.778   2.619   0.325  0.0692  1.6657 -0.2310
   42MOL   H52822750   2.609   2.545   0.316 -1.4589  0.5770 -1.2074
   42MOL   H52922751   2.657   2.808   0.454 -1.2937 -0.4687  0.8749
   42MOL   H53022752   2.510   2.717   0.431 -1.2731 -1.3904 -0.3589
   42MOL   H53122753   2.605   2.526   0.559  0.1420  0.6134  1.2024
   42MOL   H53222754   2.751   2.618   0.572 -0.2948 -1.5985 -2.8475
   42MOL   H53322755   2.502   2.735   0.674  0.3692 -0.0479 -0.8433
   42MOL   H53422756   2.664   2.786   0.714  0.6670  0.1311 -0.6087
   42MOL   H53522757   2.550   2.669   0.895  0.8545 -0.3913  0.4786
   42MOL   H53622758   2.518   2.527   0.797 -0.1926 -0.6292 -0.3676
   42MOL   H53722759   2.818   2.495   1.148 -0.3731 -2.9862  2.0613
   42MOL   H53822760   2.959   2.391   1.112  0.2582  0.4057 -0.4540
   42MOL   H53922761   2.808   2.380   1.029  0.0168 -0.8488  1.8673
   42MOL   H54022762   2.893   2.383   0.814  1.8807 -1.1273  0.3311
   42MOL   H54122763   3.058   2.376   0.883  1.1272 -0.2439 -1.0541
   42MOL   H54222764   3.011   2.486   0.750 -2.4393  0.1764 -1.2484
   43MOL     C122765   2.193   7.383   2.999  0.7292  0.2901  0.4641
   43MOL     C222766   2.144   7.435   3.134 -0.2829  0.0227 -0.2538
   43MOL     C322767   2.001   7.480   3.110 -1.0169 -0.0970 -0.1632
   43MOL     C422768   1.940   7.545   3.235 -0.3675 -0.1221  0.2346
   43MOL     C522769   1.809   7.618   3.211 -0.1213 -0.2868 -0.2221
   43MOL     O622770   1.837   7.734   3.130 -0.0755 -0.1345  1.2208
   43MOL     C722771   1.762   7.752   3.019  0.1918 -0.4049  0.7638
   43MOL     O822772   1.660   7.694   2.990  0.4242 -0.2718 -0.0052
   43MOL     C922773   1.808   0.056   2.933  0.7442  0.0004  0.1939
   43MOL    C1022774   1.959   0.051   2.898 -0.0795  0.0208 -0.8034
   43MOL    C1122775   1.754   0.197   2.978  0.5390 -1.0081 -0.4516
   43MOL    H1222776   2.287   7.329   3.006  0.5326  0.0636  1.4180
   43MOL    H1322777   2.194   7.468   2.930 -0.8432  0.9631  1.2466
   43MOL    H1422778   2.120   7.311   2.964  0.5350 -0.9330  3.3003
   43MOL    H1522779   2.154   7.355   3.207 -0.9516  1.2515  1.2119
   43MOL    H1622780   2.209   7.511   3.178 -0.1072 -1.2623  1.7518
   43MOL    H1722781   2.011   7.552   3.029 -0.6047 -0.5466 -0.5138
   43MOL    H1822782   1.933   7.404   3.071 -1.2963 -0.2808  0.6677
   43MOL    H1922783   2.011   7.621   3.268  3.4649 -3.5574  0.1779
   43MOL    H2022784   1.917   7.471   3.312 -1.0729  0.5509  0.6769
   43MOL    H2122785   1.722   7.559   3.182 -1.4980  1.9062 -0.7591
   43MOL    H2222786   1.757   7.654   3.300 -1.9812 -1.7991 -0.6437
   43MOL    H2322787   2.005   7.772   2.866  1.3945  0.4390  0.0164
   43MOL    H2422788   2.012   0.090   2.986  0.9121 -0.1751 -1.3060
   43MOL    H2522789   1.976   0.129   2.824 -0.4581 -0.9831 -1.9513
   43MOL    H2622790   1.834   0.270   2.966  0.8739 -1.5731 -1.6797
   43MOL    H2722791   1.745   0.203   3.087  4.1998  1.4346 -0.2092
   43MOL    H2822792   1.753   0.047   2.839  1.8262  1.1371 -0.5695
   43MOL    C2922793   1.448   0.142   2.179 -0.3862  0.4529 -0.5923
   43MOL    C3022794   1.587   0.081   2.205 -0.0576 -0.1063  0.1099
   43MOL    C3122795   1.661   0.169   2.313  0.4987  0.3271  0.5349
   43MOL    C3222796   1.613   0.165   2.459  0.3935  0.6240 -0.6687
   43MOL    C3322797   1.685   0.260   2.555  0.3021 -0.0858  0.3887
   43MOL    O3422798   1.670   0.223   2.694  0.6941 -0.2089 -0.2977
   43MOL    C3522799   1.662   0.321   2.782  0.4191 -1.4197 -0.5544
   43MOL    O3622800   1.685   0.438   2.758  0.0090  0.0869 -0.7929
   43MOL    C3722801   1.623   0.266   2.924  0.2761  0.5131  0.1285
   43MOL    C3822802   1.598   0.398   3.007  0.8615  0.0316 -0.2798
   43MOL    C3922803   1.503   0.160   2.923 -0.3557 -0.4685 -0.1925
   43MOL    H4022804   1.395   0.143   2.274  1.8735 -0.2907  0.7093
   43MOL    H4122805   1.455   0.250   2.170 -0.3666  0.4579 -0.5183
   43MOL    H4222806   1.388   0.095   2.101  1.2638 -0.0448 -1.5817
   43MOL    H4322807   1.629   0.071   2.105 -0.1118 -1.4226  0.2110
   43MOL    H4422808   1.571   7.797   2.250  0.0529 -0.5295 -0.7688
   43MOL    H4522809   1.671   0.273   2.281 -2.0392  0.9806  1.7870
   43MOL    H4622810   1.762   0.127   2.310 -0.1059 -1.2950  2.3422
   43MOL    H4722811   1.511   0.204   2.455  0.7964  1.7705 -0.0951
   43MOL    H4822812   1.619   0.064   2.501  0.2028  1.2930  1.0366
   43MOL    H4922813   1.632   0.355   2.543  0.2978 -0.2772 -1.2296
   43MOL    H5022814   1.792   0.272   2.541  0.1707  0.1364 -0.4692
   43MOL    H5122815   1.548   0.386   3.103 -2.3392 -1.3363 -2.0349
   43MOL    H5222816   1.519   0.457   2.961 -0.1731 -0.2196  1.1676
   43MOL    H5322817   1.685   0.464   3.013 -1.5486  3.5955 -2.5157
   43MOL    H5422818   1.534   0.064   2.883 -0.9742 -1.6619  2.1460
   43MOL    H5522819   1.434   0.201   2.848  0.4275  1.2728  0.0143
   43MOL    C5622820   1.041   0.159   3.706 -0.0299  0.0963  0.1165
   43MOL    C5722821   0.986   0.144   3.560  0.1918 -0.1792  0.2876
   43MOL    C5822822   1.063   0.228   3.462 -0.3446 -0.0217  0.3984
   43MOL    C5922823   1.006   0.223   3.317 -0.5871  0.7390 -0.6770
   43MOL    C6022824   1.091   0.279   3.210  0.5522 -0.7933 -0.2159
   43MOL    O6122825   1.213   0.203   3.191  0.4436  0.2591 -0.5226
   43MOL    C6222826   1.293   0.225   3.084 -0.1640 -1.0804 -0.4161
   43MOL    O6322827   1.289   0.335   3.030  0.4773  0.1744  0.7695
   43MOL    C6422828   1.403   0.123   3.050 -0.1206 -0.6939 -0.0555
   43MOL    C6522829   1.486   0.106   3.184  0.4659  0.2777  0.0937
   43MOL    C6622830   1.338   7.793   3.029 -0.8246  0.2959 -0.2249
   43MOL    H6722831   1.148   0.144   3.717  0.2558  1.4119 -0.8433
   43MOL    H6822832   0.988   0.103   3.783  0.2217 -2.7143 -1.6823
   43MOL    H6922833   1.025   0.263   3.735 -0.0075  0.6018 -1.6402
   43MOL    H7022834   0.981   0.042   3.522 -0.9677 -0.0434  0.0311
   43MOL    H7122835   0.881   0.171   3.572 -0.0939 -1.5482  0.9397
   43MOL    H7222836   1.062   0.331   3.498 -0.1837  0.3656 -0.6957
   43MOL    H7322837   1.165   0.191   3.461  0.3038  1.7348 -0.3917
   43MOL    H7422838   0.902   0.258   3.317 -1.4033 -1.6282  0.8303
   43MOL    H7522839   1.000   0.118   3.289  0.4585  0.3001  0.7021
   43MOL    H7622840   1.034   0.283   3.117 -2.6351  1.1699  1.7419
   43MOL    H7722841   1.117   0.381   3.238  1.8560 -0.9334 -0.8657
   43MOL    H7822842   1.444   0.049   3.267  0.8523  1.0427  0.8198
   43MOL    H7922843   1.526   0.198   3.226  0.9795  0.4237 -0.6968
   43MOL    H8022844   1.574   0.045   3.164  1.2208  1.1407  0.7691
   43MOL    H8122845   1.301   7.756   3.125  0.6202 -0.5789  0.0196
   43MOL    H8222846   1.423   7.726   3.018  1.9398  3.4119  0.9547
   43MOL    C8322847   1.878   7.393   2.698  0.3202 -0.1331  0.6226
   43MOL    C8422848   1.754   7.335   2.631  0.8914 -0.6501  0.1243
   43MOL    C8522849   1.665   7.445   2.570 -0.2198  0.0785 -0.8562
   43MOL    C8622850   1.608   7.537   2.679 -0.3105  0.7459 -0.4076
   43MOL    C8722851   1.479   7.621   2.644  0.1770 -0.1434 -0.7462
   43MOL    O8822852   1.402   7.650   2.767  0.9444 -0.0348 -0.1040
   43MOL    C8922853   1.320   7.755   2.772 -0.9442 -0.0086  0.5275
   43MOL    O9022854   1.310   0.026   2.681  0.2887 -0.0859 -0.3841
   43MOL    C9122855   1.231   7.765   2.902 -0.1736 -0.6836 -0.2328
   43MOL    C9222856   1.165   7.630   2.927  0.2074 -0.3365  0.0392
   43MOL    C9322857   1.126   0.066   2.892  0.7778  0.1510 -0.2808
   43MOL    H9422858   1.929   7.465   2.633 -0.4143  0.0087  0.1976
   43MOL    H9522859   1.866   7.443   2.794 -0.6923  1.9808 -0.5623
   43MOL    H9622860   1.950   7.312   2.711  1.3226  0.6084 -0.2597
   43MOL    H9722861   1.699   7.279   2.707 -1.0168 -0.4460 -1.0539
   43MOL    H9822862   1.791   7.268   2.553  0.3032 -0.2440 -0.5164
   43MOL    H9922863   1.589   7.394   2.511  0.6333 -1.2993 -0.7585
   43MOL   H10022864   1.720   7.497   2.492 -0.3759  2.6518  0.6769
   43MOL   H10122865   1.678   7.610   2.720 -1.6033  1.4725  0.5511
   43MOL   H10222866   1.571   7.476   2.762 -0.4979 -0.5057 -1.4021
   43MOL   H10322867   1.416   7.571   2.570 -0.5796 -1.0649  0.4895
   43MOL   H10422868   1.521   7.709   2.597 -0.1939  0.5371  0.1704
   43MOL   H10522869   1.110   7.587   2.843  1.2883 -0.9800 -0.3377
   43MOL   H10622870   1.092   7.635   3.008  0.5691  0.7785  0.3113
   43MOL   H10722871   1.242   7.561   2.959 -0.9148 -1.3252  0.6595
   43MOL   H10822872   1.102   0.102   2.992  0.0109  2.0171 -1.0984
   43MOL   H10922873   1.177   0.153   2.849 -1.1973  0.9744 -1.0351
   43MOL   C11022874   0.301   7.775   2.871  0.2598  0.1073 -0.0118
   43MOL   C11122875   0.405   7.684   2.804  0.4800 -0.7599 -0.0219
   43MOL   C11222876   0.540   7.672   2.878 -0.1703 -0.1428 -0.2010
   43MOL   C11322877   0.628   7.558   2.832 -0.3171 -0.0693  0.6379
   43MOL   C11422878   0.767   7.568   2.898  0.3193  0.0286 -0.1324
   43MOL   O11522879   0.841   7.670   2.830 -0.2622  0.3387 -0.6892
   43MOL   C11622880   0.887   7.792   2.894 -0.2246 -0.8316  0.9271
   43MOL   O11722881   0.854   0.019   3.006  0.1916 -0.8690 -0.3086
   43MOL   C11822882   0.987   0.063   2.814 -0.4846  0.3940  0.3096
   43MOL   C11922883   0.999   0.010   2.673  0.2922  0.1822  0.0073
   43MOL   C12022884   0.937   0.214   2.811 -0.5420  0.2286 -0.0474
   43MOL   H12122885   0.287   7.741   2.973 -0.6296  0.9022  0.1347
   43MOL   H12222886   0.335   0.064   2.883  0.7436 -0.3639  2.8148
   43MOL   H12322887   0.203   7.769   2.824 -0.1360  0.2388  0.8062
   43MOL   H12422888   0.344   7.594   2.796  1.1553 -1.0150 -2.5863
   43MOL   H12522889   0.422   7.718   2.702 -0.1622 -1.8459 -0.5011
   43MOL   H12622890   0.584   7.772   2.885 -3.0298  1.1829 -0.2482
   43MOL   H12722891   0.511   7.641   2.979 -1.8341  2.3658  0.1587
   43MOL   H12822892   0.649   7.559   2.725 -2.2341 -0.4201  0.2382
   43MOL   H12922893   0.579   7.461   2.844 -0.0661 -0.2448  0.2284
   43MOL   H13022894   0.755   7.595   3.003 -2.4513 -1.8916  0.1006
   43MOL   H13122895   0.817   7.472   2.887 -1.2148 -0.8952  0.8183
   43MOL   H13222896   0.901   7.808   2.628 -1.1797  0.5545  2.9495
   43MOL   H13322897   1.058   0.070   2.604  1.0259 -1.7702 -1.1031
   43MOL   H13422898   1.045   7.726   2.665 -1.0795 -0.4519 -0.3304
   43MOL   H13522899   0.925   0.244   2.915  1.3446 -0.3093  0.3332
   43MOL   H13622900   1.018   0.274   2.770  0.8793 -2.3179 -1.0813
   43MOL   C13722901   1.171   0.738   2.263 -0.0716  0.4828  0.2342
   43MOL   C13822902   1.239   0.603   2.220 -0.6473 -0.5816  0.1042
   43MOL   C13922903   1.141   0.480   2.229  0.4500 -0.6393  0.0148
   43MOL   C14022904   1.074   0.461   2.373  0.2631 -0.0587  0.7480
   43MOL   C14122905   0.996   0.331   2.390 -0.4290  0.0250  0.4336
   43MOL   O14222906   0.949   0.342   2.526  0.1475  0.3303 -0.0908
   43MOL   C14322907   0.850   0.268   2.573  0.5940  0.1084  0.5293
   43MOL   O14422908   0.778   0.195   2.505  0.3236  0.4447  0.1422
   43MOL   C14522909   0.817   0.269   2.723  0.4614  0.2158 -0.0016
   43MOL   C14622910   0.684   0.189   2.765  0.2535  0.0744  0.4571
   43MOL   C14722911   0.797   0.416   2.773 -0.2295 -0.3585 -1.5820
   43MOL   H14822912   1.246   0.811   2.294 -0.4271  0.7801  0.3929
   43MOL   H14922913   1.090   0.731   2.336 -1.5231  1.0901 -1.2990
   43MOL   H15022914   1.118   0.768   2.173  1.1379  0.0337 -0.6400
   43MOL   H15122915   1.319   0.574   2.288 -1.9173 -0.7507  1.5556
   43MOL   H15222916   1.283   0.614   2.121 -0.1066 -1.5009  0.2373
   43MOL   H15322917   1.070   0.490   2.147 -0.1098  0.2305  0.5946
   43MOL   H15422918   1.200   0.391   2.206  1.6263 -0.0809  0.7784
   43MOL   H15522919   1.154   0.465   2.447 -0.2003  0.4212  1.2208
   43MOL   H15622920   1.010   0.544   2.403  0.2873  0.6872 -1.2079
   43MOL   H15722921   1.057   0.242   2.377  1.4671  0.8118  3.4328
   43MOL   H15822922   0.916   0.343   2.317 -1.3171 -0.4033  1.3194
   43MOL   H15922923   0.686   0.170   2.872 -3.2872  0.3201  0.6410
   43MOL   H16022924   0.704   0.096   2.712 -0.5428 -0.6016  1.3360
   43MOL   H16122925   0.591   0.233   2.727  1.6368  0.6914 -2.3260
   43MOL   H16222926   0.820   0.423   2.880 -1.3192 -4.1967 -1.0050
   43MOL   H16322927   0.876   0.469   2.721 -0.6288  1.3357 -0.4838
   43MOL   C16422928   0.583   0.109   3.438 -0.2338  0.6902  0.0106
   43MOL   C16522929   0.451   0.151   3.379  0.9306 -0.0692 -0.0637
   43MOL   C16622930   0.453   0.280   3.292 -0.3019 -0.5008  0.0561
   43MOL   C16722931   0.536   0.277   3.164  0.3756  0.7100  0.8621
   43MOL   C16822932   0.495   0.390   3.062 -0.4836 -0.3398 -0.0720
   43MOL   O16922933   0.592   0.409   2.957 -0.8003  0.1708  0.1276
   43MOL   C17022934   0.560   0.485   2.849  0.1175  0.1311  0.6628
   43MOL   O17122935   0.448   0.528   2.829 -0.3603  0.0518  0.1326
   43MOL   C17222936   0.674   0.504   2.746 -0.0618 -0.0146 -0.1922
   43MOL   C17322937   0.627   0.476   2.595 -0.0042 -0.0823  0.5411
   43MOL   C17422938   0.723   0.652   2.747 -0.3785 -0.5181 -0.2217
   43MOL   H17522939   0.649   0.056   3.369 -0.5223  0.7843 -0.3434
   43MOL   H17622940   0.575   0.048   3.528  0.5391  0.4576 -0.0719
   43MOL   H17722941   0.642   0.197   3.463 -2.0478  1.2426  2.5263
   43MOL   H17822942   0.384   0.160   3.465  0.0383 -0.2028 -0.7438
   43MOL   H17922943   0.407   0.065   3.328 -1.5665  1.1945 -0.1049
   43MOL   H18022944   0.349   0.301   3.264 -0.2942 -1.9883 -1.1500
   43MOL   H18122945   0.474   0.374   3.343 -0.8370 -0.9569  1.1303
   43MOL   H18222946   0.540   0.179   3.116  1.8305  1.1566  0.0306
   43MOL   H18322947   0.640   0.295   3.193  0.0241  2.1937  1.2674
   43MOL   H18422948   0.488   0.483   3.118  2.5985 -0.1195  0.0251
   43MOL   H18522949   0.400   0.371   3.011 -0.4091 -1.6595  0.2506
   43MOL   H18622950   0.594   0.377   2.567 -2.9623  1.3412 -1.1865
   43MOL   H18722951   0.706   0.502   2.524 -1.2194 -1.6333 -1.4013
   43MOL   H18822952   0.542   0.536   2.565  0.5379  0.9717  1.0689
   43MOL   H18922953   0.805   0.653   2.676  0.2140  1.5592  0.4782
   43MOL   H19022954   0.644   0.702   2.691 -0.3307 -3.4104 -3.0319
   43MOL   C19122955   1.183   1.259   3.008  0.4344  0.2274  0.4625
   43MOL   C19222956   1.162   1.143   3.120 -0.3353  0.4538  0.9848
   43MOL   C19322957   1.132   1.010   3.055 -0.5033  0.6574 -0.0722
   43MOL   C19422958   1.123   0.891   3.156  0.1345 -0.1966  0.1460
   43MOL   C19522959   1.075   0.758   3.099  0.0829  0.0519  0.7616
   43MOL   O19622960   0.940   0.764   3.047 -0.0689  0.6691  0.0745
   43MOL   C19722961   0.914   0.701   2.923  0.8190 -0.2553  0.0322
   43MOL   O19822962   0.994   0.638   2.850  0.0267  0.5327  0.0204
   43MOL   C19922963   0.771   0.739   2.871 -0.2092  0.5083 -0.0977
   43MOL   C20022964   0.674   0.737   2.990  0.6584 -0.3162 -0.0035
   43MOL   C20122965   0.770   0.893   2.832  0.2428  0.3145 -0.9109
   43MOL   H20222966   1.177   1.355   3.060 -0.5114 -1.0654  2.8503
   43MOL   H20322967   1.278   1.249   2.956  1.3146 -0.3860  2.1458
   43MOL   H20422968   1.103   1.263   2.934 -0.1762  0.9089  1.1575
   43MOL   H20522969   1.081   1.163   3.190 -1.1226 -0.0941  0.2453
   43MOL   H20622970   1.259   1.134   3.169  0.4627  1.9898 -0.2463
   43MOL   H20722971   1.211   0.990   2.983 -0.6306 -1.1699  0.2827
   43MOL   H20822972   1.051   1.020   2.983  0.7712 -0.8321 -1.7519
   43MOL   H20922973   1.223   0.868   3.193 -0.0055 -1.3221 -0.1765
   43MOL   H21022974   1.068   0.921   3.245  2.4511 -1.2086  1.9586
   43MOL   H21122975   1.146   0.714   3.029  2.0696  1.0321  2.1436
   43MOL   H21222976   1.065   0.692   3.185 -0.9313  2.1057  2.2854
   43MOL   H21322977   0.699   0.817   3.060  0.2409  1.2010 -1.5541
   43MOL   H21422978   0.682   0.648   3.053 -2.8547 -0.1400  0.8155
   43MOL   H21522979   0.569   0.743   2.961  1.0929  2.6777 -1.1558
   43MOL   H21622980   0.814   0.940   2.919  0.9892 -0.1872 -1.0032
   43MOL   H21722981   0.667   0.927   2.835  0.9013  2.2851 -0.4921
   43MOL   C21822982   0.651   0.531   2.000 -0.1000 -0.1406  0.2434
   43MOL   C21922983   0.674   0.576   2.146  0.0239  0.1403 -0.1666
   43MOL   C22022984   0.685   0.725   2.168 -0.0897 -0.7861  0.5444
   43MOL   C22122985   0.753   0.762   2.299 -0.1197  0.1321  0.1576
   43MOL   C22222986   0.751   0.909   2.337  0.0239  0.2496 -0.7231
   43MOL   O22322987   0.819   0.943   2.452  0.0639  0.5347 -0.6880
   43MOL   C22422988   0.752   0.942   2.572  0.4446 -0.1244 -0.6514
   43MOL   O22522989   0.632   0.935   2.585 -0.1690  0.2333 -0.2613
   43MOL   C22622990   0.836   0.951   2.702 -0.0494 -0.9944  0.0200
   43MOL   C22722991   0.969   0.885   2.679 -0.8348  0.2089 -0.1466
   43MOL   C22822992   0.872   1.101   2.721  0.5980  1.1981 -0.3096
   43MOL   H22922993   0.643   0.423   1.987  0.6852 -0.4504  2.1361
   43MOL   H23022994   0.559   0.563   1.952  1.1635 -1.3143 -3.0856
   43MOL   H23122995   0.733   0.562   1.935  0.0403  2.4394  1.5707
   43MOL   H23222996   0.760   0.523   2.187  0.4428 -0.2076 -1.4689
   43MOL   H23322997   0.586   0.556   2.207  0.5691  0.0371  0.5964
   43MOL   H23422998   0.584   0.765   2.169  0.4363  0.5266  1.4206
   43MOL   H23522999   0.741   0.776   2.090 -2.0870 -0.3041 -0.6056
   43MOL   H23623000   0.711   0.708   2.384 -2.1584  1.6768  0.1786
   43MOL   H23723001   0.858   0.733   2.301  0.2071  1.3529  1.4420
   43MOL   H23823002   0.647   0.942   2.341 -0.2223 -0.5886 -0.1571
   43MOL   H23923003   0.799   0.966   2.257 -1.1784  0.8056 -1.0597
   43MOL   H24023004   1.026   0.872   2.771  0.6287 -1.0514 -1.2067
   43MOL   H24123005   1.032   0.938   2.609 -0.5933 -0.1527 -0.2061
   43MOL   H24223006   0.957   0.785   2.637  1.0545 -0.9065  1.8542
   43MOL   H24323007   0.931   1.134   2.636  1.1867  1.2493  0.1197
   43MOL   H24423008   0.932   1.107   2.811 -0.2840  1.0688  0.2942
   43MOL   C24523009   0.976   1.495   3.376  0.3944 -0.2670 -0.0584
   43MOL   C24623010   0.835   1.451   3.338  0.0852  0.3610  0.4597
   43MOL   C24723011   0.832   1.325   3.237  0.4417  0.2198  0.2912
   43MOL   C24823012   0.692   1.262   3.217  0.3649 -0.0016  0.4964
   43MOL   C24923013   0.677   1.142   3.115  0.2951 -0.2314 -0.2275
   43MOL   O25023014   0.743   1.167   2.985 -0.5400  0.5963 -0.2281
   43MOL   C25123015   0.677   1.186   2.875  0.4384 -0.2306  0.2379
   43MOL   O25223016   0.553   1.184   2.866  0.2053 -0.4488  0.5079
   43MOL   C25323017   0.763   1.213   2.755 -0.7426 -0.2668  0.2244
   43MOL   C25423018   0.679   1.240   2.629 -0.5583 -0.4991 -0.0940
   43MOL   C25523019   0.854   1.339   2.784  0.7631  0.6779  0.0793
   43MOL   H25623020   0.975   1.567   3.457  3.9779  0.7447 -0.8637
   43MOL   H25723021   1.048   1.416   3.398  1.1587  0.0574 -1.3272
   43MOL   H25823022   1.029   1.541   3.293  0.0026  0.7109  0.2356
   43MOL   H25923023   0.791   1.438   3.436 -0.1792  0.3080  0.3341
   43MOL   H26023024   0.778   1.533   3.293 -2.9520 -1.6445  0.5027
   43MOL   H26123025   0.903   1.252   3.276  0.1806 -0.3636 -0.3275
   43MOL   H26223026   0.866   1.367   3.142  0.3714  0.5778  0.4227
   43MOL   H26323027   0.658   1.247   3.320 -1.3210 -0.1948 -0.0885
   43MOL   H26423028   0.620   1.336   3.182  1.5724  1.1213  0.3145
   43MOL   H26523029   0.728   1.055   3.157 -1.3408 -0.2439  1.8225
   43MOL   H26623030   0.577   1.100   3.115  0.4909 -0.7492  1.4200
   43MOL   H26723031   0.735   1.229   2.536 -0.4177  1.5252 -0.2685
   43MOL   H26823032   0.597   1.170   2.619 -0.7869  0.0819 -2.5696
   43MOL   H26923033   0.642   1.343   2.625 -0.4642 -0.3554  2.0878
   43MOL   H27023034   0.896   1.323   2.883  0.5373 -1.2045 -0.1056
   43MOL   H27123035   0.948   1.345   2.729  1.2818  0.1795  0.8934
   43MOL   C27223036   1.126   1.104   2.339 -0.2755  0.0027 -0.1979
   43MOL   C27323037   1.125   1.260   2.303  0.5170  0.1081 -0.3152
   43MOL   C27423038   1.012   1.327   2.382 -0.6698  0.0924 -0.5600
   43MOL   C27523039   1.021   1.483   2.378  0.0146  0.4293 -0.1478
   43MOL   C27623040   0.905   1.553   2.438  0.4045 -0.0009 -0.1931
   43MOL   O27723041   0.903   1.511   2.572  0.3640  0.3263  0.0767
   43MOL   C27823042   0.793   1.540   2.642 -0.0207  0.5034 -0.0374
   43MOL   O27923043   0.696   1.597   2.589 -0.5590  0.9603  0.0549
   43MOL   C28023044   0.804   1.489   2.786 -0.1966  0.7075  0.1974
   43MOL   C28123045   0.661   1.502   2.858  0.0059  0.6364  0.0981
   43MOL   C28223046   0.917   1.570   2.864  0.6754 -0.2747 -0.5275
   43MOL   H28323047   1.125   1.106   2.448  1.5215  2.7157 -0.1894
   43MOL   H28423048   1.038   1.052   2.301 -0.6992 -0.2536  1.0978
   43MOL   H28523049   1.218   1.063   2.298  0.3018 -1.6141  2.6034
   43MOL   H28623050   1.219   1.309   2.327 -0.8572  1.8233  1.7709
   43MOL   H28723051   1.102   1.281   2.199 -2.4753  0.0379  0.2777
   43MOL   H28823052   0.917   1.284   2.351  0.8573 -2.1403 -2.2839
   43MOL   H28923053   1.029   1.301   2.487 -0.2748  2.3652 -0.0223
   43MOL   H29023054   1.113   1.514   2.428 -1.1657  1.7630  1.2604
   43MOL   H29123055   1.047   1.517   2.278 -0.8027 -1.3814 -1.0069
   43MOL   H29223056   0.811   1.534   2.386  1.8402 -1.2018 -2.3918
   43MOL   H29323057   0.922   1.660   2.429 -1.5173  0.2693 -0.9057
   43MOL   H29423058   0.658   1.476   2.964  0.4628 -1.4969 -0.3844
   43MOL   H29523059   0.623   1.604   2.854  0.5575  0.8076 -1.0408
   43MOL   H29623060   0.593   1.431   2.811  1.6366 -0.3531 -0.8143
   43MOL   H29723061   0.919   1.530   2.965 -0.7573 -0.5963 -0.6110
   43MOL   H29823062   1.011   1.533   2.824  0.8693 -0.7381  0.3516
   43MOL   C29923063   1.787   1.828   3.081  0.3617 -0.0639  0.0365
   43MOL   C30023064   1.670   1.772   2.996  0.0969 -0.2547 -0.1110
   43MOL   C30123065   1.538   1.840   3.017 -0.1838 -0.5365 -0.2718
   43MOL   C30223066   1.416   1.764   2.955  0.1005  0.4676  0.6615
   43MOL   C30323067   1.292   1.849   2.972  0.8036  0.1591  0.2996
   43MOL   O30423068   1.173   1.808   2.902 -0.8509  0.7089 -0.0067
   43MOL   C30523069   1.082   1.725   2.961  0.2553  0.7665 -0.2588
   43MOL   O30623070   1.087   1.675   3.072  0.1881 -0.3784 -0.1453
   43MOL   C30723071   0.949   1.720   2.875  0.2195  0.9810 -0.5841
   43MOL   C30823072   0.978   1.771   2.733 -0.0520 -0.1598  0.3333
   43MOL   C30923073   0.823   1.801   2.938  0.0501  0.2369 -0.5055
   43MOL   H31023074   1.886   1.794   3.052  0.8119  1.4720 -0.3012
   43MOL   H31123075   1.765   1.800   3.184 -0.5984 -0.0612 -0.1614
   43MOL   H31223076   1.792   1.937   3.087 -1.2157  0.0364 -0.0747
   43MOL   H31323077   1.657   1.666   3.017 -1.6637 -0.4668 -2.0462
   43MOL   H31423078   1.690   1.768   2.889 -0.5899  2.6734 -0.3936
   43MOL   H31523079   1.552   1.940   2.977  3.8503  0.1902  2.6456
   43MOL   H31623080   1.541   1.865   3.123  0.0954 -1.5757 -0.0263
   43MOL   H31723081   1.411   1.665   3.000 -1.6546 -0.7961 -2.1935
   43MOL   H31823082   1.428   1.758   2.846 -0.9729  1.8646  0.4551
   43MOL   H31923083   1.277   1.842   3.080 -0.4387  1.0139  0.1852
   43MOL   H32023084   1.304   1.950   2.934 -0.5089 -0.0977 -0.8371
   43MOL   H32123085   0.895   1.766   2.663  0.4706  2.2964 -0.5103
   43MOL   H32223086   1.004   1.877   2.737 -0.7481  0.1182 -1.6651
   43MOL   H32323087   1.058   1.715   2.684  0.0183  1.5503 -1.5843
   43MOL   H32423088   0.787   1.738   3.019  0.9496 -0.7691 -0.8797
   43MOL   H32523089   0.747   1.820   2.863  1.7488  2.8416 -1.6708
   43MOL   C32623090   0.497   2.051   3.555  0.4988  0.7377 -0.3100
   43MOL   C32723091   0.654   2.049   3.552  0.5723  0.0476 -0.6202
   43MOL   C32823092   0.711   1.922   3.485 -0.9709  0.2523  0.1281
   43MOL   C32923093   0.859   1.946   3.456 -0.6523 -0.1362  0.3964
   43MOL   C33023094   0.919   1.832   3.357 -0.3336  0.1473 -0.0476
   43MOL   O33123095   0.869   1.844   3.226 -0.6100 -0.3316  0.0097
   43MOL   C33223096   0.914   1.941   3.136 -0.0660  0.5018  0.0063
   43MOL   O33323097   1.018   2.005   3.147  0.3114  0.6415  0.5469
   43MOL   C33423098   0.836   1.944   3.001  0.2062 -0.2306  0.0493
   43MOL   C33523099   0.904   2.041   2.905 -0.4504  0.5648 -0.0640
   43MOL   C33623100   0.685   1.987   3.031 -0.0384 -0.3526  0.6417
   43MOL   H33723101   0.449   2.000   3.472  1.7458 -1.7451  0.4177
   43MOL   H33823102   0.469   2.156   3.560 -0.4152  0.5457 -1.2691
   43MOL   H33923103   0.459   2.012   3.650 -1.5678  2.5390 -0.3653
   43MOL   H34023104   0.682   2.068   3.656  0.2986  0.0992 -0.5566
   43MOL   H34123105   0.680   2.141   3.499  0.9580 -0.0625 -0.6281
   43MOL   H34223106   0.654   1.900   3.395  0.3933 -2.1252 -0.2074
   43MOL   H34323107   0.710   1.831   3.546 -0.7201  0.4977  0.5078
   43MOL   H34423108   0.928   1.941   3.540 -0.5800  0.2251  0.3570
   43MOL   H34523109   0.891   2.039   3.408  3.3932 -1.7198 -0.1817
   43MOL   H34623110   0.897   1.730   3.388 -0.2380  0.2431  0.3387
   43MOL   H34723111   1.027   1.837   3.346 -0.0922 -2.6266  0.8614
   43MOL   H34823112   0.853   2.039   2.809 -0.0279  2.2938 -0.3414
   43MOL   H34923113   1.009   2.013   2.894  0.1245  2.3100  0.9264
   43MOL   H35023114   0.905   2.141   2.946 -1.4187  0.4845  0.1535
   43MOL   H35123115   0.657   1.918   3.111 -4.3752  0.3533 -0.1348
   43MOL   H35223116   0.637   1.961   2.937  2.5816 -1.4841 -0.4280
   43MOL   C35323117   0.181   2.679   3.020 -0.0608 -0.6947  0.0063
   43MOL   C35423118   0.331   2.699   3.025 -0.0834 -0.1973 -0.0639
   43MOL   C35523119   0.411   2.569   2.988  0.8369 -0.6389  0.5110
   43MOL   C35623120   0.567   2.596   3.006 -0.5647 -0.0758  0.4526
   43MOL   C35723121   0.637   2.474   2.951  0.5177  0.8156 -0.5639
   43MOL   O35823122   0.613   2.355   3.031  0.1011 -0.7555  0.0424
   43MOL   C35923123   0.634   2.237   2.974  0.6148 -0.3424 -0.3588
   43MOL   O36023124   0.645   2.225   2.856 -0.6264  0.5937  0.1350
   43MOL   C36123125   0.632   2.126   3.079 -0.6288 -0.1980 -0.0370
   43MOL   C36223126   0.709   2.170   3.200 -0.2035 -0.4585  0.5708
   43MOL   C36323127   0.485   2.107   3.127 -0.2451  0.3517 -0.2336
   43MOL   H36423128   0.152   2.658   2.917  1.5271 -0.3710 -0.5241
   43MOL   H36523129   0.124   2.763   3.061  2.2904  0.8146  0.2716
   43MOL   H36623130   0.175   2.582   3.069 -1.6226 -0.4722  0.2926
   43MOL   H36723131   0.363   2.785   2.967  2.4841 -0.8984  0.2443
   43MOL   H36823132   0.361   2.735   3.123 -2.4841 -1.8415  1.3247
   43MOL   H36923133   0.394   2.547   2.882 -0.0365 -2.0573  0.9289
   43MOL   H37023134   0.382   2.474   3.033 -0.5748 -0.5005 -0.0588
   43MOL   H37123135   0.597   2.611   3.110  0.6242 -1.1792  0.2762
   43MOL   H37223136   0.605   2.676   2.942  2.1541 -0.5376  1.3949
   43MOL   H37323137   0.592   2.460   2.853 -0.0598 -3.3262  0.1967
   43MOL   H37423138   0.744   2.495   2.939  0.6145 -0.8042 -2.9199
   43MOL   H37523139   0.731   2.087   3.267  1.7896 -2.2829 -2.2196
   43MOL   H37623140   0.798   2.232   3.186 -1.7921  1.5333 -0.9477
   43MOL   H37723141   0.645   2.236   3.258 -1.0439 -0.6040 -0.1889
   43MOL   H37823142   0.500   2.038   3.210  1.7902  1.5320  0.4166
   43MOL   H37923143   0.453   2.203   3.166 -2.1810 -0.2160 -0.3494
   43MOL   C38023144   0.464   1.650   3.599 -0.3067 -0.4283 -0.4813
   43MOL   C38123145   0.372   1.606   3.485 -0.1684  0.2232  0.7996
   43MOL   C38223146   0.411   1.672   3.354  0.2261  0.1199 -0.2007
   43MOL   C38323147   0.329   1.628   3.227  0.0449 -0.4228 -0.6043
   43MOL   C38423148   0.386   1.700   3.101  0.2089 -0.4061 -0.1696
   43MOL   O38523149   0.360   1.836   3.114 -0.0154 -0.4556  0.5310
   43MOL   C38623150   0.370   1.913   3.005  0.5305  0.1860  0.9463
   43MOL   O38723151   0.404   1.863   2.893  0.0137  0.1304 -0.8426
   43MOL   C38823152   0.356   2.065   3.042 -0.8836 -0.9788  0.4198
   43MOL   C38923153   0.240   2.087   3.148 -0.3632 -0.3437  0.2442
   43MOL   C39023154   0.346   2.153   2.916 -0.6604 -0.0309 -0.0392
   43MOL   H39123155   0.466   1.758   3.611  1.2386 -0.6051  0.9693
   43MOL   H39223156   0.432   1.603   3.692  0.1773  0.1345 -0.0301
   43MOL   H39323157   0.567   1.616   3.582  0.0178 -0.1518  0.9261
   43MOL   H39423158   0.270   1.642   3.497  0.4734  2.5300 -0.3588
   43MOL   H39523159   0.378   1.497   3.476 -1.3376  0.1719  0.6245
   43MOL   H39623160   0.379   1.776   3.359 -0.3884 -0.1075  0.9917
   43MOL   H39723161   0.519   1.669   3.345 -0.0134 -0.8481 -3.1758
   43MOL   H39823162   0.312   1.521   3.227 -0.2786 -0.3738 -0.7375
   43MOL   H39923163   0.228   1.667   3.245  0.0733 -0.7698  0.2936
   43MOL   H40023164   0.341   1.668   3.007  0.1024 -0.5400 -0.0725
   43MOL   H40123165   0.493   1.681   3.093  0.9362  1.8139  3.2870
   43MOL   H40223166   0.145   2.036   3.131  0.8955 -2.9069  0.6757
   43MOL   H40323167   0.225   2.194   3.165  0.1426 -0.5500  2.0996
   43MOL   H40423168   0.266   2.044   3.244  1.6067 -0.7587 -0.4576
   43MOL   H40523169   0.426   2.122   2.848 -0.0805 -2.0067  1.4789
   43MOL   H40623170   0.369   2.252   2.955  3.8459 -0.8558 -0.2592
   43MOL   C40723171   7.420   1.957   2.909  0.7590  0.3202  0.1974
   43MOL   C40823172   7.441   1.980   3.061 -0.2191  0.0081  0.4322
   43MOL   C40923173   7.579   2.034   3.092 -0.0226  0.2113 -0.7438
   43MOL   C41023174   7.617   2.176   3.048  0.0156  0.3693 -0.2221
   43MOL   C41123175   7.768   2.211   3.076 -0.4179 -0.5400  0.3827
   43MOL   O41223176   0.034   2.177   2.964 -0.3602 -0.1577 -0.0747
   43MOL   C41323177   0.124   2.259   2.915  0.1152 -0.5597  0.3976
   43MOL   O41423178   0.112   2.376   2.922  0.2807 -0.8921 -0.2035
   43MOL   C41523179   0.223   2.185   2.824 -0.3808 -0.2634 -0.2152
   43MOL   C41623180   0.279   2.288   2.717  0.5764  0.6004 -0.2321
   43MOL   C41723181   0.173   2.053   2.741 -0.5289 -0.2716 -0.6733
   43MOL   H41823182   7.458   2.030   2.838  1.5411  0.6068  0.9017
   43MOL   H41923183   7.471   1.872   2.864 -2.1093 -0.4662 -1.6584
   43MOL   H42023184   7.318   1.930   2.884  1.0164 -1.5493  1.0360
   43MOL   H42123185   7.426   1.888   3.117  2.5868 -0.1603  0.9541
   43MOL   H42223186   7.362   2.041   3.106 -0.6316 -0.1825 -0.0247
   43MOL   H42323187   7.598   2.036   3.200 -0.8431 -1.5297 -0.5481
   43MOL   H42423188   7.653   1.963   3.058  0.4177  0.6717 -0.7552
   43MOL   H42523189   7.545   2.250   3.083 -1.3460 -1.8572  1.8717
   43MOL   H42623190   7.618   2.181   2.939  1.7288  2.0323 -0.1612
   43MOL   H42723191   7.763   2.319   3.093 -1.8824 -0.7125  1.2025
   43MOL   H42823192   7.812   2.180   3.171  0.8617  0.5051  0.1349
   43MOL   H42923193   0.345   2.364   2.760  0.3047  0.8541 -0.2662
   43MOL   H43023194   0.203   2.351   2.671  0.7723  1.8595  1.1179
   43MOL   H43123195   0.342   2.247   2.639 -0.8928 -0.5509 -0.8330
   43MOL   H43223196   0.121   2.001   2.821  2.3907 -0.0541  1.4344
   43MOL   H43323197   0.261   2.003   2.701  0.2872  1.0969 -0.6119
   43MOL   C43423198   0.402   2.382   2.001 -0.0495  0.9019  0.0646
   43MOL   C43523199   0.373   2.340   2.147 -0.0864  0.3176 -0.0795
   43MOL   C43623200   0.463   2.245   2.225  0.7638 -0.0804  0.1004
   43MOL   C43723201   0.392   2.190   2.347  0.4852  0.6534  0.5085
   43MOL   C43823202   0.270   2.108   2.308 -0.5395  0.0657  0.0067
   43MOL   O43923203   0.219   2.050   2.425  0.3731  0.0877  0.2134
   43MOL   C44023204   0.130   2.126   2.494  0.0317 -0.5149  0.4496
   43MOL   O44123205   0.087   2.235   2.450 -1.0187 -0.6739  0.0042
   43MOL   C44223206   0.071   2.068   2.626  0.3055  1.1303 -0.0104
   43MOL   C44323207   7.773   2.163   2.663  0.2309 -0.2682 -0.7728
   43MOL   C44423208   7.805   1.936   2.581 -0.0031 -0.1462 -0.6057
   43MOL   H44523209   0.424   2.293   1.942  0.5541  1.4146 -0.4897
   43MOL   H44623210   0.311   2.430   1.965 -1.7678  0.3235  3.4487
   43MOL   H44723211   0.489   2.448   1.998  0.7549 -0.1048  0.7274
   43MOL   H44823212   0.358   2.433   2.203 -0.2090 -0.7440  1.6853
   43MOL   H44923213   0.281   2.285   2.129  0.5442 -0.0426 -2.2726
   43MOL   H45023214   0.504   2.175   2.152  0.3656  3.3060 -3.5606
   43MOL   H45123215   0.549   2.309   2.249  1.2807  0.5645 -3.1679
   43MOL   H45223216   0.360   2.271   2.412 -0.2525  0.7630  0.0149
   43MOL   H45323217   0.455   2.126   2.408  0.5211  1.0888  0.9360
   43MOL   H45423218   0.317   2.031   2.246 -1.9769 -0.6408 -0.2259
   43MOL   H45523219   0.182   2.141   2.253 -0.0921  0.1510 -0.6678
   43MOL   H45623220   7.695   2.168   2.587  0.1139  0.0044 -0.6328
   43MOL   H45723221   7.719   2.126   2.750 -0.3553  2.1114 -0.0892
   43MOL   H45823222   7.807   2.263   2.689 -1.8755  0.2316  0.1294
   43MOL   H45923223   7.808   1.935   2.472  0.9986  3.2403 -0.6648
   43MOL   H46023224   7.698   1.938   2.602 -0.1534 -2.2738 -1.0128
   43MOL   C46123225   0.319   1.269   3.042 -0.3343  0.3474 -0.5203
   43MOL   C46223226   0.174   1.266   2.984 -0.3499 -0.3856  0.1204
   43MOL   C46323227   0.132   1.396   2.924  0.1343 -0.0969 -0.2136
   43MOL   C46423228   7.799   1.404   2.895 -0.6243 -0.3582  0.1219
   43MOL   C46523229   7.745   1.540   2.889  0.4492 -0.3214  0.1877
   43MOL   O46623230   7.798   1.602   2.768 -0.6564 -0.2056 -0.1284
   43MOL   C46723231   7.789   1.731   2.748  0.4802  0.3256  0.3386
   43MOL   O46823232   7.741   1.803   2.833  0.0601  0.2370 -0.0220
   43MOL   C46923233   0.024   1.787   2.611 -0.2542 -0.5219 -0.2765
   43MOL   C47023234   0.175   1.767   2.615 -0.6046 -0.1512 -0.5304
   43MOL   C47123235   7.780   1.688   2.500 -0.2401  0.0099  0.5676
   43MOL   H47223236   0.392   1.309   2.973  1.1267 -0.2320  0.6609
   43MOL   H47323237   0.343   1.169   3.079  1.3192  0.5070 -1.1564
   43MOL   H47423238   0.321   1.328   3.134  1.9575 -0.4419 -0.0202
   43MOL   H47523239   0.108   1.238   3.067  0.8372  0.0317  1.2088
   43MOL   H47623240   0.152   1.191   2.908 -1.9922 -0.6938  0.8795
   43MOL   H47723241   0.199   1.427   2.843  0.6280 -0.7199 -0.0433
   43MOL   H47823242   0.150   1.467   3.004 -0.6975  1.1739 -1.1377
   43MOL   H47923243   7.742   1.361   2.977 -0.3700 -0.1300  0.4183
   43MOL   H48023244   7.781   1.350   2.802  0.2424  0.9529 -0.8275
   43MOL   H48123245   7.637   1.548   2.875  0.1621 -1.3632  1.7335
   43MOL   H48223246   7.763   1.598   2.979 -1.6546 -0.6705  0.8595
   43MOL   H48323247   0.216   1.844   2.549 -0.0199  0.6434  0.7545
   43MOL   H48423248   0.212   1.672   2.576 -0.6765  0.2652 -1.6268
   43MOL   H48523249   0.223   1.784   2.711  0.5135  0.1739 -1.1265
   43MOL   H48623250   7.787   1.584   2.532 -1.2523 -0.5903 -1.1181
   43MOL   H48723251   0.035   1.690   2.415  1.3036  1.6932  1.8148
   43MOL   C48823252   0.127   2.134   1.891 -0.3723  0.3415 -0.3850
   43MOL   C48923253   0.002   2.062   1.849 -0.5268 -0.5119 -0.5155
   43MOL   C49023254   7.715   2.061   1.964  0.5690 -0.4657 -0.8326
   43MOL   C49123255   7.746   1.957   2.073 -0.4291  0.8447 -0.0143
   43MOL   C49223256   7.656   1.970   2.197 -0.5669 -0.5767  0.5486
   43MOL   O49323257   7.677   1.847   2.273 -0.3425  0.4337  0.3118
   43MOL   C49423258   7.595   1.819   2.385  0.1761 -0.3196  0.5961
   43MOL   O49523259   7.508   1.898   2.425  0.5550  0.3878 -0.0025
   43MOL   C49623260   7.628   1.689   2.456  0.0011 -0.2474  0.4807
   43MOL   C49723261   7.528   1.662   2.567 -0.0273 -0.6602 -0.1887
   43MOL   C49823262   7.617   1.574   2.341  0.3510 -0.8855  0.5089
   43MOL   H49923263   0.180   2.075   1.967 -0.8636  0.2394 -0.1174
   43MOL   H50023264   0.195   2.167   1.813  0.2071 -1.2124 -0.5659
   43MOL   H50123265   0.084   2.221   1.940 -0.8587 -1.0959  1.8644
   43MOL   H50223266   0.034   1.961   1.823  1.0569 -0.6481  1.7327
   43MOL   H50323267   7.777   2.108   1.759 -0.8038 -0.1808 -0.2279
   43MOL   H50423268   7.703   2.162   2.003 -0.1518 -0.0911 -1.9708
   43MOL   H50523269   7.620   2.037   1.916 -0.0567  0.4703 -0.0637
   43MOL   H50623270   0.036   1.969   2.103 -0.3756  2.5816 -0.7938
   43MOL   H50723271   7.742   1.854   2.039  0.7087  0.4804  0.9306
   43MOL   H50823272   7.685   2.058   2.255  1.5580  0.1714 -1.5662
   43MOL   H50923273   7.549   1.970   2.176 -0.3611 -2.9510 -0.6594
   43MOL   H51023274   7.427   1.640   2.534 -0.4954  1.7391 -0.4879
   43MOL   H51123275   7.512   1.756   2.621  0.8304  1.0287 -2.7931
   43MOL   H51223276   7.558   1.580   2.632  0.6760  0.1213  0.4958
   43MOL   H51323277   7.622   1.484   2.403 -3.4953 -0.6438  1.3334
   43MOL   H51423278   7.706   1.584   2.279 -0.6875 -0.5198 -0.9396
   43MOL   C51523279   7.292   2.104   2.614  0.7045 -0.5103 -0.0249
   43MOL   C51623280   7.220   2.079   2.475  0.5168  0.1216  0.4086
   43MOL   C51723281   7.178   1.926   2.468 -0.5622  0.3416 -0.1231
   43MOL   C51823282   7.136   1.868   2.332 -0.0236  0.3794 -0.3517
   43MOL   C51923283   7.168   1.718   2.312 -0.0969  0.1440 -0.0973
   43MOL   O52023284   7.306   1.700   2.286  0.1152 -0.2000  0.1562
   43MOL   C52123285   7.366   1.572   2.307 -0.1319 -0.4374 -0.2742
   43MOL   O52223286   7.310   1.473   2.355  0.2710 -0.6543 -0.3314
   43MOL   C52323287   7.504   1.555   2.233  0.2064 -0.7221 -1.3556
   43MOL   C52423288   7.515   1.409   2.177  0.1969 -0.7475 -0.2377
   43MOL   C52523289   7.503   1.645   2.108 -1.1654  0.3269  0.0222
   43MOL   H52623290   7.393   2.063   2.615  1.2804  0.6796 -3.6015
   43MOL   H52723291   7.300   2.209   2.641  0.2047  0.1793 -2.4489
   43MOL   H52823292   7.236   2.053   2.692  1.3534 -0.1301  0.6984
   43MOL   H52923293   7.126   2.134   2.465 -0.8180 -2.2047 -0.2282
   43MOL   H53023294   7.289   2.099   2.393 -1.4261  0.7559 -1.0982
   43MOL   H53123295   7.259   1.863   2.505 -0.6204  0.9348  1.0041
   43MOL   H53223296   7.097   1.907   2.538  1.7820  0.8453  2.7935
   43MOL   H53323297   7.189   1.936   2.264  1.9898 -1.1852 -0.3868
   43MOL   H53423298   7.030   1.875   2.309  0.4929  1.6440 -2.6146
   43MOL   H53523299   7.126   1.654   2.388  2.0436 -1.2192 -0.0113
   43MOL   H53623300   7.122   1.687   2.218 -1.1332  0.1537  0.4054
   43MOL   H53723301   7.511   1.406   2.068 -0.9416  1.8578 -0.3100
   43MOL   H53823302   7.438   1.343   2.219 -0.1730  0.7055  1.4383
   43MOL   H53923303   7.615   1.369   2.192  0.6861  0.6525  0.3263
   43MOL   H54023304   7.421   1.623   2.040 -0.0967  0.9992 -1.5118
   43MOL   H54123305   7.586   1.632   2.039 -1.2456  0.7813 -0.1582
   43MOL   H54223306   7.480   1.749   2.130 -0.2000  0.8370 -1.3404
   44MOL     C123307   2.390   6.165   7.183 -0.5340  0.2528  0.1253
   44MOL     C223308   2.304   6.043   7.156  0.3870 -0.2173 -0.0672
   44MOL     C323309   2.354   5.915   7.224 -0.0108 -0.3618  0.5073
   44MOL     C423310   2.293   5.782   7.175 -0.1309 -0.4826  0.6632
   44MOL     C523311   2.135   5.784   7.182  0.3190 -0.0578  0.2058
   44MOL     O623312   2.088   5.688   7.087  0.0256  0.1254 -0.0459
   44MOL     C723313   2.012   5.584   7.125 -0.5251 -0.2889  0.3226
   44MOL     O823314   1.980   5.568   7.240  0.7600 -0.1200 -0.0216
   44MOL     C923315   1.988   5.482   7.010  0.3195 -0.6099 -0.2015
   44MOL    C1023316   1.832   5.466   6.994  0.3301  0.7087  0.3442
   44MOL    C1123317   2.068   5.350   7.013 -0.1055 -0.6684  0.2586
   44MOL    H1223318   2.335   6.252   7.148  0.8051  1.4755  1.0263
   44MOL    H1323319   2.484   6.172   7.129 -0.0380  2.5806  1.2458
   44MOL    H1423320   2.402   6.180   7.290 -0.4229 -3.2594  0.6614
   44MOL    H1523321   2.198   6.063   7.174  0.5865  0.6621  0.1509
   44MOL    H1623322   2.304   6.025   7.048  0.1133  0.7816 -0.2454
   44MOL    H1723323   2.462   5.913   7.214 -0.0605  0.4731 -0.3087
   44MOL    H1823324   2.339   5.918   7.332  0.5412 -1.4567  0.6150
   44MOL    H1923325   2.337   5.713   7.247  0.9134  0.9766  1.4396
   44MOL    H2023326   2.341   5.767   7.078  0.1327  1.1159  0.5399
   44MOL    H2123327   2.100   5.765   7.283 -1.5114  1.8403 -0.0278
   44MOL    H2223328   2.086   5.875   7.149  0.8473  0.1673  0.0331
   44MOL    H2323329   1.792   5.420   6.904  1.0617  1.7553 -0.5339
   44MOL    H2423330   1.771   5.556   7.002 -0.3247  0.2038  1.0793
   44MOL    H2523331   1.796   5.409   7.079 -0.2496 -0.1679 -0.4711
   44MOL    H2623332   1.995   5.273   7.037 -1.3741  0.5617  0.4232
   44MOL    H2723333   2.131   5.342   7.102  1.0769  1.0407 -0.3885
   44MOL    H2823334   2.024   5.535   6.922  1.1334 -0.2059  0.3638
   44MOL    C2923335   2.940   5.366   6.576  0.6920  0.1138  0.2375
   44MOL    C3023336   2.811   5.312   6.650  0.1361 -0.2724 -0.0626
   44MOL    C3123337   2.697   5.408   6.645  0.3890  0.4534  0.1709
   44MOL    C3223338   2.565   5.363   6.708  0.7301  0.2620 -0.2749
   44MOL    C3323339   2.459   5.470   6.713 -0.0249  0.5175  0.1620
   44MOL    O3423340   2.333   5.397   6.735  1.0637  0.0213  0.0510
   44MOL    C3523341   2.270   5.412   6.856  0.3700 -0.0126 -0.0038
   44MOL    O3623342   2.297   5.501   6.940 -0.6788 -0.0206  0.0779
   44MOL    C3723343   2.154   5.316   6.881  0.2888 -0.4663 -0.1076
   44MOL    C3823344   2.055   5.321   6.759  0.5830  0.5898 -0.1867
   44MOL    C3923345   2.199   5.165   6.886 -0.6807  0.4303  0.0583
   44MOL    H4023346   2.931   5.361   6.467 -0.7757  1.7749  0.2624
   44MOL    H4123347   2.964   5.471   6.593 -0.4322  0.2671  0.9318
   44MOL    H4223348   3.031   5.310   6.600  0.5772 -0.7086 -1.1973
   44MOL    H4323349   2.828   5.293   6.756 -2.1852  0.0964  0.3960
   44MOL    H4423350   2.780   5.219   6.602 -1.5797 -0.6326  1.6686
   44MOL    H4523351   2.673   5.430   6.541 -2.7175  1.2165  0.9989
   44MOL    H4623352   2.718   5.509   6.681  4.0211  0.7706 -2.5300
   44MOL    H4723353   2.536   5.277   6.646  0.2885  0.5708 -0.5034
   44MOL    H4823354   2.569   5.325   6.810  0.3240  0.0358 -0.3397
   44MOL    H4923355   2.446   5.514   6.615 -2.5048 -0.0976  0.1761
   44MOL    H5023356   2.472   5.550   6.786 -0.0835 -0.0223  0.7723
   44MOL    H5123357   1.964   5.265   6.781 -0.6813  1.6429 -2.4510
   44MOL    H5223358   2.098   5.279   6.668  0.7847  0.6633 -0.1248
   44MOL    H5323359   2.012   5.418   6.731  1.4095  1.9331  2.9636
   44MOL    H5423360   2.270   5.161   6.804  0.9952 -0.7910  1.5171
   44MOL    H5523361   2.117   5.107   6.844 -0.2563 -0.2365  0.1486
   44MOL    C5623362   2.492   4.679   7.458  0.5308 -0.9974 -0.3171
   44MOL    C5723363   2.417   4.800   7.516 -0.3922 -0.5359  0.1857
   44MOL    C5823364   2.328   4.877   7.409 -0.1941 -0.1618 -0.1094
   44MOL    C5923365   2.251   5.000   7.463  0.2094 -0.5496 -0.7794
   44MOL    C6023366   2.145   5.057   7.365 -0.3923 -0.4422  0.1798
   44MOL    O6123367   2.212   5.097   7.245  0.1364  0.6581 -0.8131
   44MOL    C6223368   2.158   5.081   7.120  0.6278 -0.5855 -0.1543
   44MOL    O6323369   2.044   5.049   7.089  0.2293 -0.1408 -0.1426
   44MOL    C6423370   2.265   5.090   7.006 -0.1093 -0.2223  0.2608
   44MOL    C6523371   2.388   5.162   7.057 -0.6752 -0.4262 -0.0699
   44MOL    C6623372   2.305   4.939   6.975  0.1484 -0.5615  0.1232
   44MOL    H6723373   2.561   4.637   7.530  1.5132  0.8100 -0.1594
   44MOL    H6823374   2.540   4.701   7.362  0.8037 -0.5376 -0.0774
   44MOL    H6923375   2.427   4.598   7.424  2.5940 -1.8651 -2.2659
   44MOL    H7023376   2.359   4.766   7.601 -0.8548  0.7376  0.3896
   44MOL    H7123377   2.487   4.868   7.565  2.4089 -2.2345 -1.3057
   44MOL    H7223378   2.387   4.908   7.323 -1.9665  0.6989 -1.0378
   44MOL    H7323379   2.256   4.800   7.380 -2.2949  0.7356  2.4767
   44MOL    H7423380   2.324   5.081   7.471 -0.8416  0.5455 -2.0653
   44MOL    H7523381   2.212   4.988   7.564 -0.5877 -0.1012 -1.0272
   44MOL    H7623382   2.068   4.983   7.343  0.1198 -1.6682  2.3158
   44MOL    H7723383   2.091   5.135   7.419  2.4579  0.0393  2.5251
   44MOL    H7823384   2.361   5.254   7.109  0.4124 -0.5999  0.8357
   44MOL    H7923385   2.453   5.195   6.976 -2.5225  2.0478 -0.6017
   44MOL    H8023386   2.450   5.095   7.117 -1.8646 -1.0866  0.4263
   44MOL    H8123387   2.218   4.874   6.965 -0.7604  0.1339  3.0899
   44MOL    H8223388   2.352   4.905   7.067  2.0535 -0.2535 -0.7182
   44MOL    C8323389   1.703   4.788   6.831  0.1519 -0.6935 -0.2405
   44MOL    C8423390   1.732   4.926   6.781 -0.2713  0.3548  0.5363
   44MOL    C8523391   1.890   4.944   6.761 -0.7261 -0.3069 -0.4530
   44MOL    C8623392   1.955   4.844   6.655 -0.6784 -0.1211  0.0247
   44MOL    C8723393   2.101   4.887   6.616 -0.4965 -1.3159 -0.3747
   44MOL    O8823394   2.194   4.868   6.722 -0.1415 -0.4497 -0.6144
   44MOL    C8923395   2.307   4.933   6.725 -0.4477 -0.8044  0.4555
   44MOL    O9023396   2.345   5.005   6.634 -0.7652  0.2435 -0.7799
   44MOL    C9123397   2.392   4.897   6.852 -0.1341 -0.3755 -0.2061
   44MOL    C9223398   2.524   4.970   6.845  0.1783 -0.0524 -0.3902
   44MOL    C9323399   2.419   4.740   6.849 -0.2803 -0.4418 -0.5492
   44MOL    H9423400   1.597   4.772   6.851  0.1074 -1.9419 -1.4467
   44MOL    H9523401   1.738   4.711   6.763 -1.4172 -1.4040 -0.2667
   44MOL    H9623402   1.756   4.764   6.923  0.8277  0.1790 -0.3980
   44MOL    H9723403   1.685   5.000   6.847 -2.8370  0.1249 -0.9850
   44MOL    H9823404   1.678   4.931   6.686 -2.4909 -1.1323  1.6866
   44MOL    H9923405   1.927   4.928   6.862 -1.1831  0.7593 -0.1105
   44MOL   H10023406   1.914   5.050   6.750 -0.7171 -0.4587 -2.0257
   44MOL   H10123407   1.890   4.846   6.567 -1.9360 -2.6119  0.8532
   44MOL   H10223408   1.952   4.743   6.697 -3.3889  0.0251  0.2803
   44MOL   H10323409   2.105   4.989   6.578 -0.1707 -0.8920  0.7812
   44MOL   H10423410   2.141   4.823   6.538  1.7407 -0.0624 -0.2865
   44MOL   H10523411   2.498   5.073   6.820  2.3050  0.5511 -0.2146
   44MOL   H10623412   2.594   4.933   6.771  0.7819  2.5018 -1.1439
   44MOL   H10723413   2.583   4.981   6.936 -0.3740 -0.6372  0.0450
   44MOL   H10823414   2.334   4.684   6.812 -0.0921 -0.9524 -0.2071
   44MOL   H10923415   2.481   4.728   6.760  1.3744  1.0308  0.3605
   44MOL   C11023416   1.912   4.277   6.713 -0.3673  0.2555 -0.0650
   44MOL   C11123417   1.944   4.423   6.756 -0.2189  1.0225 -0.0670
   44MOL   C11223418   2.021   4.428   6.886  0.5313 -0.1682  0.3519
   44MOL   C11323419   2.016   4.560   6.962 -0.0500  0.4467 -0.1351
   44MOL   C11423420   2.130   4.575   7.066 -0.0988  0.1495 -0.1131
   44MOL   O11523421   2.255   4.582   7.006  0.2041  0.0234  0.2535
   44MOL   C11623422   2.361   4.639   7.063  0.6194 -0.0304 -0.8807
   44MOL   O11723423   2.363   4.670   7.187 -0.2864 -0.1286 -0.2501
   44MOL   C11823424   2.479   4.655   6.970  0.1104 -0.7286 -0.0337
   44MOL   C11923425   2.589   4.729   7.040  0.4262  0.4402 -0.2666
   44MOL   C12023426   2.533   4.517   6.909 -0.2003  0.2250 -0.1361
   44MOL   H12123427   1.992   4.203   6.710  0.7668  1.5057 -0.6244
   44MOL   H12223428   1.832   4.230   6.771 -0.2939  1.2500  0.8643
   44MOL   H12323429   1.880   4.288   6.609  4.4449 -3.2171 -2.1144
   44MOL   H12423430   1.997   4.467   6.672  0.6017 -1.3726 -0.8587
   44MOL   H12523431   1.849   4.474   6.770 -0.3204  0.1936  2.6585
   44MOL   H12623432   1.983   4.349   6.952  1.7190 -1.1338 -0.1001
   44MOL   H12723433   2.121   4.389   6.869 -0.6905 -1.1396 -5.6249
   44MOL   H12823434   1.916   4.572   7.002  0.0349 -4.4103  1.8793
   44MOL   H12923435   2.033   4.637   6.886  0.1278  0.7688  0.2221
   44MOL   H13023436   2.121   4.670   7.118  1.0607  0.5221 -0.5884
   44MOL   H13123437   2.129   4.497   7.143 -0.9326 -2.4838 -2.7206
   44MOL   H13223438   2.561   4.822   7.088  2.0412  1.4205 -1.1505
   44MOL   H13323439   2.621   4.678   7.131 -0.2754  1.3042  0.4671
   44MOL   H13423440   2.677   4.755   6.980  1.2808 -2.3984 -0.3633
   44MOL   H13523441   2.440   4.474   6.874 -0.6065  0.0641  1.1030
   44MOL   H13623442   2.585   4.534   6.815 -0.1317  1.2572  0.0874
   44MOL   C13723443   1.977   4.026   6.969 -0.0947  0.1046  0.4027
   44MOL   C13823444   2.101   4.018   7.060 -0.3372 -0.8374  0.6707
   44MOL   C13923445   2.177   4.151   7.093 -0.1312  0.2671  0.5570
   44MOL   C14023446   2.296   4.139   7.181 -0.1371 -0.4413 -0.4090
   44MOL   C14123447   2.359   4.271   7.223 -0.4762 -0.2227  0.2795
   44MOL   O14223448   2.435   4.321   7.113  0.4627 -0.7730  0.4850
   44MOL   C14323449   2.543   4.382   7.129  0.4983  1.0229 -0.1627
   44MOL   O14423450   2.588   4.409   7.238  0.4069  0.1925 -0.1910
   44MOL   C14523451   2.617   4.413   6.992 -0.2022  0.5417  0.1821
   44MOL   C14623452   2.611   4.293   6.894  0.1179 -0.0496 -0.1829
   44MOL   C14723453   2.760   4.462   7.025  0.0825  0.4393  0.3936
   44MOL   H14823454   1.927   3.929   6.964  2.4129 -1.2412  0.9830
   44MOL   H14923455   1.999   4.044   6.863 -2.8196  3.0206  0.2457
   44MOL   H15023456   1.904   4.101   7.001 -1.7786 -0.7856 -1.1922
   44MOL   H15123457   2.181   3.960   7.014 -0.5672 -0.8931  0.3398
   44MOL   H15223458   2.076   3.972   7.156 -2.8533  0.6046  0.7503
   44MOL   H15323459   2.200   4.204   7.001  2.8398  0.2636  1.2497
   44MOL   H15423460   2.099   4.216   7.133 -0.4063 -0.2619  0.9049
   44MOL   H15523461   2.266   4.075   7.265  0.3381 -0.9718 -0.6394
   44MOL   H15623462   2.370   4.087   7.120  0.8117 -0.6885  0.9258
   44MOL   H15723463   2.426   4.253   7.307  0.7505  0.0507 -0.6197
   44MOL   H15823464   2.281   4.341   7.251 -0.2550 -0.3923  1.3328
   44MOL   H15923465   2.638   4.197   6.938 -0.8293 -0.3014 -0.1385
   44MOL   H16023466   2.664   4.312   6.801  0.4559  0.4694  0.1178
   44MOL   H16123467   2.505   4.278   6.872 -0.1932  2.0857 -0.2573
   44MOL   H16223468   2.793   4.533   6.949 -1.7575  2.4197  1.4152
   44MOL   H16323469   2.749   4.525   7.113  0.9392  0.3516  0.5710
   44MOL   C16423470   2.726   4.989   7.358  0.1838  0.1534 -0.3729
   44MOL   C16523471   2.855   4.943   7.294 -0.0104  0.2111 -0.3999
   44MOL   C16623472   2.877   4.791   7.321  0.1119 -0.2578 -0.0696
   44MOL   C16723473   3.028   4.750   7.277  0.5015 -0.1466 -0.3523
   44MOL   C16823474   3.059   4.612   7.306  0.6564  0.7661  0.5816
   44MOL   O16923475   2.974   4.518   7.238 -0.5275 -0.1889  0.3696
   44MOL   C17023476   2.998   4.476   7.117  0.1700 -0.3283  0.0204
   44MOL   O17123477   3.096   4.515   7.045 -0.4000 -0.2388  0.1627
   44MOL   C17223478   2.891   4.375   7.069  0.6979 -0.0964  0.0405
   44MOL   C17323479   2.942   4.310   6.943 -0.1846 -0.0584  0.0677
   44MOL   C17423480   2.853   4.272   7.188  0.0354 -0.2779 -0.0790
   44MOL   H17523481   2.694   4.945   7.453 -0.4514  0.6433 -0.3578
   44MOL   H17623482   2.643   4.970   7.290 -1.6415 -1.1008  2.1169
   44MOL   H17723483   2.735   5.096   7.375 -2.7513  0.4274 -0.2544
   44MOL   H17823484   2.938   5.002   7.332 -0.7165  1.5409 -0.8733
   44MOL   H17923485   2.842   4.955   7.186  1.0138  1.1018 -0.4310
   44MOL   H18023486   2.852   4.775   7.426 -0.1880 -3.1870 -0.5363
   44MOL   H18123487   2.816   4.726   7.258 -0.3718  2.3517 -2.4086
   44MOL   H18223488   3.097   4.819   7.327 -0.8643 -1.8467  4.1499
   44MOL   H18323489   3.039   4.764   7.170 -0.3661  0.5869 -0.3498
   44MOL   H18423490   3.035   4.582   7.408 -1.7688 -0.8134 -0.4103
   44MOL   H18523491   3.157   4.574   7.276 -0.2637 -2.7838  1.7426
   44MOL   H18623492   2.965   4.384   6.867  2.5784 -1.6754 -0.7677
   44MOL   H18723493   2.871   4.236   6.907 -1.2393  0.1407  1.7055
   44MOL   H18823494   3.037   4.257   6.959 -0.0293 -0.0287 -0.7305
   44MOL   H18923495   2.827   4.326   7.280 -1.1751 -1.0194  0.0257
   44MOL   H19023496   2.761   4.228   7.149 -1.1397  0.6999  1.5123
   44MOL   C19123497   3.305   4.489   7.749 -0.8017  0.2186  0.6118
   44MOL   C19223498   3.412   4.517   7.648  0.1279 -0.3760 -0.0050
   44MOL   C19323499   3.407   4.413   7.532 -0.1203  0.0883 -0.3113
   44MOL   C19423500   3.269   4.391   7.479  0.7047 -0.7633 -0.2898
   44MOL   C19523501   3.258   4.309   7.351  0.0074 -0.2872  0.2105
   44MOL   O19623502   3.122   4.276   7.338 -0.6971 -0.0931  0.3428
   44MOL   C19723503   3.091   4.196   7.235 -0.3039 -0.7879  0.4561
   44MOL   O19823504   3.170   4.148   7.152 -0.2140 -0.4330 -0.3599
   44MOL   C19923505   2.944   4.153   7.228  0.6142 -1.2186  0.6221
   44MOL   C20023506   2.931   4.036   7.121 -0.0649 -0.0157 -0.7541
   44MOL   C20123507   2.912   4.103   7.374 -0.4819 -0.9329  0.7703
   44MOL   H20223508   3.321   4.548   0.025 -1.6473  0.7415  0.4262
   44MOL   H20323509   3.204   4.525   7.728  0.1486  1.6293 -1.7798
   44MOL   H20423510   3.303   4.383   7.775 -0.6816  0.0711  0.0374
   44MOL   H20523511   3.511   4.514   7.694 -0.1921 -0.0507  0.7143
   44MOL   H20623512   3.402   4.617   7.607 -0.1729 -1.1279 -1.7737
   44MOL   H20723513   3.458   4.320   7.558  1.1801  0.3132 -1.9317
   44MOL   H20823514   3.466   4.442   7.445  0.2170  1.6915  0.4343
   44MOL   H20923515   3.208   4.339   7.552  0.2402 -0.2769 -0.3292
   44MOL   H21023516   3.225   4.489   7.461  0.2123 -0.4105  2.6118
   44MOL   H21123517   3.278   4.365   7.260  1.4998  0.2552  0.8564
   44MOL   H21223518   3.318   4.218   7.359  0.3628 -0.2031 -1.4377
   44MOL   H21323519   2.979   4.050   7.025 -0.4412  1.0324 -0.8003
   44MOL   H21423520   2.829   4.004   7.099 -1.2917  3.5862 -0.6626
   44MOL   H21523521   2.980   3.949   7.166  0.1365  0.0850 -0.7798
   44MOL   H21623522   2.899   4.188   7.441 -1.4202 -0.0339 -0.5289
   44MOL   H21723523   3.007   4.075   7.420  1.8015 -0.9611 -3.6763
   44MOL   C21823524   3.398   3.528   7.248  0.3660  1.2878  0.2935
   44MOL   C21923525   3.317   3.649   7.290  0.9634  0.7704  0.0518
   44MOL   C22023526   3.264   3.639   7.434  0.1552 -0.2399 -0.0348
   44MOL   C22123527   3.160   3.749   7.457 -0.3592 -0.5490  0.2866
   44MOL   C22223528   3.025   3.727   7.386  0.4012  0.0511  0.4460
   44MOL   O22323529   2.954   3.837   7.436 -0.1926  0.2065  1.0605
   44MOL   C22423530   2.832   3.869   7.377 -0.3136  0.0455 -0.1551
   44MOL   O22523531   2.779   3.790   7.297  0.7586 -0.2655 -0.5985
   44MOL   C22623532   2.791   4.008   7.415  0.3787 -0.7524 -0.3999
   44MOL   C22723533   2.667   4.064   7.344  0.2538  0.0632 -0.4458
   44MOL   C22823534   2.771   4.025   7.570  0.5711  0.7487 -0.6775
   44MOL   H22923535   3.488   3.520   7.308  1.4474 -0.1860 -1.4801
   44MOL   H23023536   3.360   3.426   7.246  2.4064  0.5143  0.0094
   44MOL   H23123537   3.423   3.551   7.144 -1.2182  0.3582 -0.3208
   44MOL   H23223538   3.239   3.658   7.215  0.2979 -0.5773  0.5556
   44MOL   H23323539   3.390   3.729   7.280  1.8271  0.0076  0.0471
   44MOL   H23423540   3.340   3.644   7.512 -0.3353 -0.9700  0.4958
   44MOL   H23523541   3.228   3.537   7.451  1.4842 -0.7555 -0.2777
   44MOL   H23623542   3.140   3.766   7.563 -1.4079  2.8738 -0.3851
   44MOL   H23723543   3.194   3.850   7.434 -1.0098 -0.2162  0.8034
   44MOL   H23823544   2.979   3.636   7.425  1.3024 -0.7949 -0.4042
   44MOL   H23923545   3.033   3.726   7.277 -2.3861  3.2027  0.1471
   44MOL   H24023546   2.645   4.169   7.362  2.2714  0.4844 -0.3924
   44MOL   H24123547   2.570   4.028   7.378  0.4945 -0.4577 -0.3032
   44MOL   H24223548   2.672   4.037   7.238  1.5568  0.8104 -0.5799
   44MOL   H24323549   2.745   4.131   7.579  0.8986  0.8118 -0.4329
   44MOL   H24423550   2.874   4.024   7.608  0.1928 -1.4784  0.3573
   44MOL   C24523551   2.776   3.444   7.261  0.0795  0.0376 -0.0005
   44MOL   C24623552   2.701   3.368   7.377  0.1812 -0.5004 -0.0537
   44MOL   C24723553   2.670   3.466   7.485  0.4950  0.4523  0.4660
   44MOL   C24823554   2.770   3.470   7.600  0.6818  0.3095 -0.8833
   44MOL   C24923555   2.719   3.558   7.723 -0.0103  0.2262  0.2816
   44MOL   O25023556   2.677   3.689   7.686 -0.1806  0.6585  0.4204
   44MOL   C25123557   2.757   3.787   7.674 -0.2275  0.0620  0.5478
   44MOL   O25223558   2.882   3.773   7.687 -0.9892 -0.3532 -0.0087
   44MOL   C25323559   2.687   3.929   7.670 -0.3349 -0.0505 -0.1846
   44MOL   C25423560   2.545   3.923   7.610 -0.1535 -0.4753  0.2589
   44MOL   C25523561   2.697   4.002   7.813  0.6111 -0.4646 -0.3243
   44MOL   H25623562   2.883   3.464   7.270 -0.3847  3.5837 -1.5820
   44MOL   H25723563   2.771   3.378   7.173 -1.5237 -0.7436  0.6597
   44MOL   H25823564   2.737   3.539   7.226 -1.1926 -1.7291 -3.7153
   44MOL   H25923565   2.617   3.313   7.334 -1.7894 -0.8384  3.9412
   44MOL   H26023566   2.754   3.281   7.416 -1.7980 -1.0210  1.5609
   44MOL   H26123567   2.573   3.440   7.528  0.5093  1.8635  1.3974
   44MOL   H26223568   2.667   3.569   7.449  1.6439  1.2463  2.5382
   44MOL   H26323569   2.787   3.366   7.628 -0.7730  0.5040  0.7867
   44MOL   H26423570   2.863   3.512   7.560  0.3547  1.6092 -0.3125
   44MOL   H26523571   2.635   3.501   7.763  0.7227 -2.6706 -2.1236
   44MOL   H26623572   2.790   3.562   7.806 -0.3676  1.8771  0.5227
   44MOL   H26723573   2.471   3.878   7.677 -1.6240 -1.0319 -1.6925
   44MOL   H26823574   2.523   4.029   7.602  1.1654 -0.2178  0.0312
   44MOL   H26923575   2.543   3.875   7.512 -1.8638 -0.2496  0.1646
   44MOL   H27023576   2.789   4.058   0.007  0.6924 -0.5337 -0.7982
   44MOL   H27123577   2.633   4.090   7.801  1.6081  0.1539 -1.1486
   44MOL   C27223578   2.132   4.149   7.494 -0.1737 -0.3364 -0.0291
   44MOL   C27323579   2.133   4.013   7.562 -0.1851  1.3432 -0.3343
   44MOL   C27423580   2.203   4.004   7.690 -0.0638 -0.9374  0.1533
   44MOL   C27523581   2.227   3.873   7.758 -0.5609  0.3200 -0.3702
   44MOL   C27623582   2.293   3.888   0.078  0.1575  0.4246  0.6878
   44MOL   O27723583   2.426   3.951   0.082  0.0114  0.0155 -0.3958
   44MOL   C27823584   2.521   3.876   0.130 -0.1455  0.0585 -0.3938
   44MOL   O27923585   2.511   3.760   0.166  0.1763  0.5493 -0.1449
   44MOL   C28023586   2.656   3.946   0.138  0.2424  0.4507 -0.1625
   44MOL   C28123587   2.762   3.838   0.180  0.4133  0.7183 -0.6846
   44MOL   C28223588   2.667   4.062   0.247 -0.1276  0.1363 -0.1233
   44MOL   H28323589   2.073   4.146   7.402  0.7310  0.0680 -0.6204
   44MOL   H28423590   2.080   4.214   7.564 -0.2858 -0.9392  0.4544
   44MOL   H28523591   2.234   4.184   7.478 -0.5135  0.4369 -0.5193
   44MOL   H28623592   2.027   3.998   7.581  0.4019 -0.3091  1.8210
   44MOL   H28723593   2.172   3.937   7.494  2.6533  1.3801  1.1620
   44MOL   H28823594   2.302   4.047   7.674  0.0118 -1.1275  0.1009
   44MOL   H28923595   2.170   4.071   7.769 -0.1751  0.2705 -0.8961
   44MOL   H29023596   2.137   3.824   7.796  1.0291 -1.7627  0.8557
   44MOL   H29123597   2.280   3.808   7.689 -0.5738  0.0834 -0.1565
   44MOL   H29223598   2.296   3.788   0.122  0.3883 -0.9849 -2.4060
   44MOL   H29323599   2.217   3.934   0.142 -0.0744  0.4277  0.4103
   44MOL   H29423600   2.867   3.869   0.178  1.5864 -2.8620  0.3266
   44MOL   H29523601   2.739   3.803   0.281  0.4717  1.5557 -0.3755
   44MOL   H29623602   2.772   3.745   0.124 -1.8088  0.9052 -1.4306
   44MOL   H29723603   2.775   4.074   0.260  0.0665 -0.7290 -0.8650
   44MOL   H29823604   2.633   4.150   0.193  2.3515  0.5707 -1.0789
   44MOL   C29923605   2.389   4.370   7.626  0.4518 -0.8854 -0.0347
   44MOL   C30023606   2.319   4.436   7.746  0.0517 -0.1087  0.5447
   44MOL   C30123607   2.321   4.351   0.059 -0.3653 -0.4735 -0.3743
   44MOL   C30223608   2.315   4.415   0.199  0.3068 -0.1424 -0.4678
   44MOL   C30323609   2.316   4.304   0.309 -0.7206 -0.2036 -0.0395
   44MOL   O30423610   2.444   4.237   0.308 -0.0749  0.1553  0.0097
   44MOL   C30523611   2.448   4.111   0.364  0.3257 -0.1122  0.5919
   44MOL   O30623612   2.350   4.054   0.413  0.2929  0.4006  0.4857
   44MOL   C30723613   2.592   4.058   0.381  0.2983  0.3969 -0.7998
   44MOL   C30823614   2.577   3.920   0.451 -0.0656  0.3378  0.0609
   44MOL   C30923615   2.673   4.159   0.475 -0.3977  0.5875  0.4946
   44MOL   H31023616   2.490   4.405   7.606  0.4207 -0.5819  0.3360
   44MOL   H31123617   2.322   4.368   7.540 -1.5648 -1.7327  1.4956
   44MOL   H31223618   2.402   4.268   7.663  2.4175 -1.2490 -1.6833
   44MOL   H31323619   2.217   4.457   7.715 -0.2116 -1.2836  0.5837
   44MOL   H31423620   2.363   4.534   7.762 -0.5809  0.0058  1.6731
   44MOL   H31523621   2.422   4.310   0.062  0.6025  1.8923  0.6838
   44MOL   H31623622   2.248   4.272   0.040 -1.5005  0.3221  0.6341
   44MOL   H31723623   2.222   4.472   0.207 -1.3671 -2.5579 -1.6941
   44MOL   H31823624   2.391   4.491   0.213 -0.3005  0.2599  0.7630
   44MOL   H31923625   2.291   4.341   0.409 -1.7305 -0.9515 -0.0070
   44MOL   H32023626   2.234   4.240   0.276  0.6882 -2.7053  1.2220
   44MOL   H32123627   2.521   3.923   0.545 -0.6850  0.1035 -0.2983
   44MOL   H32223628   2.514   3.856   0.390  1.2534  0.7746 -1.8020
   44MOL   H32323629   2.675   3.875   0.472 -0.2837 -1.8217 -3.1819
   44MOL   H32423630   2.667   4.261   0.438 -0.3578  0.3155 -0.2818
   44MOL   H32523631   2.780   4.145   0.460 -0.6250 -1.0583  0.3359
   44MOL   C32623632   3.222   3.822   1.162  0.7448 -0.7561  0.5876
   44MOL   C32723633   3.158   3.930   1.067  0.2222 -0.0221  0.1420
   44MOL   C32823634   3.056   3.870   0.970 -0.5464  0.5370  0.2448
   44MOL   C32923635   3.006   3.980   0.880  0.0463 -0.0869  0.3873
   44MOL   C33023636   2.906   3.926   0.772 -0.0997  0.3419 -0.4190
   44MOL   O33123637   2.845   4.040   0.691  0.3252  0.9002 -0.1936
   44MOL   C33223638   2.707   4.053   0.710 -0.0296 -0.5501 -0.2364
   44MOL   O33323639   2.637   3.997   0.794 -0.3243  0.3086 -0.0293
   44MOL   C33423640   2.651   4.175   0.632 -0.5045 -0.4651 -0.7275
   44MOL   C33523641   2.741   4.305   0.670  0.4731  0.0005 -0.1395
   44MOL   C33623642   2.499   4.202   0.662 -0.1317  0.0898  0.8597
   44MOL   H33723643   3.288   3.870   1.234  1.8125 -2.0172  0.4581
   44MOL   H33823644   3.282   3.749   1.109 -0.0057  0.2016 -1.6414
   44MOL   H33923645   3.147   3.779   1.229  1.1142 -0.4465  1.2118
   44MOL   H34023646   3.240   3.982   1.017  0.7705  0.2530  1.3092
   44MOL   H34123647   3.113   4.009   1.126  0.3718 -1.1045  1.7283
   44MOL   H34223648   2.980   3.816   1.027  0.1877 -1.6856 -0.8334
   44MOL   H34323649   3.099   3.794   0.905 -2.4230 -0.9098  0.6256
   44MOL   H34423650   3.096   4.021   0.833 -0.3264  1.8932  1.3368
   44MOL   H34523651   2.959   4.058   0.940 -0.4351 -0.7660  0.9026
   44MOL   H34623652   2.833   3.855   0.810  0.2668 -0.9730 -2.0952
   44MOL   H34723653   2.972   3.872   0.703  1.4076  1.8158 -0.1585
   44MOL   H34823654   2.709   4.392   0.612 -2.6413 -2.0309 -1.6233
   44MOL   H34923655   2.848   4.288   0.664  0.7955  0.1975  3.5597
   44MOL   H35023656   2.730   4.326   0.776  0.0985  4.2267 -0.9402
   44MOL   H35123657   2.450   4.108   0.637 -0.6318  0.7611 -0.7782
   44MOL   H35223658   2.468   4.276   0.588  0.5728 -1.0403 -0.5842
   44MOL   C35323659   2.175   4.894   0.499  0.3761  1.0027 -0.6357
   44MOL   C35423660   2.153   4.741   0.493  0.4194  0.0827  0.1755
   44MOL   C35523661   2.238   4.673   0.599 -0.3336  0.5066 -0.1181
   44MOL   C35623662   2.396   4.686   0.585  0.0448 -0.5227  0.3068
   44MOL   C35723663   2.484   4.633   0.703  0.6560 -0.2193 -0.3359
   44MOL   O35823664   2.461   4.493   0.695 -0.4760 -0.6107 -0.9166
   44MOL   C35923665   2.478   4.420   0.801  0.3291 -0.8054 -0.5198
   44MOL   O36023666   2.518   4.470   0.907  0.1042 -0.2822 -0.1020
   44MOL   C36123667   2.436   4.270   0.790 -0.5471 -0.0052  0.3217
   44MOL   C36223668   2.476   4.199   0.929  0.4478  0.3473  0.2733
   44MOL   C36323669   2.281   4.249   0.755  0.6724  0.1653 -0.2017
   44MOL   H36423670   2.129   4.947   0.415 -3.2175 -1.3074 -0.2315
   44MOL   H36523671   2.280   4.924   0.495  0.7825 -0.2595  0.2386
   44MOL   H36623672   2.139   4.929   0.595  1.1778 -0.8927  0.3902
   44MOL   H36723673   2.053   4.701   0.509 -0.4055  1.7924 -0.5355
   44MOL   H36823674   2.176   4.711   0.391 -1.6572 -0.2761 -0.2006
   44MOL   H36923675   2.218   4.566   0.595 -0.3348  0.4839  0.4745
   44MOL   H37023676   2.201   4.714   0.693  0.9582  1.6421 -0.0854
   44MOL   H37123677   2.412   4.793   0.570 -1.2060 -0.3432  0.1917
   44MOL   H37223678   2.436   4.635   0.498  0.7414 -1.0257  0.9184
   44MOL   H37323679   2.588   4.665   0.700  0.4005  0.5835 -0.8762
   44MOL   H37423680   2.439   4.678   0.792 -0.5110 -0.5554 -0.7509
   44MOL   H37523681   2.584   4.193   0.922  0.6797  3.4228  0.2735
   44MOL   H37623682   2.456   4.249   1.024 -1.3453  2.3343 -1.0997
   44MOL   H37723683   2.448   4.095   0.945  2.1236  0.1697  2.2719
   44MOL   H37823684   2.272   4.312   0.667  0.7884  0.3200 -0.1032
   44MOL   H37923685   2.264   4.151   0.710  0.6271  0.3565 -0.6019
   44MOL   C38023686   1.425   3.916   0.607  0.2865  0.2014 -0.1321
   44MOL   C38123687   1.577   3.907   0.659 -0.1188 -0.2984 -0.3629
   44MOL   C38223688   1.642   4.047   0.660  0.2821 -0.0213  0.1823
   44MOL   C38323689   1.774   4.063   0.737 -0.4165 -0.4295 -0.4785
   44MOL   C38423690   1.800   4.211   0.759 -1.1048  0.3099 -0.6894
   44MOL   O38523691   1.922   4.223   0.833 -0.1800 -0.3318 -0.6188
   44MOL   C38623692   2.040   4.239   0.764  0.1034  0.2110 -0.4086
   44MOL   O38723693   2.036   4.230   0.640  0.2481  0.4360 -1.2223
   44MOL   C38823694   2.166   4.269   0.853 -0.6048 -0.9037  0.1267
   44MOL   C38923695   2.175   4.167   0.966 -0.1754 -0.1656 -0.1253
   44MOL   C39023696   2.171   4.415   0.899  0.0891  0.2963 -0.1300
   44MOL   H39123697   1.347   3.931   0.681 -1.0151  0.1775 -1.4877
   44MOL   H39223698   1.424   3.995   0.531  0.5889  0.8991  0.5863
   44MOL   H39323699   1.406   3.825   0.551 -2.6650 -0.5283  1.9430
   44MOL   H39423700   1.627   3.835   0.595  0.5857 -0.0308 -0.1253
   44MOL   H39523701   1.587   3.869   0.761  1.4354  0.5986 -0.1711
   44MOL   H39623702   1.650   4.082   0.557  0.0354 -1.6702 -0.4153
   44MOL   H39723703   1.567   4.113   0.703 -0.1656 -1.2370  1.3066
   44MOL   H39823704   1.773   4.029   0.841 -1.4025  2.2714  0.4282
   44MOL   H39923705   1.848   4.009   0.678 -0.0637  0.3373 -0.7370
   44MOL   H40023706   1.720   4.257   0.817  0.1232  2.1980 -0.4682
   44MOL   H40123707   1.801   4.260   0.662 -3.4724  1.6810 -0.0820
   44MOL   H40223708   2.083   4.130   1.011 -1.2808  0.4770 -1.8008
   44MOL   H40323709   2.235   4.197   1.051 -1.9013  2.1523  0.3243
   44MOL   H40423710   2.219   4.079   0.918 -1.2204  0.4970 -2.4012
   44MOL   H40523711   2.187   4.471   0.807  1.4159  1.3472  0.7063
   44MOL   H40623712   2.263   4.432   0.955  0.5269 -1.3152 -0.3486
   44MOL   C40723713   1.455   4.714   0.463 -0.5782 -0.0017  0.7013
   44MOL   C40823714   1.558   4.679   0.575 -0.6017 -0.5297  0.0815
   44MOL   C40923715   1.697   4.754   0.560 -0.0049 -0.4403 -0.4753
   44MOL   C41023716   1.797   4.732   0.674 -0.4403 -0.2559 -0.5950
   44MOL   C41123717   1.856   4.589   0.685 -0.3168  0.1754 -0.4423
   44MOL   O41223718   1.958   4.572   0.781 -0.1331 -0.0633 -0.2750
   44MOL   C41323719   1.928   4.510   0.901  0.5153 -0.4363  1.0089
   44MOL   O41423720   1.820   4.474   0.950  0.5237 -0.2154  0.5623
   44MOL   C41523721   2.056   4.486   0.984 -0.5526 -0.4097 -0.5493
   44MOL   C41623722   2.027   4.401   1.112  0.4289  0.2801 -0.0283
   44MOL   C41723723   2.122   4.629   1.026 -0.7847  0.4860 -0.1521
   44MOL   H41823724   1.371   4.651   0.493  0.2092 -1.6231 -0.3890
   44MOL   H41923725   1.439   4.821   0.469  1.3859  0.3492 -0.1012
   44MOL   H42023726   1.505   4.691   0.368 -0.5150  1.6389  0.3279
   44MOL   H42123727   1.578   4.573   0.588 -1.6897 -1.0416 -2.2348
   44MOL   H42223728   1.517   4.717   0.669  1.1290  1.6421  0.0179
   44MOL   H42323729   1.738   4.730   0.462  2.4517  1.4208  0.0599
   44MOL   H42423730   1.669   4.859   0.555 -0.5310 -0.5189  0.6280
   44MOL   H42523731   1.737   4.751   0.763 -1.2155 -0.0763 -1.1502
   44MOL   H42623732   1.873   4.810   0.670 -1.6935  1.0849  0.9603
   44MOL   H42723733   1.780   4.514   0.703  2.2977 -2.0289  1.7672
   44MOL   H42823734   1.904   4.556   0.593 -2.3578 -2.8511 -0.4848
   44MOL   H42923735   1.955   4.453   1.175  1.0010  0.1610  0.7229
   44MOL   H43023736   2.119   4.379   1.166 -0.8636  0.0156  2.0979
   44MOL   H43123737   1.982   4.307   1.080 -0.9675  1.3682 -1.3816
   44MOL   H43223738   2.163   4.679   0.938 -2.8626  3.1874  0.3512
   44MOL   H43323739   2.216   4.600   1.072 -1.5529 -2.0671 -0.1056
   44MOL   C43423740   1.356   4.560   0.941  0.6137 -0.0151  0.1149
   44MOL   C43523741   1.387   4.617   1.079  0.2593  0.0630 -0.1500
   44MOL   C43623742   1.535   4.634   1.092  0.4558  0.0172  0.0896
   44MOL   C43723743   1.595   4.696   1.217  0.1697 -0.1573  0.3079
   44MOL   C43823744   1.729   4.647   1.267  0.4087  0.5000 -0.2661
   44MOL   O43923745   1.830   4.697   1.185  0.0801 -0.6031 -0.7037
   44MOL   C44023746   1.959   4.691   1.220 -0.6477 -0.0197 -0.2808
   44MOL   O44123747   2.000   4.646   1.330  0.1777 -0.7877 -0.0619
   44MOL   C44223748   2.058   4.746   1.114 -0.4644 -0.9758  0.1609
   44MOL   C44323749   1.979   4.830   1.008 -0.3369  0.4461  0.0851
   44MOL   C44423750   2.169   4.826   1.187  0.6675 -0.2958 -1.0730
   44MOL   H44523751   1.376   4.453   0.943  0.0679 -0.1065  1.7729
   44MOL   H44623752   1.251   4.559   0.909  0.8442  2.0430 -0.7817
   44MOL   H44723753   1.398   4.612   0.855  1.3210 -0.7281  0.0311
   44MOL   H44823754   1.336   4.713   1.089  0.4960  0.0739  0.9556
   44MOL   H44923755   1.347   4.555   1.159  0.6256  0.5157  0.3855
   44MOL   H45023756   1.573   4.532   1.085 -0.6252 -0.4497  0.8794
   44MOL   H45123757   1.581   4.680   1.005  0.7117 -1.7691 -0.7315
   44MOL   H45223758   1.519   4.677   1.292 -1.0631 -2.5751 -1.4780
   44MOL   H45323759   1.589   4.804   1.201 -1.3996 -0.4562 -1.2795
   44MOL   H45423760   1.729   4.538   1.258 -2.5427  0.5795 -1.8130
   44MOL   H45523761   1.742   4.685   1.368 -1.2652  0.9595 -0.2202
   44MOL   H45623762   2.049   4.869   0.934  0.5688  0.3668  0.8981
   44MOL   H45723763   1.911   4.770   0.948 -1.7492  1.7596  0.3056
   44MOL   H45823764   1.926   4.920   1.041  0.1850  1.2388 -1.2236
   44MOL   H45923765   2.248   4.841   1.114  0.7661  0.6238 -0.7846
   44MOL   H46023766   2.207   4.754   1.260 -0.9905  1.1294  1.2679
   44MOL   C46123767   1.504   4.755   1.733  0.4206  0.1545  0.4503
   44MOL   C46223768   1.630   4.763   1.653  0.2989  0.2592  0.0409
   44MOL   C46323769   1.747   4.840   1.711  0.5336 -0.6472 -0.4447
   44MOL   C46423770   1.879   4.847   1.625 -0.5633 -0.4676 -0.0802
   44MOL   C46523771   1.883   4.946   1.507  0.5535  0.6146 -0.2399
   44MOL   O46623772   1.991   4.919   1.413  0.1477  0.1313 -0.4450
   44MOL   C46723773   2.026   4.998   1.310  0.0265 -0.3707 -0.0523
   44MOL   O46823774   1.955   5.093   1.274  0.2987 -0.9244  0.3159
   44MOL   C46923775   2.165   4.966   1.254 -0.2505  0.2890  0.1742
   44MOL   C47023776   2.193   5.069   1.138 -0.3777  0.9218 -0.2279
   44MOL   C47123777   2.258   4.974   1.374  0.4162  0.1006 -0.2631
   44MOL   H47223778   1.507   4.670   1.801 -2.0349 -1.3553 -1.2200
   44MOL   H47323779   1.418   4.720   1.674 -1.0130  1.4294  1.7456
   44MOL   H47423780   1.490   4.852   1.779 -2.3615  0.0499 -0.0536
   44MOL   H47523781   1.616   4.807   1.555 -1.2305  1.2815  0.7080
   44MOL   H47623782   1.672   4.668   1.620  1.1550  0.9247 -0.8247
   44MOL   H47723783   1.778   4.807   1.810  0.2595  0.1571 -0.0840
   44MOL   H47823784   1.715   4.942   1.733  1.0289 -0.9597  1.8645
   44MOL   H47923785   1.911   4.749   1.590 -0.4751 -1.6275  3.0573
   44MOL   H48023786   1.958   4.882   1.692 -1.1614  0.1833  0.2898
   44MOL   H48123787   1.790   4.942   1.450  0.9480  1.7952 -0.9802
   44MOL   H48223788   1.883   5.050   1.540  0.4758 -0.0315  1.8837
   44MOL   H48323789   2.213   5.169   1.175 -0.3544  1.9393 -2.8997
   44MOL   H48423790   2.124   5.070   1.054  0.7150 -1.4626 -1.2306
   44MOL   H48523791   2.288   5.043   1.091 -0.2871  0.3948  0.2414
   44MOL   H48623792   2.226   4.884   1.426  1.1231 -0.4540 -0.7704
   44MOL   H48723793   2.224   5.056   1.437  0.8175 -1.5228  2.1420
   44MOL   C48823794   2.761   4.488   1.520 -0.8931 -0.0168  1.2275
   44MOL   C48923795   2.635   4.526   1.443 -0.8757 -1.0117  1.0884
   44MOL   C49023796   2.600   4.445   1.317  0.3357 -0.3321 -0.1585
   44MOL   C49123797   2.468   4.511   1.257 -0.5586  0.6817  0.0729
   44MOL   C49223798   2.500   4.646   1.183  1.1622  0.1094 -0.4449
   44MOL   O49323799   2.451   4.748   1.270  0.1293  0.2141 -0.2397
   44MOL   C49423800   2.475   4.881   1.249 -0.1083  0.0407  0.3823
   44MOL   O49523801   2.535   4.923   1.148 -0.4169 -1.0294 -0.0827
   44MOL   C49623802   2.416   4.979   1.366 -0.7984  0.0720  0.5524
   44MOL   C49723803   2.461   4.940   1.505  0.4067  0.1158 -0.0260
   44MOL   C49823804   2.464   5.130   1.336  0.3319  0.0974  0.0883
   44MOL   H49923805   2.758   4.394   1.575  1.2876 -0.5921  0.3962
   44MOL   H50023806   2.846   4.478   1.453 -0.8804  0.8992  1.1072
   44MOL   H50123807   2.772   4.572   1.588 -1.8597  1.4696 -0.4097
   44MOL   H50223808   2.656   4.627   1.407  0.9186 -0.5348  3.3613
   44MOL   H50323809   2.542   4.540   1.499  0.9913 -1.1302  4.2917
   44MOL   H50423810   2.674   4.446   1.236  0.4676 -0.5704 -0.0421
   44MOL   H50523811   2.571   4.345   1.349  3.6771 -0.8213  1.5914
   44MOL   H50623812   2.389   4.524   1.331 -0.5106 -3.0255  0.8511
   44MOL   H50723813   2.432   4.436   1.188  0.8966  0.8434 -0.8904
   44MOL   H50823814   2.606   4.661   1.165  0.4904  2.4231 -2.9945
   44MOL   H50923815   2.444   4.649   1.089 -1.2387 -1.7986  0.8512
   44MOL   H51023816   2.567   4.915   1.499  0.0346 -1.3546 -0.7321
   44MOL   H51123817   2.417   4.845   1.535 -0.7598  0.6203 -0.1061
   44MOL   H51223818   2.449   5.014   1.584  1.9751  0.4208 -0.0627
   44MOL   H51323819   2.389   5.201   1.372 -2.1486 -2.0121 -0.7601
   44MOL   H51423820   2.452   5.145   1.229 -1.2817 -0.3574  0.1855
   44MOL   C51523821   3.299   5.019   1.397  0.7531 -0.0919  0.4152
   44MOL   C51623822   3.215   4.996   1.272  0.1017  0.6541  0.8260
   44MOL   C51723823   3.057   4.986   1.285 -0.4080  0.2058 -0.3357
   44MOL   C51823824   2.988   5.032   1.151 -0.9903 -0.3211 -0.0898
   44MOL   C51923825   2.836   5.019   1.139 -0.0070  0.1751 -0.0339
   44MOL   O52023826   2.760   5.109   1.209 -0.0568 -0.0905 -0.2492
   44MOL   C52123827   2.720   5.093   1.329 -0.1926  0.2929  0.1590
   44MOL   O52223828   2.774   5.010   1.401  0.1257  0.2141  0.0181
   44MOL   C52323829   2.607   5.181   1.378  0.0462  0.5180  0.9679
   44MOL   C52423830   2.604   5.219   1.533  0.1802 -0.3353  0.1574
   44MOL   C52523831   2.621   5.321   1.302  1.0784 -0.7916 -0.1959
   44MOL   H52623832   3.264   5.099   1.462  1.6400  1.0802 -0.5181
   44MOL   H52723833   3.309   4.930   1.460 -0.8759 -0.2228  0.5006
   44MOL   H52823834   3.401   5.048   1.373  0.5974 -0.2031 -0.3998
   44MOL   H52923835   3.236   5.088   1.216  0.7556  0.3929  0.6416
   44MOL   H53023836   3.250   4.915   1.208 -0.7425 -0.5805  1.9192
   44MOL   H53123837   3.014   4.891   1.317 -1.5362  0.2685 -1.6345
   44MOL   H53223838   3.046   5.066   1.358  0.7799 -0.5624  0.7201
   44MOL   H53323839   3.034   4.973   1.071  2.7477  1.7302  0.4156
   44MOL   H53423840   3.025   5.133   1.135  0.5458 -0.8230  0.1768
   44MOL   H53523841   2.804   5.039   1.037 -1.7135  1.9002  0.8111
   44MOL   H53623842   2.802   4.917   1.153 -0.3233  0.3671  0.5883
   44MOL   H53723843   2.605   5.143   1.611  0.7907  0.9283  1.4270
   44MOL   H53823844   2.525   5.293   1.548 -1.3266 -1.8300 -0.1997
   44MOL   H53923845   2.699   5.269   1.551 -0.1041 -0.1332  1.1222
   44MOL   H54023846   2.601   5.322   1.195  2.3863 -3.5145 -0.4896
   44MOL   H54123847   2.719   5.362   1.325 -0.1925  1.9244  0.6618
   44MOL   H54223848   2.541   5.389   1.332  0.3530 -1.4797 -0.5525
   45MOL     C123849   2.848   1.611   6.488 -0.2663 -0.0235  0.2456
   45MOL     C223850   2.898   1.510   6.589 -0.8112  0.0230 -0.1605
   45MOL     C323851   3.043   1.475   6.555 -0.5652  0.1401 -0.0247
   45MOL     C423852   3.110   1.384   6.655 -0.4215 -0.8405 -0.2281
   45MOL     C523853   3.255   1.342   6.606 -0.8254  0.6485  0.3319
   45MOL     O623854   3.327   1.460   6.584  0.3600 -0.1930 -0.1223
   45MOL     C723855   3.459   1.459   6.568 -0.1494  0.4331  0.1690
   45MOL     O823856   3.534   1.362   6.591  0.2499 -0.2286  0.1087
   45MOL     C923857   3.513   1.596   6.541  0.3625  0.3354  0.2706
   45MOL    C1023858   3.486   1.676   6.666  0.7721  0.2248  0.2830
   45MOL    C1123859   3.449   1.663   6.416 -0.1674 -0.2307 -0.0181
   45MOL    H1223860   2.744   1.642   6.491 -0.3208 -0.2194  0.3418
   45MOL    H1323861   2.849   1.561   6.391 -1.1866 -1.4347  0.9524
   45MOL    H1423862   2.900   1.707   6.491 -1.6228  0.6941  1.2402
   45MOL    H1523863   2.889   1.566   6.682 -0.1564  1.6620 -1.0640
   45MOL    H1623864   2.835   1.421   6.585 -0.2455 -0.4780  1.5617
   45MOL    H1723865   3.052   1.417   6.463 -0.5798 -0.3063  0.2535
   45MOL    H1823866   3.111   1.558   6.537 -0.1152  0.0552  1.2349
   45MOL    H1923867   3.050   1.295   6.676  0.4501 -1.0278  1.5565
   45MOL    H2023868   3.124   1.437   6.750  0.0254 -0.6215 -0.4135
   45MOL    H2123869   3.319   1.289   6.677  1.3834  0.9383 -1.3757
   45MOL    H2223870   3.241   1.275   6.522  0.0364  0.3956  0.3832
   45MOL    H2323871   3.565   1.749   6.680  1.4880 -0.4109 -0.3846
   45MOL    H2423872   3.483   1.610   6.752 -2.1901 -0.3650 -0.1961
   45MOL    H2523873   3.386   1.722   6.667  1.5266  1.9962 -1.1742
   45MOL    H2623874   3.370   1.734   6.443 -0.9280 -0.7833 -0.7543
   45MOL    H2723875   3.402   1.583   6.359 -0.9687 -0.6286  1.1881
   45MOL    H2823876   3.620   1.583   6.527  0.1445 -0.0720 -1.1026
   45MOL    C2923877   4.323   1.773   6.271  0.0987  0.2064  0.7084
   45MOL    C3023878   4.184   1.836   6.295 -0.4682 -0.3415 -0.1323
   45MOL    C3123879   4.084   1.734   6.349  0.3716 -0.5933  0.3968
   45MOL    C3223880   4.025   1.656   6.230  0.2714  0.0964  0.7253
   45MOL    C3323881   3.892   1.582   6.259  0.0081 -0.0113  0.3505
   45MOL    O3423882   3.785   1.677   6.278  0.3259 -0.0650  0.0933
   45MOL    C3523883   3.657   1.642   6.267  0.5380 -0.3805  0.4673
   45MOL    O3623884   3.618   1.541   6.211  0.5246  0.5431  0.1406
   45MOL    C3723885   3.551   1.740   6.331  0.2734 -0.1041 -0.1138
   45MOL    C3823886   3.626   1.838   6.433  0.1019  0.6328  0.1549
   45MOL    C3923887   3.471   1.827   6.225 -0.1578 -0.5704 -0.5520
   45MOL    H4023888   4.350   1.708   6.354  0.2164 -0.5457  0.0939
   45MOL    H4123889   4.332   1.730   6.171  0.5261 -0.5443  1.0674
   45MOL    H4223890   4.408   1.839   6.282 -0.1953  0.7840 -0.3696
   45MOL    H4323891   4.145   1.895   6.212 -0.9554 -0.9180 -0.3199
   45MOL    H4423892   4.194   1.911   6.374 -0.9214  0.3652 -0.7350
   45MOL    H4523893   4.002   1.786   6.398  0.5467 -0.1111  0.1719
   45MOL    H4623894   4.115   1.663   6.426  1.2771  0.8838  1.4216
   45MOL    H4723895   3.998   1.731   6.155 -0.1132 -0.3329  0.4285
   45MOL    H4823896   4.099   1.590   6.184 -1.4490  0.2196 -2.3646
   45MOL    H4923897   3.907   1.539   6.358  0.3689 -0.9204 -0.0921
   45MOL    H5023898   3.870   1.505   6.185  0.1465  0.2783  0.0085
   45MOL    H5123899   3.677   1.786   6.513  0.2360 -1.3968 -1.2260
   45MOL    H5223900   3.555   1.907   6.480 -0.2144  0.1185  0.4349
   45MOL    H5323901   3.709   1.895   6.391 -0.1297  3.4075  3.1936
   45MOL    H5423902   3.425   1.898   6.294 -0.6766 -1.3143 -0.1265
   45MOL    H5523903   3.386   1.770   6.187 -0.9590 -1.0434  1.8347
   45MOL    C5623904   3.095   1.410   5.656  0.3644  0.9087  0.0305
   45MOL    C5723905   3.222   1.333   5.692 -0.1009  0.3575 -0.7554
   45MOL    C5823906   3.343   1.425   5.705 -0.5921  0.3452 -0.3944
   45MOL    C5923907   3.351   1.501   5.834  0.0776 -0.0129 -0.2071
   45MOL    C6023908   3.477   1.592   5.853 -0.4221  0.2367 -0.4226
   45MOL    O6123909   3.469   1.679   5.973  0.2677  0.2225  0.4847
   45MOL    C6223910   3.551   1.792   5.975  0.2749  0.1969 -0.1552
   45MOL    O6323911   3.633   1.819   5.883  0.1946 -0.0701  0.1489
   45MOL    C6423912   3.525   1.897   6.096 -0.7808 -0.4451 -0.1048
   45MOL    C6523913   3.659   1.967   6.120  1.1116  0.3161 -0.4797
   45MOL    C6623914   3.419   2.016   6.056 -0.4423  1.5706 -0.1280
   45MOL    H6723915   3.075   1.504   5.707 -1.5762  0.9125 -0.6944
   45MOL    H6823916   3.006   1.353   5.681 -0.3244  1.0015 -2.0867
   45MOL    H6923917   3.092   1.435   5.550 -3.4884  0.5570 -0.0030
   45MOL    H7023918   3.218   1.286   5.790 -0.3609 -0.6796 -1.2591
   45MOL    H7123919   3.247   1.263   5.613  0.3673 -0.4956  0.1381
   45MOL    H7223920   3.426   1.356   5.693 -0.0098  0.6023  1.8928
   45MOL    H7323921   3.358   1.472   5.608 -1.9459 -3.3764 -2.5299
   45MOL    H7423922   3.361   1.428   5.914  0.7713 -0.1393 -0.4115
   45MOL    H7523923   3.263   1.561   5.860 -0.7216 -2.0365  1.9476
   45MOL    H7623924   3.556   1.521   5.875 -0.7659 -0.4976 -1.4806
   45MOL    H7723925   3.502   1.647   5.762 -1.3901 -0.2679 -1.0169
   45MOL    H7823926   3.667   2.008   6.221  0.6444 -2.1274  0.5886
   45MOL    H7923927   3.673   2.048   6.048 -1.0428 -0.1727 -1.4974
   45MOL    H8023928   3.738   1.892   6.118 -0.9645 -1.9092 -1.0605
   45MOL    H8123929   3.468   2.105   6.015 -0.3062  1.2490 -0.6675
   45MOL    H8223930   3.368   2.043   6.148  0.4783 -1.3063  1.2750
   45MOL    C8323931   3.311   2.441   5.446  0.6788 -0.1605  0.1595
   45MOL    C8423932   3.327   2.287   5.419 -0.3282 -0.3682  0.1085
   45MOL    C8523933   3.425   2.228   5.527  0.5608 -0.5129  0.4503
   45MOL    C8623934   3.452   2.079   5.512 -0.2813  0.8825  0.1761
   45MOL    C8723935   3.518   2.016   5.632  0.2699  0.4733  0.1919
   45MOL    O8823936   3.453   2.046   5.757 -0.6800  0.2777 -0.3696
   45MOL    C8923937   3.356   1.963   5.801 -0.0488  0.0172 -0.8666
   45MOL    O9023938   3.300   1.875   5.734 -0.4948  0.2094  0.1627
   45MOL    C9123939   3.308   1.991   5.946 -0.7210 -0.4356 -0.0719
   45MOL    C9223940   3.209   1.888   5.991 -0.0601  0.6288 -0.6602
   45MOL    C9323941   3.221   2.121   5.945 -0.3473  0.4752 -0.1363
   45MOL    H9423942   3.239   2.484   5.376  1.6148  1.5035  0.2065
   45MOL    H9523943   3.276   2.458   5.548  1.5000  0.4558  0.3382
   45MOL    H9623944   3.407   2.488   5.423 -0.5810  3.1239  1.3441
   45MOL    H9723945   3.365   2.259   5.320 -0.8159  0.3837 -0.2982
   45MOL    H9823946   3.235   2.232   5.438  0.7733 -1.4441  2.4726
   45MOL    H9923947   3.385   2.247   5.627  2.3099  0.7517  0.9415
   45MOL   H10023948   3.528   2.264   5.526  0.5981 -0.6555 -0.7107
   45MOL   H10123949   3.518   2.055   5.429 -0.4293 -1.9532  0.8419
   45MOL   H10223950   3.364   2.022   5.484  0.5755 -0.3057 -0.1367
   45MOL   H10323951   3.618   2.053   5.655  0.8511 -0.9455 -0.0121
   45MOL   H10423952   3.533   1.909   5.624  0.1411  0.3139  1.9750
   45MOL   H10523953   3.181   1.904   6.095  0.1796 -0.1941 -0.4602
   45MOL   H10623954   3.250   1.787   6.001 -2.2277 -0.1692  0.4577
   45MOL   H10723955   3.130   1.871   5.919  0.6621 -0.5483 -1.1990
   45MOL   H10823956   3.211   2.165   6.044  1.1742 -0.1158  0.2965
   45MOL   H10923957   3.282   2.201   5.902  1.6230 -0.7925  0.2318
   45MOL   C11023958   2.492   1.970   6.490  0.2845 -0.6484  0.4044
   45MOL   C11123959   2.567   2.049   6.385  0.5114 -0.4606  0.4191
   45MOL   C11223960   2.697   1.980   6.346  0.3310  0.6193  0.0600
   45MOL   C11323961   2.767   2.074   6.240 -0.1198  0.7294 -0.4406
   45MOL   C11423962   2.882   2.003   6.179 -0.1635 -0.5605 -0.6161
   45MOL   O11523963   2.974   2.080   6.099  0.2361  0.3957  0.3121
   45MOL   C11623964   2.971   2.057   5.966  0.3174  0.1569 -0.6706
   45MOL   O11723965   2.907   1.959   5.923  0.5019  0.0692  0.2939
   45MOL   C11823966   3.078   2.140   5.884  0.1431 -0.4016  0.3968
   45MOL   C11923967   3.067   2.090   5.738 -0.4210 -0.3473 -0.5044
   45MOL   C12023968   3.044   2.290   5.861  0.0581 -0.4312 -0.1172
   45MOL   H12123969   2.485   1.863   6.469 -1.3350 -0.3262 -0.7974
   45MOL   H12223970   2.542   1.991   6.584  3.4364 -0.6133 -1.2170
   45MOL   H12323971   2.390   2.006   6.501 -0.3952 -2.1503 -0.8170
   45MOL   H12423972   2.503   2.055   6.297  2.3731 -3.5269 -1.2463
   45MOL   H12523973   2.590   2.149   6.421 -2.0805  0.2741  0.1407
   45MOL   H12623974   2.761   1.975   6.434  1.5120  0.0774 -0.8107
   45MOL   H12723975   2.679   1.877   6.316  3.5036 -0.4595  1.6045
   45MOL   H12823976   2.805   2.157   6.299  1.0174  0.9026 -1.4064
   45MOL   H12923977   2.691   2.111   6.171 -1.1105 -1.0440 -0.3298
   45MOL   H13023978   2.945   1.969   6.261 -0.0232 -0.9969 -0.9092
   45MOL   H13123979   2.848   1.907   6.140  0.2779 -1.0811  0.2850
   45MOL   H13223980   2.967   2.103   5.698  0.0262 -0.4754 -1.7120
   45MOL   H13323981   3.143   2.137   5.675 -0.1982 -1.5888 -1.1798
   45MOL   H13423982   3.085   1.982   5.747  1.0682  0.0836  1.8994
   45MOL   H13523983   3.121   2.329   5.794 -1.0094  1.5239 -0.2275
   45MOL   H13623984   2.959   2.297   5.793 -0.6836  0.1597  0.8704
   45MOL   C13723985   2.161   2.557   6.081  0.6367 -0.1836  0.7455
   45MOL   C13823986   2.310   2.560   6.029  0.1807  0.4094  0.5238
   45MOL   C13923987   2.394   2.430   6.040  0.8823  0.3338 -0.4013
   45MOL   C14023988   2.541   2.450   5.986 -0.6363 -0.3084  0.3275
   45MOL   C14123989   2.643   2.344   6.036 -0.0236  0.0474 -0.9507
   45MOL   O14223990   2.763   2.367   5.978  0.4003  0.3688  0.5469
   45MOL   C14323991   2.880   2.377   6.046 -0.1481  0.2113 -0.5062
   45MOL   O14423992   2.880   2.372   6.173  0.0948 -0.1584 -0.1711
   45MOL   C14523993   3.006   2.406   5.967  0.1578 -0.3369 -0.1547
   45MOL   C14623994   3.130   2.421   6.065 -0.3112 -0.3817 -0.1701
   45MOL   C14723995   2.992   2.536   5.875 -0.2815  0.1893  0.1946
   45MOL   H14823996   2.109   2.476   6.031 -0.2684  0.4743  0.6041
   45MOL   H14923997   2.108   2.652   6.077  0.6098 -0.0903  2.7883
   45MOL   H15023998   2.158   2.521   6.184 -0.7611 -3.7805 -0.4809
   45MOL   H15123999   2.358   2.651   6.067  0.9248  1.2798 -2.3193
   45MOL   H15224000   2.311   2.584   5.922  1.7279  1.9351  0.8378
   45MOL   H15324001   2.406   2.405   6.146  3.3692 -0.3298 -0.7959
   45MOL   H15424002   2.343   2.345   5.996  0.0451  0.7741 -0.2832
   45MOL   H15524003   2.541   2.463   5.878 -0.9053 -1.9076  0.1280
   45MOL   H15624004   2.573   2.540   6.039 -0.3381  0.0167 -0.4057
   45MOL   H15724005   2.616   2.242   6.009  0.0191  0.0267 -0.9159
   45MOL   H15824006   2.658   2.352   6.143 -0.9322 -0.5138 -0.7753
   45MOL   H15924007   3.233   2.415   6.031 -0.0396  1.4456  0.2736
   45MOL   H16024008   3.112   2.360   6.153  0.1196  0.2727  0.3766
   45MOL   H16124009   3.124   2.520   6.111 -0.5509  0.4752 -1.9631
   45MOL   H16224010   3.064   2.531   5.793 -0.4128 -1.3234  0.1527
   45MOL   H16324011   2.892   2.512   5.838  0.8943 -3.8535 -0.5894
   45MOL   C16424012   3.494   2.834   5.470 -0.3214  0.0723 -0.2716
   45MOL   C16524013   3.468   2.891   5.608  0.7895  0.4280 -0.7381
   45MOL   C16624014   3.457   2.782   5.715 -1.1042 -0.3718  0.2871
   45MOL   C16724015   3.416   2.838   5.854 -0.4927 -0.0387 -0.7497
   45MOL   C16824016   3.358   2.722   5.952  0.0994 -0.1773 -0.4657
   45MOL   O16924017   3.234   2.676   5.911  0.5215 -0.1610 -0.0151
   45MOL   C17024018   3.119   2.747   5.953 -0.0519  0.1042 -0.1878
   45MOL   O17124019   3.121   2.858   6.005 -0.1761  0.2433  0.0026
   45MOL   C17224020   2.985   2.688   5.924  0.3360  0.6806 -0.3114
   45MOL   C17324021   2.899   2.703   6.055  0.5044  0.4889  0.3430
   45MOL   C17424022   2.920   2.768   5.801  0.3203 -0.1564  0.1175
   45MOL   H17524023   3.550   2.894   5.399 -0.8410  1.7538  0.6995
   45MOL   H17624024   3.403   2.809   5.416  0.6233 -2.3097 -0.8519
   45MOL   H17724025   3.556   2.745   5.467 -0.4210  0.0166 -0.7626
   45MOL   H17824026   3.372   2.943   5.607 -1.3305 -3.3033 -0.4285
   45MOL   H17924027   3.543   2.965   5.632  0.9654  0.1516 -0.4386
   45MOL   H18024028   3.395   2.700   5.678 -0.2249 -0.5883 -0.7119
   45MOL   H18124029   3.553   2.732   5.726  0.6254  2.7411 -0.2584
   45MOL   H18224030   3.346   2.922   5.857 -0.3491  0.0164  2.0459
   45MOL   H18324031   3.513   2.876   5.884 -0.1074 -1.5648 -0.0366
   45MOL   H18424032   3.357   2.733   6.061  0.9896 -0.2320 -0.4518
   45MOL   H18524033   3.428   2.642   5.930  1.7943  1.3303 -0.6041
   45MOL   H18624034   2.930   2.642   6.140 -1.0906 -0.4680  0.2540
   45MOL   H18724035   2.796   2.676   6.030  0.9145 -1.8417  1.0614
   45MOL   H18824036   2.887   2.806   6.089 -1.1925  0.0277  1.2324
   45MOL   H18924037   2.811   2.758   5.803  0.2385  0.7283  2.8480
   45MOL   H19024038   2.929   2.870   5.839  1.9820 -0.8095  1.5494
   45MOL   C19124039   2.679   2.133   5.715 -0.0328  0.0504  0.3011
   45MOL   C19224040   2.561   2.217   5.656 -0.2063 -0.1591 -0.6263
   45MOL   C19324041   2.605   2.315   5.551  0.4545  0.3721 -0.3831
   45MOL   C19424042   2.674   2.434   5.605  0.4296  0.3751 -0.3459
   45MOL   C19524043   2.720   2.533   5.498  0.3832 -0.6776 -0.1602
   45MOL   O19624044   2.783   2.637   5.571 -0.3011  0.4341 -0.3254
   45MOL   C19724045   2.920   2.642   5.580 -0.2394 -0.4290  0.4759
   45MOL   O19824046   2.998   2.563   5.518  0.7561 -0.6598 -0.2881
   45MOL   C19924047   2.967   2.773   5.652  0.7881  0.1018 -0.2906
   45MOL   C20024048   3.119   2.782   5.636  0.4912  0.2643  0.4854
   45MOL   C20124049   2.889   2.895   5.582  0.0886 -0.3597 -0.1744
   45MOL   H20224050   2.726   2.079   5.633 -1.6268  0.8860 -1.2062
   45MOL   H20324051   2.757   2.197   5.757  1.0422 -0.4336 -0.9149
   45MOL   H20424052   2.645   2.066   5.794 -1.6742 -0.2854 -0.6681
   45MOL   H20524053   2.514   2.274   5.735  1.9440 -1.6392  1.8095
   45MOL   H20624054   2.477   2.157   5.621  0.1709 -0.3929 -1.1374
   45MOL   H20724055   2.514   2.342   5.497 -0.7027 -2.6057 -0.0245
   45MOL   H20824056   2.658   2.251   5.481  1.0581 -0.1775  0.5629
   45MOL   H20924057   2.611   2.484   5.678  1.6930 -1.1513  1.8675
   45MOL   H21024058   2.765   2.398   5.655 -1.8392 -2.7376  1.7337
   45MOL   H21124059   2.785   2.486   5.425  1.7621 -1.0707  1.2794
   45MOL   H21224060   2.633   2.574   5.447  0.6570 -0.6169 -0.5751
   45MOL   H21324061   3.128   2.810   5.532  1.1916 -1.8830 -0.0724
   45MOL   H21424062   3.174   2.688   5.649  0.9998  0.5283  0.2497
   45MOL   H21524063   3.166   2.865   5.688  0.1189  2.1132 -2.1014
   45MOL   H21624064   2.790   2.905   5.626 -0.5670 -1.7974 -1.2910
   45MOL   H21724065   2.878   2.859   5.479  0.4197 -0.6778 -0.1004
   45MOL   C21824066   3.014   2.503   5.133 -0.0624  0.2193 -0.3568
   45MOL   C21924067   3.070   2.637   5.074 -0.6630 -0.0184  0.3250
   45MOL   C22024068   3.092   2.738   5.186  0.0151  0.2240  0.1553
   45MOL   C22124069   3.134   2.879   5.136  0.1105 -0.2268 -0.4136
   45MOL   C22224070   3.163   2.971   5.251 -0.0276  0.1679  0.4053
   45MOL   O22324071   3.054   2.983   5.343  0.8472  0.2231  0.4659
   45MOL   C22424072   3.068   3.048   5.461  0.1122  0.2491 -0.5231
   45MOL   O22524073   3.169   3.112   5.488  0.7044  0.6377 -0.5418
   45MOL   C22624074   2.940   3.041   5.552  0.1350  0.3197  0.4205
   45MOL   C22724075   2.970   3.105   5.688  0.0167 -0.0731 -0.1654
   45MOL   C22824076   2.812   3.116   5.485  0.2501 -0.0454 -0.1738
   45MOL   H22924077   2.908   2.526   5.148  0.5216  1.3398  2.2021
   45MOL   H23024078   3.015   2.417   5.066  1.8010  0.9466 -1.2996
   45MOL   H23124079   3.049   2.480   5.234  2.2402 -2.3058 -1.6437
   45MOL   H23224080   3.002   2.672   4.996  1.7427 -0.9591 -2.2891
   45MOL   H23324081   3.161   2.612   5.020 -0.5084 -1.5370  1.2647
   45MOL   H23424082   3.151   2.688   5.262 -1.0800 -1.2951  0.0358
   45MOL   H23524083   2.999   2.750   5.242 -1.6330 -0.9913 -2.2212
   45MOL   H23624084   3.224   2.877   5.074  1.5607 -2.1430  1.6686
   45MOL   H23724085   3.057   2.920   5.070 -1.3550 -2.8414 -0.3837
   45MOL   H23824086   3.192   3.070   5.215  1.3405 -1.1497 -2.2310
   45MOL   H23924087   3.262   2.941   5.287 -0.0130 -1.0829 -0.6533
   45MOL   H24024088   3.031   3.044   5.756 -1.0136  2.3471  3.0675
   45MOL   H24124089   2.884   3.128   5.752  1.5015 -1.3073  2.3753
   45MOL   H24224090   3.035   3.192   5.680 -1.2968  1.2035  2.3669
   45MOL   H24324091   2.728   3.092   5.549 -0.5259 -0.7088 -1.4184
   45MOL   H24424092   2.784   3.062   5.395 -3.0059 -0.7222  1.1904
   45MOL   C24524093   2.795   3.177   6.181 -0.2882  0.7614 -0.1710
   45MOL   C24624094   2.877   3.261   6.088 -0.0461 -0.2086  0.0767
   45MOL   C24724095   2.787   3.308   5.973 -0.6828 -0.0098  0.1626
   45MOL   C24824096   2.856   3.411   5.886 -0.4544  0.6605 -0.0147
   45MOL   C24924097   2.766   3.467   5.766  0.3878 -0.0645  0.7918
   45MOL   O25024098   2.748   3.378   5.654 -0.9356  0.0653 -0.3253
   45MOL   C25124099   2.839   3.375   5.555 -0.4801 -0.5374 -0.6801
   45MOL   O25224100   2.940   3.446   5.546 -0.9857  0.1546 -0.0785
   45MOL   C25324101   2.804   3.271   5.444 -1.1908 -0.2376 -0.2540
   45MOL   C25424102   2.654   3.290   5.413  0.1285  0.5536  0.1040
   45MOL   C25524103   2.894   3.281   5.318 -0.2589  0.0927  0.1144
   45MOL   H25624104   2.773   3.075   6.150 -0.0457  0.4294  0.7218
   45MOL   H25724105   2.853   3.162   6.273  0.0061  0.0893 -0.4565
   45MOL   H25824106   2.700   3.225   6.203 -0.4394 -0.5029  2.2010
   45MOL   H25924107   2.917   3.344   6.146  0.0547 -1.9868  2.6613
   45MOL   H26024108   2.970   3.211   6.060 -0.0483 -0.1841  0.0238
   45MOL   H26124109   2.688   3.329   6.014  0.3705  2.8680  1.3522
   45MOL   H26224110   2.773   3.212   5.923 -2.7721 -0.8933  2.3379
   45MOL   H26324111   2.877   3.500   5.945  0.0222  0.4745  0.0967
   45MOL   H26424112   2.956   3.373   5.864 -0.8364  0.4853 -1.4826
   45MOL   H26524113   2.662   3.484   5.795 -0.1261  0.4004 -1.2540
   45MOL   H26624114   2.802   3.559   5.719  0.8805 -0.3394  0.6253
   45MOL   H26724115   2.628   3.389   5.376  0.4900  0.3554 -0.7009
   45MOL   H26824116   2.610   3.221   5.341 -0.4839 -1.2640  2.1539
   45MOL   H26924117   2.590   3.280   5.501  0.2424 -0.4893  0.0726
   45MOL   H27024118   2.995   3.298   5.357 -0.9779 -0.6983  2.4017
   45MOL   H27124119   2.899   3.193   5.253  0.0142  0.1875  0.0018
   45MOL   C27224120   2.686   2.833   5.219 -0.5410  0.1565 -0.1426
   45MOL   C27324121   2.603   2.940   5.146  0.6942 -0.0995  0.1591
   45MOL   C27424122   2.682   2.966   5.016  0.2294 -0.3999 -0.2607
   45MOL   C27524123   2.616   3.069   4.937  0.4339 -0.2858 -0.0949
   45MOL   C27624124   2.610   3.217   5.003  0.2247 -0.1627  0.1906
   45MOL   O27724125   2.735   3.261   5.067  0.7864  0.7664 -0.1319
   45MOL   C27824126   2.748   3.383   5.124  0.2617  0.2665 -0.4397
   45MOL   O27924127   2.665   3.468   5.123 -0.4284 -0.1817  0.5855
   45MOL   C28024128   2.880   3.401   5.208 -0.0447 -0.1355  1.3810
   45MOL   C28124129   2.871   3.539   5.284  0.0624  0.3676 -0.0891
   45MOL   C28224130   2.997   3.396   5.103  0.2105  0.1629 -0.1995
   45MOL   H28324131   2.657   2.820   5.323 -1.1595  2.4498  0.0094
   45MOL   H28424132   2.678   2.743   5.158 -0.2399  0.4050 -0.5557
   45MOL   H28524133   2.792   2.860   5.223 -0.5025  0.0189 -0.2286
   45MOL   H28624134   2.500   2.909   5.130  0.4620  1.1128 -0.8204
   45MOL   H28724135   2.606   3.028   5.210 -0.0063 -0.2875  0.4451
   45MOL   H28824136   2.787   2.983   5.039  0.6375 -3.0248  0.0077
   45MOL   H28924137   2.685   2.876   4.953  0.4076 -1.0238  0.6326
   45MOL   H29024138   2.665   3.063   4.840  0.2563  0.7097 -0.2523
   45MOL   H29124139   2.514   3.035   4.917  0.1791  0.4912 -0.1674
   45MOL   H29224140   2.538   3.202   5.084 -0.9593  0.9944 -0.6259
   45MOL   H29324141   2.579   3.298   4.937 -1.3812 -0.7846  0.1600
   45MOL   H29424142   2.959   3.553   5.347 -0.2451  2.8917 -0.1851
   45MOL   H29524143   2.867   3.628   5.221 -0.4833 -1.0342 -2.1229
   45MOL   H29624144   2.777   3.552   5.336 -0.4366 -1.5977 -0.4484
   45MOL   H29724145   3.014   3.295   5.066  1.6637  0.1684  0.4028
   45MOL   H29824146   2.959   3.452   5.017  2.3643  1.4517 -0.3788
   45MOL   C29924147   2.930   3.833   5.482  0.6433  0.2311 -0.1615
   45MOL   C30024148   3.034   3.873   5.375  0.1553 -0.5733 -0.2500
   45MOL   C30124149   3.165   3.804   5.409 -0.1724  0.1795 -0.2920
   45MOL   C30224150   3.284   3.832   5.325  0.9172  0.4167 -0.0184
   45MOL   C30324151   3.269   3.798   5.176  0.0857 -0.3029  0.6017
   45MOL   O30424152   3.244   3.661   5.173  0.0343  0.1591  0.3786
   45MOL   C30524153   3.138   3.605   5.119  0.8201  0.1321  0.6261
   45MOL   O30624154   3.048   3.673   5.067 -0.2715  0.1671  0.0463
   45MOL   C30724155   3.140   3.453   5.124 -0.0555  0.2779 -0.2395
   45MOL   C30824156   3.198   3.406   5.255 -0.5515 -0.4704 -0.6919
   45MOL   C30924157   3.249   3.406   5.018  1.0933  0.0505  0.7481
   45MOL   H31024158   2.904   3.728   5.471  1.8377 -0.0362 -0.4861
   45MOL   H31124159   2.842   3.896   5.464  1.5530  1.6348  0.1854
   45MOL   H31224160   2.958   3.846   5.587 -0.7856 -4.3364  0.8888
   45MOL   H31324161   3.037   3.981   5.386 -0.9634 -0.6499  0.9133
   45MOL   H31424162   3.001   3.841   5.276  1.0319 -1.0825 -0.3841
   45MOL   H31524163   3.139   3.698   5.403 -0.4995  0.1756  1.0226
   45MOL   H31624164   3.192   3.818   5.514  3.3162  1.8864 -1.3286
   45MOL   H31724165   3.369   3.779   5.368  0.6132 -0.0940 -0.0489
   45MOL   H31824166   3.310   3.937   5.338  2.4959  0.1269 -0.7589
   45MOL   H31924167   3.201   3.864   5.122  0.2009  0.5970  1.5546
   45MOL   H32024168   3.366   3.805   5.127  0.8527  1.9702  2.3402
   45MOL   H32124169   3.189   3.298   5.267  0.9533 -0.5343 -0.0239
   45MOL   H32224170   3.305   3.424   5.269 -0.8467  0.1733  0.8544
   45MOL   H32324171   3.148   3.453   5.340  0.8952  0.7066 -0.4675
   45MOL   H32424172   3.266   3.298   5.014 -2.8340 -0.6067 -0.9109
   45MOL   H32524173   3.343   3.454   5.044  0.2014  2.6359 -0.6453
   45MOL   C32624174   3.422   3.035   4.567 -0.2152 -1.0778  0.0648
   45MOL   C32724175   3.328   2.922   4.599 -0.4407 -0.3153  0.0265
   45MOL   C32824176   3.228   2.956   4.712  0.2767 -0.3561  0.3932
   45MOL   C32924177   3.112   3.050   4.669 -0.0805 -0.1378  0.0213
   45MOL   C33024178   3.041   3.124   4.780 -0.2064 -0.0447 -0.4282
   45MOL   O33124179   3.135   3.216   4.833  0.4247 -0.3198 -0.0315
   45MOL   C33224180   3.126   3.346   4.805  0.6349 -0.3906  0.3789
   45MOL   O33324181   3.033   3.402   4.743  0.3333 -0.1555  0.1872
   45MOL   C33424182   3.242   3.429   4.862 -0.4080  0.2401  0.0999
   45MOL   C33524183   3.221   3.576   4.812  0.3668 -0.1216  0.0829
   45MOL   C33624184   3.372   3.376   4.792 -0.5267  0.1387  0.3519
   45MOL   H33724185   3.379   3.131   4.537  0.5846  0.5621  3.8807
   45MOL   H33824186   3.494   3.008   4.489  1.5715  1.6000  0.7343
   45MOL   H33924187   3.485   3.050   4.655 -0.9371  0.1538  0.3750
   45MOL   H34024188   3.384   2.833   4.629  1.1229 -0.0960 -2.1243
   45MOL   H34124189   3.271   2.907   4.508 -0.5620 -1.5723  0.3059
   45MOL   H34224190   3.282   3.003   4.795  1.0754  1.5576 -1.1609
   45MOL   H34324191   3.197   2.860   4.752 -0.1316 -0.4158 -0.0667
   45MOL   H34424192   3.045   2.992   4.606 -1.9744 -0.8357  2.5479
   45MOL   H34524193   3.144   3.130   4.602  1.3192 -2.0399 -1.6265
   45MOL   H34624194   3.024   3.054   4.862 -0.4601  0.5247  0.0191
   45MOL   H34724195   2.955   3.174   4.735 -0.3968  1.5030  1.5613
   45MOL   H34824196   3.277   3.645   4.876 -1.0061  1.5282 -0.4656
   45MOL   H34924197   3.124   3.622   4.830  0.8711  0.5985  1.0201
   45MOL   H35024198   3.252   3.583   4.708 -1.0116 -1.7111 -0.4494
   45MOL   H35124199   3.352   3.372   4.685  0.8963 -2.9228  0.1452
   45MOL   H35224200   3.372   3.268   4.807 -2.4662 -0.0079 -0.5512
   45MOL   C35324201   3.975   3.130   4.499  0.1879 -0.0066 -0.2577
   45MOL   C35424202   3.863   3.150   4.400  0.0301 -0.4846 -0.2971
   45MOL   C35524203   3.848   3.294   4.353 -0.5062  0.3433  0.3398
   45MOL   C35624204   3.782   3.390   4.454  0.0106  0.5690 -0.8906
   45MOL   C35724205   3.625   3.365   4.471  0.3807 -0.3317  0.1673
   45MOL   O35824206   3.576   3.414   4.598  0.1841 -0.1188 -1.0307
   45MOL   C35924207   3.612   3.362   4.717 -0.8719 -1.2255 -0.5956
   45MOL   O36024208   3.706   3.287   4.741 -0.5219  0.1376  0.1342
   45MOL   C36124209   3.522   3.421   4.835 -0.1888 -0.3920  0.0126
   45MOL   C36224210   3.559   3.338   4.961  0.2007 -0.8733  0.6319
   45MOL   C36324211   3.533   3.581   4.857 -0.3494 -1.0560  0.3842
   45MOL   H36424212   3.972   3.023   4.518 -1.3407 -0.0130 -0.4879
   45MOL   H36524213   3.969   3.184   4.593 -0.3842  1.2066 -0.9800
   45MOL   H36624214   4.069   3.170   4.460 -0.8622  2.9340  0.0668
   45MOL   H36724215   3.884   3.083   4.317 -0.8110  0.1297 -1.0149
   45MOL   H36824216   3.771   3.122   4.451  0.0124 -0.5765 -0.3802
   45MOL   H36924217   3.789   3.286   4.261 -0.3462  0.0996  0.2609
   45MOL   H37024218   3.945   3.332   4.323 -0.2706 -0.9206 -0.5494
   45MOL   H37124219   3.806   3.493   4.430  1.5514  1.0311  2.3758
   45MOL   H37224220   3.834   3.356   4.544 -2.0483  2.8478  1.2059
   45MOL   H37324221   3.569   3.418   4.394 -3.0193 -0.5211  2.4281
   45MOL   H37424222   3.603   3.260   4.453 -0.7580 -0.2325  0.9594
   45MOL   H37524223   3.663   3.316   4.985  0.1830  0.6376  2.1528
   45MOL   H37624224   3.521   3.370   5.058  0.4397 -0.3585  0.5572
   45MOL   H37724225   3.513   3.239   4.953 -0.9705 -0.3065  0.4055
   45MOL   H37824226   3.473   3.637   4.785 -0.2267 -0.2374  0.9018
   45MOL   H37924227   3.478   3.587   4.951  1.0287 -0.9107  1.1962
   45MOL   C38024228   3.469   3.283   5.519 -0.1603  0.0748  0.9870
   45MOL   C38124229   3.579   3.392   5.574 -0.0812  0.0992 -0.2325
   45MOL   C38224230   3.683   3.438   5.463  0.1020 -0.2894 -0.0246
   45MOL   C38324231   3.623   3.509   5.340  0.2100  0.9658 -0.6414
   45MOL   C38424232   3.729   3.546   5.242  0.1284 -0.2200  0.2769
   45MOL   O38524233   3.667   3.582   5.121 -0.1198  0.0555 -0.0404
   45MOL   C38624234   3.738   3.585   5.010 -0.5011  0.3511  0.4636
   45MOL   O38724235   3.852   3.545   5.013  0.3911 -0.7240 -0.4884
   45MOL   C38824236   3.676   3.655   4.886  0.6801  0.1534  0.4389
   45MOL   C38924237   3.760   3.648   4.755 -0.0326 -0.3342 -0.3170
   45MOL   C39024238   3.630   3.806   4.913  0.9151  0.1499 -0.1829
   45MOL   H39124239   3.422   3.323   5.429  2.0752 -0.1393 -0.3080
   45MOL   H39224240   3.516   3.191   5.485 -0.2740  0.2001  0.4741
   45MOL   H39324241   3.393   3.261   5.594 -1.2589  0.7574  0.0950
   45MOL   H39424242   3.645   3.355   5.652 -0.6583 -0.1332  0.1518
   45MOL   H39524243   3.539   3.467   5.643  0.2872 -0.4238  0.5508
   45MOL   H39624244   3.754   3.503   5.513  1.5918 -1.4675 -0.5790
   45MOL   H39724245   3.742   3.355   5.425  0.4799  0.5073 -1.2013
   45MOL   H39824246   3.558   3.434   5.296 -0.5710  1.2910 -0.0597
   45MOL   H39924247   3.549   3.588   5.355 -0.4724  0.8002 -3.0478
   45MOL   H40024248   3.805   3.469   5.236 -0.0848 -0.3964 -0.1806
   45MOL   H40124249   3.781   3.633   5.282  3.7678 -1.4270 -1.6003
   45MOL   H40224250   3.805   3.745   4.734  0.4890 -0.7257 -1.0322
   45MOL   H40324251   3.699   3.629   4.667  0.0258  1.1776 -0.6979
   45MOL   H40424252   3.833   3.567   4.753  0.2029 -0.1509  0.5808
   45MOL   H40524253   3.535   3.803   4.966  0.2904 -2.5915 -1.3966
   45MOL   H40624254   3.600   3.841   4.814  3.1213  0.8992 -0.6135
   45MOL   C40724255   4.048   3.659   5.679 -0.9243  0.4635  0.2060
   45MOL   C40824256   4.006   3.696   5.538  0.0907 -0.2938 -0.2455
   45MOL   C40924257   4.073   3.811   5.474  0.0897 -0.4695 -0.5380
   45MOL   C41024258   4.049   3.830   5.329  0.2715  0.1984 -0.0678
   45MOL   C41124259   3.904   3.881   5.315 -0.7687 -0.6406  0.0049
   45MOL   O41224260   3.868   3.876   5.174 -0.0404 -0.1601  0.0503
   45MOL   C41324261   3.737   3.887   5.135  0.4826  0.0809 -0.2203
   45MOL   O41424262   3.637   3.872   5.212  0.4292  0.7054  0.2811
   45MOL   C41524263   3.726   3.907   4.984 -0.5983  0.6030  0.1929
   45MOL   C41624264   3.868   3.903   4.910 -0.0221 -0.8288  0.1165
   45MOL   C41724265   3.664   4.047   4.961  0.2799 -0.3706  0.1605
   45MOL   H41824266   4.157   3.660   5.684 -0.8484 -0.7396 -0.9420
   45MOL   H41924267   4.016   3.737   5.749  0.3945  0.3458  0.9780
   45MOL   H42024268   4.009   3.567   5.722 -0.0554  0.6810  1.4930
   45MOL   H42124269   3.903   3.727   5.551  1.0106  3.0496 -0.5100
   45MOL   H42224270   4.014   3.607   5.476 -0.7022 -1.6854  1.5946
   45MOL   H42324271   4.059   3.901   5.534 -0.0184 -0.9449  0.1537
   45MOL   H42424272   4.180   3.799   5.488  0.1015 -0.4288 -0.5894
   45MOL   H42524273   4.083   3.739   5.281 -1.8872 -0.0256 -1.2349
   45MOL   H42624274   4.110   3.912   5.292  1.0155 -0.4635 -0.3134
   45MOL   H42724275   3.834   3.804   5.348 -0.9509  0.0389  1.2335
   45MOL   H42824276   3.882   3.976   5.365  0.2987  0.0322 -0.7749
   45MOL   H42924277   3.861   3.921   4.803  0.5471 -0.3895  0.1509
   45MOL   H43024278   3.917   3.806   4.912 -0.2444 -0.9559 -0.6168
   45MOL   H43124279   3.938   3.973   4.956  1.0813 -2.0941  0.3838
   45MOL   H43224280   3.558   4.039   4.984  0.5008 -0.9152  0.9831
   45MOL   H43324281   3.651   4.063   4.854 -0.9644 -1.3512  0.1576
   45MOL   C43424282   3.115   3.946   4.729 -0.0982 -0.3956 -0.0490
   45MOL   C43524283   3.203   3.936   4.859 -0.0149  0.2079  0.1414
   45MOL   C43624284   3.229   4.061   4.943 -0.3391  0.5542 -0.1176
   45MOL   C43724285   3.291   4.178   4.861  0.0483  0.3094  0.2913
   45MOL   C43824286   3.354   4.286   4.947 -0.3441 -0.3874  0.3593
   45MOL   O43924287   3.472   4.249   5.009  0.0240 -0.4357  0.0768
   45MOL   C44024288   3.595   4.291   4.952  0.4589 -0.4060 -0.4903
   45MOL   O44124289   3.605   4.377   4.867  0.1104  0.1013  0.1366
   45MOL   C44224290   3.714   4.194   4.999  0.1456 -0.2361  0.0638
   45MOL   C44324291   3.842   4.235   4.931 -0.1819 -0.1212 -0.2818
   45MOL   C44424292   3.728   4.197   5.159 -0.2756  0.4556 -0.3626
   45MOL   H44524293   3.018   3.988   4.756  0.8905  1.6742  0.3597
   45MOL   H44624294   3.167   4.007   4.655 -1.3627  1.5337  0.6006
   45MOL   H44724295   3.091   3.851   4.681  0.4406 -1.0864  1.0180
   45MOL   H44824296   3.158   3.858   4.921 -1.0666 -0.4270 -1.3995
   45MOL   H44924297   3.298   3.887   4.838  0.3583  0.5148  1.0695
   45MOL   H45024298   3.143   4.109   4.988 -1.7790 -1.0814 -1.0247
   45MOL   H45124299   3.312   4.044   5.011 -0.3482 -0.9707 -0.4705
   45MOL   H45224300   3.223   4.230   4.793  0.1940  1.5362  1.0666
   45MOL   H45324301   3.374   4.140   4.803  1.0354 -2.1693  3.2560
   45MOL   H45424302   3.276   4.329   5.011 -1.5409 -2.5181  0.3724
   45MOL   H45524303   3.361   4.367   4.874 -1.0351 -0.7428 -0.1107
   45MOL   H45624304   3.855   4.343   4.920  0.5082 -0.1745 -0.0005
   45MOL   H45724305   3.934   4.192   4.969 -0.9684  1.6746  3.8956
   45MOL   H45824306   3.834   4.205   4.826 -2.9680  1.5779 -0.6275
   45MOL   H45924307   3.821   4.145   5.181 -1.1825 -1.4403 -0.9095
   45MOL   H46024308   3.646   4.144   5.209 -1.9528  2.8216 -0.5320
   45MOL   C46124309   2.905   4.256   5.326  0.1202  0.3555 -0.2034
   45MOL   C46224310   3.037   4.291   5.263 -0.3606 -0.4488  0.0064
   45MOL   C46324311   3.147   4.321   5.370  0.5541  0.2733  0.4331
   45MOL   C46424312   3.289   4.312   5.310 -0.6244  0.0919 -0.4750
   45MOL   C46524313   3.396   4.309   5.419  0.3802 -0.4806  0.4865
   45MOL   O46624314   3.525   4.289   5.367 -0.1397  0.1499  0.2050
   45MOL   C46724315   3.588   4.379   5.288 -0.4935  0.1515  0.1481
   45MOL   O46824316   3.537   4.489   5.262 -0.0017  0.4585  0.2204
   45MOL   C46924317   3.735   4.339   5.248  0.4510 -0.0977  0.3409
   45MOL   C47024318   3.805   4.451   5.177 -0.2886  0.1121 -0.0716
   45MOL   C47124319   3.812   4.312   5.383  0.8188 -0.3515 -0.0637
   45MOL   H47224320   2.860   4.336   5.385  0.2384  0.2392  0.0460
   45MOL   H47324321   2.907   4.169   5.392  0.8543 -0.8115 -1.7467
   45MOL   H47424322   2.829   4.244   5.249 -0.3011  2.5692 -0.1606
   45MOL   H47524323   3.024   4.365   5.184  1.9865  0.3363  0.3199
   45MOL   H47624324   3.074   4.203   5.212 -0.7590 -0.3691 -0.4226
   45MOL   H47724325   3.134   4.256   5.456  0.5144 -0.3146 -0.0135
   45MOL   H47824326   3.127   4.423   5.404 -0.9103  0.7961 -1.8874
   45MOL   H47924327   3.308   4.399   5.246  1.0843  1.0553  1.2869
   45MOL   H48024328   3.306   4.238   5.232  0.7661  0.4311 -0.5104
   45MOL   H48124329   3.399   4.402   5.475 -0.6865  0.4792 -0.9936
   45MOL   H48224330   3.378   4.228   5.489  1.2421 -1.5296 -0.4919
   45MOL   H48324331   3.752   4.470   5.083  0.8528  0.0691 -0.7382
   45MOL   H48424332   3.911   4.434   5.156  0.4890  2.1328  2.0126
   45MOL   H48524333   3.782   4.545   5.227  0.2116 -0.6918  1.6858
   45MOL   H48624334   3.777   4.213   5.409  0.1265 -0.4504 -1.3461
   45MOL   H48724335   3.767   4.379   5.457  1.1398  0.5095 -0.6318
   45MOL   C48824336   4.585   4.477   5.107  0.3780 -0.0865  0.2103
   45MOL   C48924337   4.464   4.565   5.139  0.6812 -0.1989 -0.1797
   45MOL   C49024338   4.395   4.524   5.267  0.2062  0.1695 -0.1190
   45MOL   C49124339   4.279   4.621   5.287  1.0928  0.4935 -0.3267
   45MOL   C49224340   4.203   4.605   5.417  0.0213  0.0761  0.0249
   45MOL   O49324341   4.144   4.478   5.425 -0.1140 -0.2345 -0.0595
   45MOL   C49424342   4.012   4.457   5.420 -0.2816  0.2918  0.2014
   45MOL   O49524343   3.929   4.544   5.420 -0.5550 -0.1602 -0.2001
   45MOL   C49624344   3.968   4.304   5.409 -0.0577 -0.4671  0.1856
   45MOL   C49724345   4.042   4.227   5.290 -0.1470  0.3294  0.1320
   45MOL   C49824346   4.005   4.222   5.543 -0.6019 -0.3342 -0.2285
   45MOL   H49924347   4.648   4.528   5.033 -1.1270 -1.5099 -2.0901
   45MOL   H50024348   4.648   4.457   5.193  0.1313 -0.8782  0.2051
   45MOL   H50124349   4.572   4.378   5.064  0.4470 -0.4439  1.0164
   45MOL   H50224350   4.399   4.569   5.052 -3.0713  1.0356  2.5152
   45MOL   H50324351   4.505   4.665   5.152 -0.6675  0.2379  0.8600
   45MOL   H50424352   4.357   4.422   5.267 -1.0050  0.6229  0.7468
   45MOL   H50524353   4.466   4.521   5.350 -0.2011  1.1796  0.2587
   45MOL   H50624354   4.213   4.628   5.200 -0.9139  1.5132  1.2238
   45MOL   H50724355   4.325   4.719   5.304  0.3769  0.5909  1.1537
   45MOL   H50824356   4.276   4.624   5.495 -0.2178 -0.5184  0.3974
   45MOL   H50924357   4.136   4.690   5.409  0.3829  0.3663  0.0946
   45MOL   H51024358   4.146   4.208   5.315 -0.1219 -1.5042 -1.2916
   45MOL   H51124359   4.042   4.274   5.192 -0.2426  1.4896  0.6805
   45MOL   H51224360   3.995   4.130   5.271 -0.3805  0.2076  1.2933
   45MOL   H51324361   4.114   4.222   5.544 -0.6091  0.5545  0.2003
   45MOL   H51424362   3.977   4.117   5.531  1.7952 -0.8840 -1.2671
   45MOL   C51524363   3.561   3.790   5.611 -0.0799  0.2134  0.0648
   45MOL   C51624364   3.563   3.945   5.623 -0.0942 -0.4015  0.9698
   45MOL   C51724365   3.611   3.982   5.771 -0.9178 -0.2607 -0.7136
   45MOL   C51824366   3.564   4.124   5.808  0.2978  0.4786 -0.4286
   45MOL   C51924367   3.600   4.241   5.715  0.3881 -0.2622  0.5731
   45MOL   O52024368   3.738   4.221   5.692 -0.3546  0.1053 -0.3919
   45MOL   C52124369   3.827   4.317   5.721  0.4666 -0.4783  0.3090
   45MOL   O52224370   3.802   4.425   5.778  0.1035 -0.0165  0.3889
   45MOL   C52324371   3.973   4.269   5.692  0.4962 -0.0777 -0.2564
   45MOL   C52424372   4.079   4.376   5.735  0.3891 -1.0243  0.1558
   45MOL   C52524373   4.010   4.156   5.797  0.2756  0.0554 -0.3377
   45MOL   H52624374   3.504   3.742   5.691 -0.9682  1.9135  0.4701
   45MOL   H52724375   3.518   3.761   5.515 -1.2668  3.1794 -0.3537
   45MOL   H52824376   3.658   3.747   5.637  0.0621  1.3154  1.4058
   45MOL   H52924377   3.624   3.995   5.548  0.5980 -1.9682  0.4603
   45MOL   H53024378   3.464   3.989   5.617  0.0186 -0.2228  0.4183
   45MOL   H53124379   3.571   3.911   5.844 -0.1612  0.2468  0.2057
   45MOL   H53224380   3.720   3.976   5.772 -0.7549  1.5991 -2.9252
   45MOL   H53324381   3.579   4.157   5.910  1.2630 -2.3587  0.4196
   45MOL   H53424382   3.455   4.130   5.803  0.0889  2.3257  4.1538
   45MOL   H53524383   3.545   4.234   5.622  1.3424  0.5425 -0.0696
   45MOL   H53624384   3.581   4.339   5.759 -0.4074 -0.4757  0.7017
   45MOL   H53724385   4.073   4.390   5.843  2.1236  0.1492  0.1199
   45MOL   H53824386   4.058   4.474   5.692  0.1103 -0.2882  1.9297
   45MOL   H53924387   4.181   4.344   5.712 -0.0865 -2.0359 -0.5770
   45MOL   H54024388   4.110   4.119   5.773 -0.6979 -2.4199 -0.7612
   45MOL   H54124389   3.940   4.073   5.785 -1.6791  1.3865  1.5120
   45MOL   H54224390   4.002   4.188   5.901 -0.2129  0.7355 -0.5826
   46MOL     C124391   4.239   5.746   0.872 -0.0732 -0.7752  0.6229
   46MOL     C224392   4.269   5.849   0.984 -0.1475  0.5531 -0.1166
   46MOL     C324393   4.388   5.830   1.075  0.0937  0.8389  0.2896
   46MOL     C424394   4.410   5.937   1.184 -0.3063 -0.0404  1.0822
   46MOL     C524395   4.302   5.932   1.291 -0.4575  0.5996 -0.3254
   46MOL     O624396   4.329   6.017   1.400  0.7391  0.4289  0.0696
   46MOL     C724397   4.273   6.008   1.520 -0.2911  0.2057  0.3874
   46MOL     O824398   4.196   5.912   1.557 -0.5248  0.3691  0.2074
   46MOL     C924399   4.329   6.106   1.621 -0.1533 -0.0287  0.5158
   46MOL    C1024400   4.425   6.037   1.721  0.9510 -0.6308  0.0638
   46MOL    C1124401   4.218   6.172   1.711  0.5032 -0.0745 -0.6198
   46MOL    H1224402   4.331   5.702   0.832  1.0445 -0.3543  2.6316
   46MOL    H1324403   4.181   5.780   0.786 -1.5033 -1.1638  1.4189
   46MOL    H1424404   4.179   5.667   0.917  2.2870 -2.9598  0.0400
   46MOL    H1524405   4.291   5.948   0.945  1.0434  0.3053 -0.1176
   46MOL    H1624406   4.177   5.853   1.041  0.7805  0.9664  1.3782
   46MOL    H1724407   4.389   5.732   1.124 -1.8574  1.4856  1.6888
   46MOL    H1824408   4.461   5.843   0.996 -2.3320 -0.4466 -2.2635
   46MOL    H1924409   4.416   6.034   1.135  2.1155 -0.5602  0.2760
   46MOL    H2024410   4.505   5.919   1.234  0.0680 -3.2421 -0.6315
   46MOL    H2124411   4.213   5.958   1.234 -0.5420  0.0241 -0.4510
   46MOL    H2224412   4.291   5.828   1.321 -0.3985  1.2734  2.1979
   46MOL    H2324413   4.373   5.973   1.792  1.4846  1.0617  2.0154
   46MOL    H2424414   4.469   6.118   1.779  1.5702 -1.5207  0.8388
   46MOL    H2524415   4.515   5.979   1.701  0.1949 -2.2339  1.2177
   46MOL    H2624416   4.252   6.169   1.815 -1.5335 -2.0941  0.0275
   46MOL    H2724417   4.135   6.102   1.725  0.3172  0.6299  2.2072
   46MOL    H2824418   4.379   6.183   1.560 -0.2863  2.5386  3.5112
   46MOL    C2924419   3.888   5.951   0.962  0.5903  0.9690  0.2943
   46MOL    C3024420   3.883   5.947   1.113  0.4671 -0.1535 -0.8045
   46MOL    C3124421   3.945   6.079   1.171  0.1850 -0.1245  0.2231
   46MOL    C3224422   3.963   6.087   1.328 -0.5915  0.0621 -0.1679
   46MOL    C3324423   4.004   6.227   1.367  0.4034 -0.2959  0.7439
   46MOL    O3424424   4.032   6.249   1.503  0.2910  0.2262  0.5296
   46MOL    C3524425   4.134   6.330   1.533 -0.2846 -0.1846 -0.2720
   46MOL    O3624426   4.199   6.392   1.450  0.0623 -0.4582 -0.3141
   46MOL    C3724427   4.173   6.321   1.684  0.1629  0.5035 -0.4926
   46MOL    C3824428   4.288   6.421   1.715 -0.6605 -0.0162 -0.2686
   46MOL    C3924429   4.045   6.359   1.768  0.9425  0.0354 -1.1870
   46MOL    H4024430   3.830   5.862   0.938  1.2689  1.5234 -3.6610
   46MOL    H4124431   3.832   6.030   0.911 -2.3504 -1.2340 -0.0223
   46MOL    H4224432   3.985   5.930   0.918 -0.1341  1.3285 -1.5030
   46MOL    H4324433   3.930   5.858   1.155  0.8792  0.0399 -0.8622
   46MOL    H4424434   3.781   5.924   1.144  0.3950  1.6480  0.3546
   46MOL    H4524435   3.892   6.168   1.135 -1.3032 -1.1743 -0.2474
   46MOL    H4624436   4.044   6.100   1.133 -0.1958 -0.9503 -1.2444
   46MOL    H4724437   3.875   6.039   1.371 -0.1838 -1.0916 -0.5925
   46MOL    H4824438   4.046   6.022   1.356  0.7485  1.3371 -1.0775
   46MOL    H4924439   3.924   6.297   1.339  1.0178 -0.1166 -0.5925
   46MOL    H5024440   4.088   6.258   1.306 -0.1664  0.2788  0.2360
   46MOL    H5124441   4.378   6.383   1.668 -1.7377 -0.7075 -1.8273
   46MOL    H5224442   4.311   6.439   1.820 -1.1683  0.8331 -0.2991
   46MOL    H5324443   4.276   6.516   1.662  1.7299  0.8775  0.7144
   46MOL    H5424444   4.068   6.336   1.872 -2.9468 -0.3691 -0.3644
   46MOL    H5524445   3.981   6.276   1.739  1.2760 -0.0604 -1.6655
   46MOL    C5624446   4.579   6.790   1.958 -1.2423 -0.5231  0.3639
   46MOL    C5724447   4.526   6.889   1.848 -0.0763  0.6347  0.2938
   46MOL    C5824448   4.372   6.894   1.825  0.0227  0.1126  0.3812
   46MOL    C5924449   4.314   6.766   1.759 -0.7163 -0.1235  0.0321
   46MOL    C6024450   4.166   6.791   1.732 -0.4329 -0.4436 -0.0069
   46MOL    O6124451   4.096   6.668   1.706  0.6317 -0.1014 -0.6316
   46MOL    C6224452   4.055   6.598   1.812  0.7435 -0.3036  0.4510
   46MOL    O6324453   4.088   6.615   1.927 -0.4996  0.3269  0.5404
   46MOL    C6424454   3.956   6.484   1.775 -0.3916  0.6257 -0.1285
   46MOL    C6524455   3.863   6.471   1.902  0.0410 -0.5174  0.0163
   46MOL    C6624456   3.877   6.498   1.641  0.4364 -0.1461 -0.0235
   46MOL    H6724457   4.521   6.799   2.049  0.8941  1.9886  1.5579
   46MOL    H6824458   4.686   6.811   1.961 -0.9633 -1.8516  0.0620
   46MOL    H6924459   4.592   6.689   1.919  2.8873 -0.4532  1.2700
   46MOL    H7024460   4.558   6.991   1.870  0.9212  0.8035 -1.7817
   46MOL    H7124461   4.576   6.848   1.760 -0.0337 -1.8080  1.4432
   46MOL    H7224462   4.317   6.910   1.918 -1.1447 -0.9604 -0.1068
   46MOL    H7324463   4.354   6.970   1.749  2.0180 -2.7368 -3.1014
   46MOL    H7424464   4.328   6.698   1.844 -0.0193  1.0225  0.8546
   46MOL    H7524465   4.367   6.731   1.671  2.1088 -0.0141  1.6126
   46MOL    H7624466   4.124   6.848   1.815  0.8462  0.3826  0.0870
   46MOL    H7724467   4.153   6.848   1.640 -1.1857  2.1388  1.6348
   46MOL    H7824468   3.808   6.377   1.901  2.0332 -1.7172  0.2506
   46MOL    H7924469   3.787   6.549   1.910  1.6394  0.8202  3.5378
   46MOL    H8024470   3.915   6.463   1.998 -1.3126 -0.4042  0.7777
   46MOL    H8124471   3.846   6.400   1.606 -0.3266  0.6730 -1.6973
   46MOL    H8224472   3.954   6.519   1.567  1.3587  1.8216  1.4308
   46MOL    C8324473   3.033   6.425   1.569 -0.2553  0.8492  0.1897
   46MOL    C8424474   3.135   6.336   1.627 -0.2981 -0.3809  0.2808
   46MOL    C8524475   3.275   6.399   1.653  0.9762  0.1515  0.8689
   46MOL    C8624476   3.381   6.303   1.691  0.5892 -0.1101 -0.2544
   46MOL    C8724477   3.501   6.365   1.764  0.5630 -0.0837 -0.6803
   46MOL    O8824478   3.595   6.420   1.673 -0.1463  0.4275 -0.0666
   46MOL    C8924479   3.628   6.553   1.682 -0.3116  0.6685 -0.0778
   46MOL    O9024480   3.555   6.635   1.736  0.5580  0.4499  0.2957
   46MOL    C9124481   3.759   6.603   1.604  0.6733 -0.0871  0.3137
   46MOL    C9224482   3.792   6.742   1.647  0.3225 -0.1783  0.6176
   46MOL    C9324483   3.739   6.587   1.448  0.7893  0.4167 -0.5515
   46MOL    H9424484   3.044   6.446   1.462 -1.2353 -1.1638 -0.3242
   46MOL    H9524485   2.931   6.389   1.580 -0.5031  0.8395 -1.8773
   46MOL    H9624486   3.038   6.526   1.609  0.0643  1.5654 -1.6044
   46MOL    H9724487   3.154   6.244   1.572  2.5356  0.1277  0.2990
   46MOL    H9824488   3.097   6.312   1.726  0.9503  1.1432  1.1612
   46MOL    H9924489   3.270   6.480   1.726 -0.7047 -0.4578  1.4462
   46MOL   H10024490   3.310   6.432   1.555 -2.0632 -2.3074 -1.1349
   46MOL   H10124491   3.414   6.240   1.609  2.4093 -0.8310  0.9985
   46MOL   H10224492   3.335   6.231   1.759  0.7979  2.2570  2.4794
   46MOL   H10324493   3.545   6.284   1.823  0.2835 -0.4923 -1.0292
   46MOL   H10424494   3.454   6.432   1.836 -3.9091 -2.8214 -0.7924
   46MOL   H10524495   3.704   6.804   1.626  0.3282 -0.5992 -0.6868
   46MOL   H10624496   3.881   6.779   1.596 -0.2533  3.6173  2.1384
   46MOL   H10724497   3.807   6.748   1.755 -1.2111 -0.7951  0.8746
   46MOL   H10824498   3.837   6.610   1.405  1.6531  0.5098  1.4075
   46MOL   H10924499   3.725   6.479   1.435 -2.6584  0.7196  0.1414
   46MOL   C11024500   3.972   7.061   0.863 -0.9461  0.0499 -0.4236
   46MOL   C11124501   3.994   7.063   1.016  0.1638 -0.2084 -0.5819
   46MOL   C11224502   3.865   7.044   1.096 -0.6073 -0.0334  0.1290
   46MOL   C11324503   3.881   7.034   1.254  0.1917  0.6985  0.4910
   46MOL   C11424504   3.756   6.991   1.322  0.3623 -0.1039 -0.4147
   46MOL   O11524505   3.750   6.853   1.346 -0.2530 -0.2082  0.1707
   46MOL   C11624506   3.631   6.805   1.373  0.4472 -0.3033 -0.2033
   46MOL   O11724507   3.528   6.878   1.388  0.1929  0.0351 -0.0430
   46MOL   C11824508   3.624   6.652   1.363  0.3286  0.1526  0.0581
   46MOL   C11924509   3.484   6.598   1.390 -0.6562  0.8583 -0.9339
   46MOL   C12024510   3.677   6.607   1.219 -0.5183  0.1214  0.0038
   46MOL   H12124511   4.073   7.046   0.824 -0.9196 -0.7507 -0.0658
   46MOL   H12224512   3.914   6.975   0.830 -1.7762  0.6217 -0.4663
   46MOL   H12324513   3.949   7.151   0.806  0.6029 -0.7738 -2.4213
   46MOL   H12424514   4.054   6.979   1.051  3.2618  2.4716  0.7735
   46MOL   H12524515   4.044   7.150   1.057  0.3163 -0.4496 -0.2571
   46MOL   H12624516   3.807   7.135   1.083  1.1133  0.9539 -0.9347
   46MOL   H12724517   3.808   6.959   1.060 -1.5977  0.1548  1.2395
   46MOL   H12824518   3.914   7.131   1.290  1.8819  0.0652  0.6926
   46MOL   H12924519   3.969   6.981   1.290  0.0452 -2.3557 -3.2681
   46MOL   H13024520   3.744   7.047   1.416  0.2367 -0.0848 -0.4413
   46MOL   H13124521   3.672   7.032   1.266  0.7695  0.6055 -0.5097
   46MOL   H13224522   3.482   6.489   1.398  3.9453  0.7876  1.6009
   46MOL   H13324523   3.452   6.619   1.492  1.1322 -0.4643 -0.0582
   46MOL   H13424524   3.407   6.626   1.319 -0.0104 -1.2590 -2.5215
   46MOL   H13524525   3.766   6.667   1.201 -0.5740  0.1077 -0.3281
   46MOL   H13624526   3.725   6.510   1.231  0.7794  0.9610  1.7060
   46MOL   C13724527   3.709   6.106   1.559  1.0103  0.1814 -0.6342
   46MOL   C13824528   3.623   6.096   1.438  0.8766  0.2229  0.0302
   46MOL   C13924529   3.606   6.211   1.345 -0.5720 -0.1269  0.4422
   46MOL   C14024530   3.518   6.170   1.227 -0.0977  0.0092 -0.2179
   46MOL   C14124531   3.435   6.289   1.165  0.5852 -0.6447  0.7282
   46MOL   O14224532   3.527   6.388   1.128 -0.0433  0.2807 -0.0856
   46MOL   C14324533   3.488   6.502   1.077  0.4336 -0.2169 -0.1368
   46MOL   O14424534   3.376   6.526   1.038  0.1783  0.5133  0.8324
   46MOL   C14524535   3.598   6.609   1.085  0.0676  0.1460 -0.0247
   46MOL   C14624536   3.529   6.748   1.071  0.3663  0.3869 -0.7540
   46MOL   C14724537   3.704   6.573   0.968 -0.0233  0.3986 -0.7956
   46MOL   H14824538   3.804   6.154   1.535 -0.5491  2.4744 -2.3319
   46MOL   H14924539   3.741   6.007   1.593 -1.5712  0.0773  1.5971
   46MOL   H15024540   3.663   6.153   1.645 -0.0440 -1.3135 -0.3629
   46MOL   H15124541   3.524   6.073   1.477  1.4699  1.2703  2.2609
   46MOL   H15224542   3.654   6.006   1.385 -1.1212 -2.5101  3.2634
   46MOL   H15324543   3.556   6.291   1.400  0.5631  1.5484 -0.8814
   46MOL   H15424544   3.696   6.255   1.300 -0.6350  0.2130  0.6461
   46MOL   H15524545   3.589   6.128   1.156 -0.8382 -2.0384  0.2279
   46MOL   H15624546   3.450   6.092   1.260  0.9746 -1.2601 -0.9959
   46MOL   H15724547   3.373   6.333   1.244  0.8004 -1.1302  1.1691
   46MOL   H15824548   3.365   6.247   1.093  0.1018  1.7072 -0.2224
   46MOL   H15924549   3.596   6.833   1.059  1.3472 -0.5470 -1.9590
   46MOL   H16024550   3.458   6.766   1.152  1.2921 -4.3145  1.2724
   46MOL   H16124551   3.476   6.760   0.977 -0.7055  0.0225 -0.1973
   46MOL   H16224552   3.798   6.628   0.980  1.3607 -1.8451 -1.0410
   46MOL   H16324553   3.735   6.469   0.980 -0.5063  0.5010  1.6720
   46MOL   C16424554   3.772   6.897   0.166  0.4207  0.0450 -0.3991
   46MOL   C16524555   3.688   6.926   0.290  0.1142 -0.0750 -0.9282
   46MOL   C16624556   3.769   6.914   0.417  0.4050  0.2757 -0.2981
   46MOL   C16724557   3.719   6.970   0.550 -0.2797  0.4532 -0.1666
   46MOL   C16824558   3.596   6.885   0.594  0.3295 -0.4595 -0.5488
   46MOL   O16924559   3.637   6.756   0.643  0.0119  0.2150  0.4814
   46MOL   C17024560   3.670   6.748   0.771  0.5482  1.3153 -0.1085
   46MOL   O17124561   3.702   6.839   0.845  0.0880  0.8360 -0.8167
   46MOL   C17224562   3.680   6.597   0.812 -0.2017 -0.2020  0.9977
   46MOL   C17324563   3.544   6.534   0.772  0.1388  0.7107 -0.0261
   46MOL   C17424564   3.781   6.521   0.724  0.6841 -0.1011  0.2705
   46MOL   H17524565   3.704   6.892   0.080  1.7423  0.2715 -1.4787
   46MOL   H17624566   3.823   6.801   0.171 -0.1199 -0.2618 -0.7448
   46MOL   H17724567   3.847   6.968   0.131 -0.1218  0.5079 -0.6352
   46MOL   H17824568   3.592   6.873   0.291 -0.9012  1.6625 -2.8285
   46MOL   H17924569   3.656   7.030   0.286 -0.6634 -0.3751 -3.8164
   46MOL   H18024570   3.773   6.807   0.439 -4.8426 -0.0734 -0.2734
   46MOL   H18124571   3.871   6.951   0.407  0.4240 -0.2556 -2.1672
   46MOL   H18224572   3.697   7.075   0.534 -1.0876  0.0503 -1.8936
   46MOL   H18324573   3.794   6.972   0.629  0.6838  0.1268 -1.0618
   46MOL   H18424574   3.516   6.873   0.521  0.9646 -2.7793 -0.9326
   46MOL   H18524575   3.544   6.925   0.681  0.2640 -1.8286  0.0609
   46MOL   H18624576   3.460   6.589   0.815 -0.8214  0.5752 -1.6738
   46MOL   H18724577   3.530   6.440   0.825  2.9515  0.3277  0.1003
   46MOL   H18824578   3.535   6.538   0.663  1.0559 -0.0553 -0.1404
   46MOL   H18924579   3.763   6.413   0.731 -0.1394 -0.0711 -1.0228
   46MOL   H19024580   3.758   6.540   0.619 -2.3643  0.5249  0.9896
   46MOL   C19124581   4.210   6.827   1.366 -0.0006  0.0893  0.4125
   46MOL   C19224582   4.114   6.724   1.310 -0.0677  0.1256  0.1445
   46MOL   C19324583   4.172   6.663   1.177  0.0944 -0.2181 -0.0212
   46MOL   C19424584   4.107   6.528   1.152  0.4410 -0.6331 -0.4107
   46MOL   C19524585   4.170   6.458   1.036 -1.0042 -0.1893  0.6142
   46MOL   O19624586   4.112   6.519   0.916 -0.3598 -0.3818  0.1188
   46MOL   C19724587   3.993   6.474   0.870 -0.6484  0.7413  0.2350
   46MOL   O19824588   3.944   6.369   0.921  0.2138  0.0505  0.0669
   46MOL   C19924589   3.941   6.552   0.746 -0.3862 -0.1534  0.1602
   46MOL   C20024590   3.971   6.701   0.753  0.0445  0.0750  0.5560
   46MOL   C20124591   4.018   6.504   0.618  0.9248  0.1387  0.4140
   46MOL   H20224592   4.237   6.904   1.294 -2.1555  0.5084  0.0152
   46MOL   H20324593   4.154   6.887   1.437  0.0913 -1.6913  2.0291
   46MOL   H20424594   4.294   6.775   1.414 -1.1940 -0.4479  1.9564
   46MOL   H20524595   4.018   6.770   1.287 -0.2488 -0.0449  0.5555
   46MOL   H20624596   4.104   6.651   1.391 -0.8851 -0.5727 -0.5704
   46MOL   H20724597   4.278   6.642   1.195 -0.0736 -1.0520  0.0380
   46MOL   H20824598   4.161   6.724   1.088 -1.9479 -0.2228  0.2129
   46MOL   H20924599   4.103   6.457   1.235 -0.5601  1.4161  1.3139
   46MOL   H21024600   4.002   6.554   1.145 -0.0612 -2.7670 -1.4397
   46MOL   H21124601   4.277   6.474   1.048 -1.1934  1.0097  0.8503
   46MOL   H21224602   4.154   6.351   1.034  0.0923 -0.3455  0.1536
   46MOL   H21324603   3.931   6.770   0.678  0.5948 -1.0648 -0.8043
   46MOL   H21424604   4.078   6.716   0.744 -0.4217  2.6765 -1.5949
   46MOL   H21524605   3.944   6.740   0.851  0.4468  0.6511  0.4381
   46MOL   H21624606   4.125   6.516   0.634  1.5037 -1.0958 -2.3197
   46MOL   H21724607   3.995   6.574   0.538 -0.8549 -1.0772 -0.1680
   46MOL   C21824608   3.363   6.595   0.015 -0.5001  0.3204  0.1726
   46MOL   C21924609   3.480   6.629   0.109  0.3457 -0.4029  0.1962
   46MOL   C22024610   3.529   6.507   0.190 -0.2042 -0.3333 -0.8679
   46MOL   C22124611   3.661   6.532   0.256 -0.4285 -0.0689  0.1332
   46MOL   C22224612   3.707   6.408   0.334 -0.0121 -0.5581  0.0074
   46MOL   O22324613   3.832   6.426   0.404  0.4009  0.2763  0.0376
   46MOL   C22424614   3.873   6.329   0.493  0.2099 -0.9840  0.0162
   46MOL   O22524615   3.815   6.218   0.509 -0.1684  0.0054  0.3746
   46MOL   C22624616   4.011   6.361   0.552  0.4127 -0.2840 -0.7225
   46MOL   C22724617   4.048   6.246   0.653  0.7913  0.0602 -0.4906
   46MOL   C22824618   4.124   6.349   0.441  0.2052 -0.1122 -0.3359
   46MOL   H22924619   3.275   6.577   0.077 -1.7435  1.0426 -1.3393
   46MOL   H23024620   3.328   6.690   7.788  0.0008  0.5950  0.3693
   46MOL   H23124621   3.389   6.518   7.756 -0.8902  0.6942 -0.3622
   46MOL   H23224622   3.454   6.702   0.186  0.2587 -0.0174 -0.1984
   46MOL   H23324623   3.565   6.667   0.052  1.1396  1.3930  2.4649
   46MOL   H23424624   3.538   6.423   0.120  0.9997 -1.3155  0.4340
   46MOL   H23524625   3.450   6.491   0.263 -0.1325  0.2925 -0.6580
   46MOL   H23624626   3.736   6.553   0.180  0.2109 -0.7233  0.5759
   46MOL   H23724627   3.657   6.621   0.319  0.7251 -0.6880  1.0997
   46MOL   H23824628   3.725   6.328   0.263  0.5502 -0.4322  0.0075
   46MOL   H23924629   3.635   6.377   0.409  1.0029 -1.6558  0.5530
   46MOL   H24024630   4.133   6.292   0.703 -0.3708  1.6151  0.0730
   46MOL   H24124631   4.090   6.161   0.599  0.9552  0.3177 -0.7716
   46MOL   H24224632   3.967   6.213   0.718  0.3135 -2.0107 -2.0533
   46MOL   H24324633   4.136   6.243   0.422  1.9223 -0.0978  0.6499
   46MOL   H24424634   4.221   6.372   0.484  0.6029 -3.3405  0.6180
   46MOL   C24524635   4.228   7.228   0.500  0.1585  0.7761  0.1420
   46MOL   C24624636   4.265   7.088   0.546  0.5074 -0.0350 -0.0519
   46MOL   C24724637   4.209   6.989   0.434  0.5884  0.2317 -0.2704
   46MOL   C24824638   4.221   6.836   0.457  0.4970 -0.1184 -0.3217
   46MOL   C24924639   4.146   6.773   0.333  0.6812  0.4482  0.0875
   46MOL   O25024640   4.168   6.633   0.349 -0.4954 -0.2026 -0.1783
   46MOL   C25124641   4.089   6.545   0.280 -0.8575 -0.1600  0.0983
   46MOL   O25224642   3.991   6.583   0.209 -0.0397 -0.3490 -0.9088
   46MOL   C25324643   4.129   6.395   0.292  0.5031  0.5263 -0.0484
   46MOL   C25424644   4.045   6.301   0.195 -0.4856 -0.0562 -0.4620
   46MOL   C25524645   4.276   6.374   0.255  0.1713 -0.1339 -0.9202
   46MOL   H25624646   4.302   7.276   0.436 -0.6321 -0.3075 -1.5950
   46MOL   H25724647   4.136   7.238   0.442 -0.1848  1.2510  0.7584
   46MOL   H25824648   4.218   7.287   0.592 -0.5924 -1.1811  1.3608
   46MOL   H25924649   4.372   7.074   0.560  0.9300  0.0235 -2.8607
   46MOL   H26024650   4.226   7.064   0.645 -1.3149  1.0622 -0.4788
   46MOL   H26124651   4.239   7.019   0.333 -1.4620  1.0426 -0.6769
   46MOL   H26224652   4.107   7.027   0.421  0.0617 -1.5469 -1.5045
   46MOL   H26324653   4.327   6.811   0.463  0.2160 -1.2392  0.0199
   46MOL   H26424654   4.169   6.798   0.545 -1.3197  1.2258 -0.7688
   46MOL   H26524655   4.039   6.796   0.328  0.4743 -0.3411  0.8104
   46MOL   H26624656   4.193   6.796   0.238 -1.3068 -3.0439 -1.8209
   46MOL   H26724657   3.940   6.328   0.208 -1.1787 -0.7022 -4.0907
   46MOL   H26824658   4.062   6.319   0.089  2.6305  0.6800  0.1261
   46MOL   H26924659   4.052   6.194   0.214  0.1297  0.7045  4.3048
   46MOL   H27024660   4.320   6.459   0.309  0.3210 -1.9370  1.8841
   46MOL   H27124661   4.311   6.277   0.290 -2.7527 -0.8963  0.0150
   46MOL   C27224662   3.879   5.911   0.007 -0.0270  0.3822 -0.6067
   46MOL   C27324663   3.980   5.811   0.044 -0.2887  0.3452  0.0978
   46MOL   C27424664   4.123   5.837   7.813  0.5824 -0.4998  0.8753
   46MOL   C27524665   4.176   5.969   0.061  0.9479  0.2590  0.3541
   46MOL   C27624666   4.315   6.012   0.022  0.0952  0.4133 -0.3550
   46MOL   O27724667   4.348   6.139   0.088 -0.2836 -0.3629  0.5395
   46MOL   C27824668   4.314   6.255   0.028 -0.2825 -0.0425  0.5169
   46MOL   O27924669   4.257   6.271   7.729  0.0762  0.7567 -0.3749
   46MOL   C28024670   4.343   6.382   0.113  0.3100 -0.2706 -0.0752
   46MOL   C28124671   4.286   6.510   0.034 -0.1530  0.1663  0.4017
   46MOL   C28224672   4.501   6.393   0.140  0.5008  0.2720 -0.4822
   46MOL   H28324673   3.878   6.005   0.061  0.4263 -0.0444  0.1537
   46MOL   H28424674   3.855   5.926   7.716 -1.2380 -2.2365 -0.7508
   46MOL   H28524675   3.789   5.860   0.041  1.0116 -0.5416  0.8085
   46MOL   H28624676   3.984   5.792   0.151  0.2810 -1.0967 -0.1701
   46MOL   H28724677   3.954   5.715   7.812  1.2896 -0.9998  1.9337
   46MOL   H28824678   4.187   5.753   0.026  0.7224 -0.9339 -0.7540
   46MOL   H28924679   4.138   5.852   7.706  2.4363  4.0881  1.6809
   46MOL   H29024680   4.107   6.049   0.035  1.0892 -0.3114 -1.8457
   46MOL   H29124681   4.175   5.939   0.166  1.9801 -3.0872 -0.5250
   46MOL   H29224682   4.322   6.030   7.729 -0.0562  2.3921 -0.0443
   46MOL   H29324683   4.392   5.938   0.045 -1.2874 -1.2535 -1.0616
   46MOL   H29424684   4.328   6.520   7.748 -0.6275 -0.4888  0.1250
   46MOL   H29524685   4.181   6.505   0.004 -0.1584  0.8365  0.3163
   46MOL   H29624686   4.302   6.599   0.093  1.4425  0.0402  0.1855
   46MOL   H29724687   4.503   6.501   0.155  0.5182 -0.1338  2.8822
   46MOL   H29824688   4.531   6.340   0.230 -0.8884  0.4602  0.1123
   46MOL   C29924689   5.308   6.741   0.334  0.3892  0.2084 -0.0359
   46MOL   C30024690   5.199   6.737   0.229 -0.2627  0.0687 -0.7632
   46MOL   C30124691   5.083   6.639   0.274  0.1461  0.0229  0.0776
   46MOL   C30224692   4.967   6.623   0.169  0.0140 -0.3983  0.1232
   46MOL   C30324693   4.847   6.577   0.244  0.2983  1.0322  0.1273
   46MOL   O30424694   4.735   6.549   0.156 -0.4077  0.6398  0.1550
   46MOL   C30524695   4.736   6.424   0.098  0.0766 -0.0427 -0.3134
   46MOL   O30624696   4.831   6.338   0.100 -0.4336 -0.5198 -0.3460
   46MOL   C30724697   4.606   6.374   0.022 -0.2096 -0.0860  0.7231
   46MOL   C30824698   4.613   6.218   7.806  0.7230 -0.0138  0.2631
   46MOL   C30924699   4.572   6.449   7.700  0.5135  0.3626  0.4801
   46MOL   H31024700   5.374   6.655   0.322  1.1807  0.4178  2.4821
   46MOL   H31124701   5.276   6.738   0.439  1.0957 -0.6752  0.1618
   46MOL   H31224702   5.369   6.830   0.319 -1.4138  1.6859  1.0992
   46MOL   H31324703   5.248   6.718   0.134  0.6109  1.7893 -0.6857
   46MOL   H31424704   5.157   6.835   0.208 -0.9005 -0.0430 -0.0409
   46MOL   H31524705   5.040   6.663   0.371  0.5673  0.4292  0.1682
   46MOL   H31624706   5.131   6.544   0.299  1.7465  0.4228 -1.3083
   46MOL   H31724707   5.001   6.556   0.090  0.5582  1.5949 -1.3708
   46MOL   H31824708   4.949   6.719   0.121 -0.5390 -0.0530  1.0041
   46MOL   H31924709   4.865   6.483   0.296 -0.4027 -1.4674 -3.8739
   46MOL   H32024710   4.819   6.646   0.324 -0.7537 -0.5175  1.1343
   46MOL   H32124711   4.585   6.160   0.080 -0.3916  0.8206  0.4685
   46MOL   H32224712   4.563   6.184   7.715  0.7651 -1.6400  0.8293
   46MOL   H32324713   4.715   6.183   7.793  1.4060  1.8908  0.2337
   46MOL   H32424714   4.549   6.547   7.742  3.0404  0.3498  1.9732
   46MOL   H32524715   4.478   6.412   7.657 -0.4042  1.3742  1.5850
   46MOL   C32624716   5.420   6.799   7.693 -0.1937  0.2552 -0.5030
   46MOL   C32724717   5.308   6.689   7.665 -0.4660 -0.8477 -0.3090
   46MOL   C32824718   5.189   6.751   7.592 -0.3071  0.4867  0.9477
   46MOL   C32924719   5.078   6.645   7.589 -0.7285 -0.0044 -0.0913
   46MOL   C33024720   4.955   6.688   7.511  0.4162 -0.1998  0.0336
   46MOL   O33124721   4.858   6.589   7.498 -0.1931  0.1813  0.0868
   46MOL   C33224722   4.763   6.579   7.590  0.5457  0.1419  0.0313
   46MOL   O33324723   4.743   6.666   7.674  0.2272  0.1029 -0.2767
   46MOL   C33424724   4.670   6.460   7.576  0.8126  0.1963 -0.1943
   46MOL   C33524725   4.753   6.330   7.558 -0.3088 -0.0164  0.8847
   46MOL   C33624726   4.569   6.484   7.455 -0.2269 -0.6208  0.2525
   46MOL   H33724727   5.467   6.843   7.605 -0.1825  2.1181  0.4098
   46MOL   H33824728   5.501   6.767   7.759 -0.8830  3.1935  1.8424
   46MOL   H33924729   5.389   6.885   7.751 -0.0740 -1.2365  1.8482
   46MOL   H34024730   5.282   6.629   7.751  2.4671 -0.8408  0.6482
   46MOL   H34124731   5.351   6.615   7.597  1.2068 -1.4744  1.3944
   46MOL   H34224732   5.223   6.779   7.492  0.1509  0.6307  1.1411
   46MOL   H34324733   5.157   6.837   7.650 -1.7536  0.4409  0.2204
   46MOL   H34424734   5.052   6.619   7.691  0.4508 -0.4246  0.1159
   46MOL   H34524735   5.118   6.555   7.542 -0.6746  0.7765 -1.6016
   46MOL   H34624736   4.982   6.699   7.406  1.6345  1.3002  0.4937
   46MOL   H34724737   4.915   6.784   7.544 -0.6444  0.6081 -3.3837
   46MOL   H34824738   4.681   6.253   7.532 -2.1243  3.1108 -4.0061
   46MOL   H34924739   4.815   6.311   7.646 -0.1254 -1.7824  0.4021
   46MOL   H35024740   4.830   6.334   7.480  0.4144 -1.1018  1.5221
   46MOL   H35124741   4.485   6.552   7.472 -0.4116 -0.7144 -0.2822
   46MOL   H35224742   4.508   6.394   7.444 -0.8701 -0.2229  0.4977
   46MOL   C35324743   5.357   6.501   7.275  0.3536  0.0747  0.6078
   46MOL   C35424744   5.302   6.523   7.141  0.4609  0.6051  0.3824
   46MOL   C35524745   5.176   6.442   7.113 -0.5752  0.2530 -0.3806
   46MOL   C35624746   5.055   6.518   7.167  0.6687  0.4852 -0.8775
   46MOL   C35724747   4.924   6.440   7.143 -0.8479 -0.1095 -0.1932
   46MOL   O35824748   4.815   6.496   7.213 -0.1449  0.3348  0.1395
   46MOL   C35924749   4.709   6.430   7.254 -0.0210 -0.2471 -0.2935
   46MOL   O36024750   4.698   6.309   7.265  0.5769 -0.5376  0.3502
   46MOL   C36124751   4.597   6.523   7.304 -0.0806  0.2176  0.0121
   46MOL   C36224752   4.623   6.674   7.289  0.7611 -0.3020  0.1665
   46MOL   C36324753   4.467   6.477   7.227 -0.1569  0.4143  0.9720
   46MOL   H36424754   5.386   6.397   7.292 -2.4088 -0.8764 -0.2255
   46MOL   H36524755   5.292   6.541   7.353  1.4846  1.5744  0.8090
   46MOL   H36624756   5.446   6.564   7.272 -0.8588  1.7789 -0.2394
   46MOL   H36724757   5.288   6.624   7.105  0.5538 -0.1989 -1.9762
   46MOL   H36824758   5.382   6.483   7.078 -0.9396 -0.2158 -0.9235
   46MOL   H36924759   5.187   6.343   7.156 -0.8779 -0.9446 -2.9833
   46MOL   H37024760   5.163   6.423   7.007 -0.0063 -0.3327 -0.3437
   46MOL   H37124761   5.036   6.619   7.128 -0.9540  0.5787  0.1108
   46MOL   H37224762   5.059   6.529   7.275  1.3292  3.0125 -1.1259
   46MOL   H37324763   4.897   6.443   7.037 -0.9401  2.5594 -0.1369
   46MOL   H37424764   4.939   6.337   7.177 -2.5047 -0.4165 -0.3271
   46MOL   H37524765   4.632   6.698   7.183 -0.6679 -0.5668 -0.0230
   46MOL   H37624766   4.534   6.730   7.317  1.3427  1.2412 -0.9643
   46MOL   H37724767   4.702   6.725   7.346 -1.1329  2.6389  0.2968
   46MOL   H37824768   4.462   6.368   7.228  0.4627  0.3469 -0.8645
   46MOL   H37924769   4.386   6.495   7.297  0.9027 -1.0906  2.6126
   46MOL   C38024770   4.015   6.865   7.627  0.4037  0.6450 -0.0049
   46MOL   C38124771   4.081   6.745   7.573  0.0088 -0.6981 -0.9627
   46MOL   C38224772   4.193   6.770   7.466  0.3919 -0.0034  0.8008
   46MOL   C38324773   4.137   6.818   7.327  0.2599 -0.1755  0.0090
   46MOL   C38424774   4.235   6.821   7.208  0.8327 -0.6834  0.5652
   46MOL   O38524775   4.279   6.689   7.178 -0.3864  0.3233 -0.2977
   46MOL   C38624776   4.383   6.672   7.082  0.1760  0.2130  0.0882
   46MOL   O38724777   4.430   6.763   7.008  0.6822 -0.0513 -0.1282
   46MOL   C38824778   4.430   6.525   7.080 -0.6275 -1.0894 -0.7206
   46MOL   C38924779   4.552   6.518   6.971  0.1169 -0.9330 -0.3521
   46MOL   C39024780   4.302   6.439   7.042 -0.6772  0.3111  0.0873
   46MOL   H39124781   3.973   6.905   7.535  0.5501 -2.6001 -1.5141
   46MOL   H39224782   3.941   6.849   7.706  0.5915 -1.3541 -0.2262
   46MOL   H39324783   4.084   6.942   7.662 -3.2491  3.4542  1.5313
   46MOL   H39424784   4.005   6.678   7.531 -0.8417  0.0877 -0.6939
   46MOL   H39524785   4.112   6.680   7.655  1.0340 -0.0700 -0.8408
   46MOL   H39624786   4.276   6.824   7.513  1.5703 -0.4905 -0.6578
   46MOL   H39724787   4.238   6.676   7.433 -0.3936 -0.3055  0.5876
   46MOL   H39824788   4.046   6.766   7.297  0.7944 -0.9111 -0.3423
   46MOL   H39924789   4.109   6.923   7.337  0.6840  0.0757 -1.3704
   46MOL   H40024790   4.326   6.877   7.233  1.0007 -0.0962 -1.2553
   46MOL   H40124791   4.181   6.856   7.120  2.0275 -1.0223 -0.3303
   46MOL   H40224792   4.521   6.563   6.876  0.3997 -1.7864 -0.8564
   46MOL   H40324793   4.575   6.412   6.959 -0.7564 -1.3450  1.4562
   46MOL   H40424794   4.636   6.580   7.001  0.4969 -1.0400 -1.1675
   46MOL   H40524795   4.231   6.463   7.120 -0.4697  0.6430  0.1749
   46MOL   H40624796   4.320   6.334   7.064  2.8715  0.3675 -2.0508
   46MOL   C40724797   3.783   6.906   7.199  0.0855 -0.1829 -0.4523
   46MOL   C40824798   3.741   6.798   7.101 -0.5341  0.5230  0.6130
   46MOL   C40924799   3.841   6.688   7.091  0.3989  0.3500 -0.7626
   46MOL   C41024800   3.786   6.588   6.987 -0.3668 -0.6873 -0.0824
   46MOL   C41124801   3.863   6.458   6.970  0.8747  0.0253 -1.0113
   46MOL   O41224802   4.002   6.480   6.960  0.0913 -0.8058  0.2489
   46MOL   C41324803   4.097   6.386   6.931  0.3968  0.3440  0.3728
   46MOL   O41424804   4.072   6.266   6.936 -0.0460  0.0717  0.3324
   46MOL   C41524805   4.238   6.443   6.903  0.8220  1.0359  0.2212
   46MOL   C41624806   4.216   6.584   6.848 -0.7820 -0.1527  0.0155
   46MOL   C41724807   4.318   6.354   6.802 -0.6094 -0.0065  0.6787
   46MOL   H41824808   3.706   6.983   7.198 -2.6586 -2.8279  0.1872
   46MOL   H41924809   3.791   6.876   7.304 -1.2252 -1.6294 -0.7615
   46MOL   H42024810   3.868   6.965   7.163  0.9740 -1.1427  0.0510
   46MOL   H42124811   3.722   6.832   6.999  4.3939  1.5943 -0.1050
   46MOL   H42224812   3.646   6.749   7.122  0.6675 -2.0907  0.1814
   46MOL   H42324813   3.941   6.721   7.062  0.8814 -1.8004 -1.6103
   46MOL   H42424814   3.854   6.641   7.189  1.5348  0.7179 -0.7279
   46MOL   H42524815   3.757   6.642   6.897  2.0917  4.7530  2.1517
   46MOL   H42624816   3.690   6.550   7.020 -1.1395  1.2404 -0.0224
   46MOL   H42724817   3.843   6.415   7.068  2.1152 -1.9727 -1.6116
   46MOL   H42824818   3.814   6.396   6.895 -1.9685 -1.4710  1.9898
   46MOL   H42924819   4.162   6.648   6.918  1.2197  0.1959  1.2919
   46MOL   H43024820   4.147   6.590   6.764 -0.7966  0.4172  0.0636
   46MOL   H43124821   4.305   6.633   6.808 -0.9815 -0.3144 -0.6173
   46MOL   H43224822   4.335   6.257   6.848  0.6837  0.2378  0.7356
   46MOL   H43324823   4.421   6.388   6.812 -0.8947  0.7646  1.0994
   46MOL   C43424824   4.898   6.659   6.784 -0.8605 -0.1784 -0.2140
   46MOL   C43524825   4.775   6.738   6.749  0.1071  0.3210  0.3166
   46MOL   C43624826   4.684   6.667   6.651 -0.1835 -0.1369 -0.8799
   46MOL   C43724827   4.541   6.737   6.629  0.2435  0.6137 -0.7499
   46MOL   C43824828   4.450   6.655   6.527 -0.5604 -0.0623  0.0664
   46MOL   O43924829   4.410   6.535   6.594 -0.2297  0.3386 -0.3748
   46MOL   C44024830   4.296   6.464   6.571  0.1882 -0.3048  0.8701
   46MOL   O44124831   4.214   6.499   6.484  0.4142 -0.1870  0.0370
   46MOL   C44224832   4.270   6.338   6.655  0.1848 -0.5088  0.7015
   46MOL   C44324833   4.120   6.300   6.645  0.8365 -0.0685  0.0782
   46MOL   C44424834   4.343   6.216   6.590  0.2841 -0.4608  0.4070
   46MOL   H44524835   4.882   6.551   6.791 -0.4958 -0.1084  2.3397
   46MOL   H44624836   4.966   6.680   6.702 -0.6461  0.7867  0.2078
   46MOL   H44724837   4.940   6.697   6.877 -0.7767 -2.1162  0.5687
   46MOL   H44824838   4.722   6.747   6.844  1.3030  0.2800  0.9917
   46MOL   H44924839   4.798   6.836   6.707 -0.2710  0.7713  1.1534
   46MOL   H45024840   4.738   6.658   6.557  2.0583  0.1337  0.3505
   46MOL   H45124841   4.677   6.569   6.697  3.3201 -1.3202 -2.7045
   46MOL   H45224842   4.561   6.834   6.585  1.0466  1.5552  1.6328
   46MOL   H45324843   4.491   6.753   6.724  0.8606 -0.7139 -0.1889
   46MOL   H45424844   4.497   6.640   6.430 -1.1770  0.4445 -0.3161
   46MOL   H45524845   4.360   6.713   6.506 -1.0478 -2.1822 -4.2239
   46MOL   H45624846   4.059   6.387   6.672  0.9240  0.1129 -0.3082
   46MOL   H45724847   4.096   6.275   6.542 -0.4536  0.5886  0.2032
   46MOL   H45824848   4.090   6.216   6.708  2.2007  0.9827  2.2019
   46MOL   H45924849   4.287   6.204   6.498 -1.0571  1.7110  0.9058
   46MOL   H46024850   4.316   6.143   6.666  0.1877 -0.3058  0.5230
   46MOL   C46124851   5.157   6.105   6.991  0.2089  0.3211  0.3753
   46MOL   C46224852   5.039   6.049   6.918 -0.4154  0.1309 -0.2739
   46MOL   C46324853   4.907   6.115   6.964  0.1924 -0.7525  0.4711
   46MOL   C46424854   4.793   6.083   6.870  0.8814  0.0607 -0.7638
   46MOL   C46524855   4.669   6.167   6.887  0.5064 -0.4224 -0.7229
   46MOL   O46624856   4.577   6.167   6.782  0.2715  0.0389 -0.0760
   46MOL   C46724857   4.593   6.236   6.663 -0.6446 -0.8768  0.2572
   46MOL   O46824858   4.685   6.316   6.642  0.4191 -0.2202  0.2973
   46MOL   C46924859   4.499   6.185   6.553  0.6600  0.1006 -0.1538
   46MOL   C47024860   4.542   6.254   6.421  0.1502  0.1645 -0.3806
   46MOL   C47124861   4.522   6.029   6.537  0.0671  0.3312  0.6439
   46MOL   H47224862   5.158   6.100   7.100 -0.6072  0.7111  0.4110
   46MOL   H47324863   5.165   6.207   6.955  0.7865  0.4964  0.9830
   46MOL   H47424864   5.246   6.056   6.953  2.1783  1.6141  3.1202
   46MOL   H47524865   5.039   5.941   6.936  1.3961  0.1730  0.0658
   46MOL   H47624866   5.049   6.048   6.809  1.2444 -2.2596 -0.1418
   46MOL   H47724867   4.919   6.224   6.960  0.9973 -0.9037 -1.8477
   46MOL   H47824868   4.880   6.097   7.068  0.1295 -0.3811  0.5222
   46MOL   H47924869   4.767   5.977   6.878 -0.3037  0.3313 -0.9369
   46MOL   H48024870   4.834   6.096   6.770  0.2560 -0.8220 -1.1488
   46MOL   H48124871   4.626   6.126   6.978 -1.3940 -1.5970 -2.1086
   46MOL   H48224872   4.700   6.270   6.905 -2.7810  0.4356  0.3651
   46MOL   H48324873   4.480   6.207   6.345  1.4950 -0.9070 -0.8407
   46MOL   H48424874   4.650   6.252   6.407 -0.1070  1.1799 -2.6097
   46MOL   H48524875   4.511   6.358   6.417 -1.7851 -0.3762 -0.0234
   46MOL   H48624876   4.499   5.994   6.638 -1.2621 -3.3586 -0.8587
   46MOL   H48724877   4.629   6.025   6.516 -0.0934 -0.1758 -0.0995
   46MOL   C48824878   3.952   5.906   5.979  0.0041 -0.1492  0.2880
   46MOL   C48924879   4.087   5.980   5.964 -0.0850 -0.1573  0.7223
   46MOL   C49024880   4.210   5.906   6.032  0.2801 -0.7308 -0.3544
   46MOL   C49124881   4.345   5.977   6.009  0.0227 -0.2289 -0.8198
   46MOL   C49224882   4.460   5.893   6.060  0.4994 -0.0091  0.0212
   46MOL   O49324883   4.447   5.873   6.194  0.4277 -0.4761 -0.2678
   46MOL   C49424884   4.511   5.945   6.292  0.6796  0.2370  0.0408
   46MOL   O49524885   4.607   6.012   6.272  0.5214 -0.5610  0.3378
   46MOL   C49624886   4.452   5.932   6.436 -0.9369  0.2142  0.1256
   46MOL   C49724887   4.298   5.946   6.435  0.3646 -0.4468 -0.4230
   46MOL   C49824888   4.477   5.782   6.492  0.7107 -0.3140  0.0763
   46MOL   H49924889   3.954   5.817   5.916 -1.5422 -1.9323  2.6865
   46MOL   H50024890   3.927   5.883   6.082 -1.5413 -0.0616 -0.0499
   46MOL   H50124891   3.874   5.974   5.943 -1.2385 -0.7059  1.8769
   46MOL   H50224892   4.066   6.082   5.998 -2.0398  0.4360 -2.0713
   46MOL   H50324893   4.115   5.978   5.858 -0.3194  0.3485  0.6484
   46MOL   H50424894   4.195   5.896   6.139 -2.8679 -1.5314 -0.8343
   46MOL   H50524895   4.217   5.808   5.984 -0.9139 -0.4713 -1.0661
   46MOL   H50624896   4.351   6.078   6.049  0.8648 -0.3398 -0.6402
   46MOL   H50724897   4.371   5.988   5.904  1.1330 -2.5341 -0.8269
   46MOL   H50824898   4.452   5.789   6.030  0.1331 -0.4038  1.4313
   46MOL   H50924899   4.550   5.948   6.035 -0.7731  2.9187  1.6082
   46MOL   H51024900   4.283   6.035   6.374 -0.3291 -0.3866 -0.1668
   46MOL   H51124901   4.265   5.962   6.538  1.9104  0.4054 -0.0345
   46MOL   H51224902   4.235   5.869   6.391 -0.8767  0.4747 -0.3084
   46MOL   H51324903   4.420   5.710   6.433  1.3463 -1.0261  0.3216
   46MOL   H51424904   4.419   5.765   6.583 -0.2428 -2.9181 -0.9753
   46MOL   C51524905   4.491   5.018   6.026 -0.5352  0.3218  0.5614
   46MOL   C51624906   4.525   5.156   6.078  0.6765  0.4134 -0.2661
   46MOL   C51724907   4.488   5.194   6.223  0.8369  0.1017  0.7798
   46MOL   C51824908   4.531   5.334   6.254 -0.2242  0.5362  0.4276
   46MOL   C51924909   4.508   5.384   6.388 -0.0719 -0.0620  0.0044
   46MOL   O52024910   4.567   5.509   6.407  0.4290 -0.5589 -0.6552
   46MOL   C52124911   4.589   5.560   6.526 -0.0061  0.8190  0.7188
   46MOL   O52224912   4.603   5.496   6.628 -0.0197  0.7037  0.4471
   46MOL   C52324913   4.614   5.710   6.516 -0.0893  0.1260 -0.0219
   46MOL   C52424914   4.695   5.762   6.634  0.0466 -0.0659  0.6620
   46MOL   C52524915   4.718   5.739   6.400 -0.3790 -0.6075 -0.0827
   46MOL   H52624916   4.539   4.933   6.075  1.3629  1.0145 -0.0950
   46MOL   H52724917   4.383   5.001   6.019 -0.2649 -0.7715 -1.5143
   46MOL   H52824918   4.520   5.016   5.921 -2.3370 -0.9246  0.0509
   46MOL   H52924919   4.631   5.172   6.058  0.9168 -1.9914 -1.0818
   46MOL   H53024920   4.478   5.233   6.016  0.2672  0.2123 -0.2056
   46MOL   H53124921   4.381   5.182   6.245  0.8138  0.3901  0.8184
   46MOL   H53224922   4.542   5.123   6.286  0.0079 -3.4797 -2.3786
   46MOL   H53324923   4.490   5.402   6.178 -1.9368 -2.7398 -1.6827
   46MOL   H53424924   4.640   5.339   6.251 -0.1903 -0.3569  0.0175
   46MOL   H53524925   4.399   5.387   6.398 -0.1315  0.0380 -0.6388
   46MOL   H53624926   4.555   5.316   6.459  0.1657 -1.4805 -1.4924
   46MOL   H53724927   4.633   5.778   6.723 -1.0786 -1.9268  0.2345
   46MOL   H53824928   4.748   5.857   6.625  0.9495 -0.4101  2.1406
   46MOL   H53924929   4.763   5.686   6.671 -1.3838 -0.7481  1.9710
   46MOL   H54024930   4.754   5.841   6.387  2.5731 -1.6363 -0.3028
   46MOL   H54124931   4.672   5.709   6.305 -0.6795 -1.3644  0.2934
   46MOL   H54224932   4.809   5.680   6.411 -1.4286 -2.5218 -1.3224
   47MOL     C124933   1.283   5.039   0.534 -0.3573  0.1295 -0.3955
   47MOL     C224934   1.196   5.065   0.411  0.0227  0.4937 -0.2534
   47MOL     C324935   1.056   5.098   0.462 -0.3710  1.3107 -0.3066
   47MOL     C424936   0.965   5.151   0.357 -0.0216 -0.0956 -0.6651
   47MOL     C524937   0.827   5.170   0.412 -0.2310 -0.1524 -0.3232
   47MOL     O624938   0.817   5.269   0.517 -0.1663  0.5389  0.4868
   47MOL     C724939   0.681   5.288   0.567 -0.2925  0.2432 -0.4687
   47MOL     O824940   0.576   5.237   0.523  0.1462 -0.1159  0.7658
   47MOL     C924941   0.660   5.375   0.691 -0.0993  0.6531 -0.1405
   47MOL    C1024942   0.698   5.521   0.644 -0.6296 -0.4400 -0.6149
   47MOL    C1124943   0.755   5.335   0.808 -0.4512 -0.5128 -0.2730
   47MOL    H1224944   1.302   5.133   0.587 -2.0628 -0.2045  0.8684
   47MOL    H1324945   1.380   5.014   0.492 -1.6011 -3.2240 -1.4146
   47MOL    H1424946   1.256   4.965   0.609 -0.3332  0.7841  0.2700
   47MOL    H1524947   1.243   5.150   0.364 -2.6176  2.3122  0.2699
   47MOL    H1624948   1.193   4.981   0.341  0.2398 -0.1132  0.4519
   47MOL    H1724949   1.020   5.003   0.499 -0.5414  2.1229  1.6871
   47MOL    H1824950   1.064   5.175   0.539  0.4174  1.4517 -0.5185
   47MOL    H1924951   0.954   5.083   0.271  0.3162 -1.0331  0.0224
   47MOL    H2024952   1.004   5.240   0.307  0.6581 -0.5299 -0.9195
   47MOL    H2124953   0.771   5.194   0.322 -0.8830 -0.2921  0.0341
   47MOL    H2224954   0.789   5.071   0.439 -2.5482  0.5947 -0.7108
   47MOL    H2324955   0.806   5.532   0.650 -0.8287  1.1433  0.3940
   47MOL    H2424956   0.659   5.597   0.712 -0.0626 -0.9308  0.2684
   47MOL    H2524957   0.652   5.553   0.550  2.1842 -1.2810 -2.3161
   47MOL    H2624958   0.790   5.423   0.862 -0.4066 -0.6537 -0.0769
   47MOL    H2724959   0.843   5.287   0.766 -0.2794  0.4563 -1.0617
   47MOL    H2824960   0.557   5.367   0.726  0.4322  0.8832  1.4998
   47MOL    C2924961   0.182   5.195   0.636  0.6126 -0.3460 -0.3747
   47MOL    C3024962   0.210   5.119   0.768 -0.8114  0.5898 -0.3271
   47MOL    C3124963   0.306   5.003   0.752  0.1504  0.1365 -0.2067
   47MOL    C3224964   0.348   4.944   0.891 -0.2056  0.4688 -0.3935
   47MOL    C3324965   0.497   4.929   0.904 -0.2159 -0.6673 -0.0749
   47MOL    O3424966   0.555   5.054   0.947 -0.1782  0.2248  0.5461
   47MOL    C3524967   0.642   5.117   0.868 -0.1585  0.3332  0.8784
   47MOL    O3624968   0.690   5.068   0.769 -0.3296 -0.3102  0.4108
   47MOL    C3724969   0.698   5.247   0.927 -0.1198 -0.2188 -0.5129
   47MOL    C3824970   0.581   5.323   0.994  0.2911  0.1343 -0.7186
   47MOL    C3924971   0.796   5.226   1.048 -0.0995  0.3283  0.5628
   47MOL    H4024972   0.274   5.218   0.582  1.4516 -1.6718  0.4587
   47MOL    H4124973   0.115   5.139   0.570 -1.7012  1.4450  0.3908
   47MOL    H4224974   0.128   5.284   0.668  1.4874 -0.4664  1.4427
   47MOL    H4324975   0.119   5.086   0.818  0.3068 -2.5475 -0.2615
   47MOL    H4424976   0.259   5.192   0.833 -0.2687 -0.7190  0.7587
   47MOL    H4524977   0.397   5.054   0.722  0.7238 -1.1887 -0.7238
   47MOL    H4624978   0.271   4.927   0.683  0.5811 -1.6621  1.4947
   47MOL    H4724979   0.307   4.993   0.980 -0.0304 -2.8558  1.5773
   47MOL    H4824980   0.309   4.843   0.901 -3.0467  1.6553  1.0706
   47MOL    H4924981   0.538   4.887   0.813 -1.1270 -1.3673 -0.1703
   47MOL    H5024982   0.530   4.857   0.980  0.4744 -2.2435 -1.8462
   47MOL    H5124983   0.606   5.429   0.997 -2.1760  0.7249  1.8316
   47MOL    H5224984   0.566   5.303   1.100  1.2144  0.3975 -0.5342
   47MOL    H5324985   0.486   5.307   0.942 -0.1049 -2.9916  0.8372
   47MOL    H5424986   0.739   5.182   1.130 -2.0607 -0.6666 -1.2890
   47MOL    H5524987   0.831   5.318   1.093 -0.0153 -0.1355  1.4464
   47MOL    C5624988   0.969   5.803   0.818 -0.5349  0.1431 -0.3966
   47MOL    C5724989   1.078   5.707   0.772  0.5153  0.2160 -0.7209
   47MOL    C5824990   1.080   5.581   0.860  0.6297  0.0866  0.6102
   47MOL    C5924991   1.183   5.478   0.816  0.1017 -0.2013 -0.3986
   47MOL    C6024992   1.119   5.340   0.786  0.9175  0.1529  0.1983
   47MOL    O6124993   1.048   5.300   0.900 -0.5487 -0.1171 -0.4851
   47MOL    C6224994   1.019   5.166   0.919  0.6638  0.6680  0.9207
   47MOL    O6324995   1.056   5.074   0.842 -0.3256 -0.5370  0.0754
   47MOL    C6424996   0.924   5.135   1.039 -0.2845  0.5446 -0.0717
   47MOL    C6524997   0.885   4.980   1.023 -0.6068  0.1494 -0.2828
   47MOL    C6624998   1.001   5.165   1.182  1.1488 -0.6205  0.0782
   47MOL    H6724999   0.979   5.833   0.922  1.8667  0.4029 -0.6745
   47MOL    H6825000   0.868   5.765   0.803 -1.2252  1.5173  0.6847
   47MOL    H6925001   0.966   5.895   0.759 -2.4389  0.0711 -0.4585
   47MOL    H7025002   1.063   5.685   0.666 -1.1088  0.7169 -0.6089
   47MOL    H7125003   1.169   5.758   0.801  0.7762 -0.2584 -0.6973
   47MOL    H7225004   1.059   5.595   0.966 -0.6524  0.1852  0.3467
   47MOL    H7325005   0.986   5.535   0.832  0.9652  0.4028 -1.0931
   47MOL    H7425006   1.260   5.486   0.892  0.7398  1.4584 -1.1721
   47MOL    H7525007   1.236   5.525   0.732  0.9785 -0.6569 -0.1021
   47MOL    H7625008   1.051   5.345   0.701  1.1403 -2.1036 -0.1549
   47MOL    H7725009   1.198   5.268   0.762 -0.2076 -0.7917 -0.6917
   47MOL    H7825010   0.846   4.957   0.924 -0.0985 -0.8963 -0.2437
   47MOL    H7925011   0.801   4.949   1.085 -0.6315 -0.9632 -0.8677
   47MOL    H8025012   0.962   4.905   1.036 -0.1426  0.4820 -1.0886
   47MOL    H8125013   0.925   5.181   1.259  0.7173 -0.8643 -0.2969
   47MOL    H8225014   1.041   5.266   1.176 -0.4220  0.0719  0.7698
   47MOL    C8325015   0.427   5.091   1.335  0.1162  0.3015  0.0053
   47MOL    C8425016   0.512   4.958   1.326 -0.0344  0.4290 -0.1143
   47MOL    C8525017   0.645   4.969   1.394  0.0874  0.4248 -0.5712
   47MOL    C8625018   0.741   4.842   1.404  0.2499  0.8708  0.4618
   47MOL    C8725019   0.876   4.882   1.469 -0.2611  0.3554 -0.1208
   47MOL    O8825020   0.938   4.976   1.385 -0.0710 -0.1607 -1.2494
   47MOL    C8925021   1.040   4.937   1.302 -0.0415 -0.5653 -0.2223
   47MOL    O9025022   1.073   4.820   1.280 -0.2170 -0.0209 -0.6050
   47MOL    C9125023   1.110   5.060   1.239  0.7183  0.1115 -0.1320
   47MOL    C9225024   1.212   5.023   1.136  0.3763  0.1173  0.1038
   47MOL    C9325025   1.172   5.152   1.358  0.2513 -0.7651 -0.0771
   47MOL    H9425026   0.349   5.090   1.258  0.0602  0.7305  0.0536
   47MOL    H9525027   0.394   5.091   1.438  1.6282 -1.0200  0.5019
   47MOL    H9625028   0.484   5.184   1.331  0.1725  0.2485 -0.5988
   47MOL    H9725029   0.521   4.931   1.221 -0.6324  0.8742 -0.2816
   47MOL    H9825030   0.460   4.871   1.368 -0.5174  0.7571 -0.0259
   47MOL    H9925031   0.635   5.009   1.495 -3.1286  0.5978 -0.9095
   47MOL   H10025032   0.695   5.047   1.336 -0.1049  2.6668  2.2097
   47MOL   H10125033   0.750   4.799   1.304 -2.7635  2.8000 -0.7068
   47MOL   H10225034   0.676   4.766   1.448  1.9131  0.1949  1.7736
   47MOL   H10325035   0.945   4.798   1.477 -1.7487 -0.9577 -0.9947
   47MOL   H10425036   0.873   4.924   1.569  0.1241  0.0597  0.0176
   47MOL   H10525037   1.176   4.973   1.046  0.2846  0.5069 -0.0771
   47MOL   H10625038   1.296   4.967   1.178  1.5257  0.0781 -2.1614
   47MOL   H10725039   1.254   5.113   1.092 -0.6516  0.8993  0.7033
   47MOL   H10825040   1.222   5.235   1.309  1.6285  1.4681  4.8574
   47MOL   H10925041   1.100   5.209   1.416 -0.1080  0.3157 -1.5360
   47MOL   C11025042   1.481   4.938   0.865  0.3414 -0.4068  0.1681
   47MOL   C11125043   1.563   4.977   0.982 -0.1799 -0.0121 -0.2892
   47MOL   C11225044   1.567   5.130   1.003 -0.0323 -0.7896  0.1499
   47MOL   C11325045   1.643   5.177   1.131 -0.2649 -0.2305 -0.6841
   47MOL   C11425046   1.617   5.104   1.267  0.7929 -0.4395 -0.6360
   47MOL   O11525047   1.479   5.130   1.314 -0.5893  0.2522 -0.2545
   47MOL   C11625048   1.416   5.042   1.392 -0.0491 -0.6215  0.1653
   47MOL   O11725049   1.464   4.934   1.420  0.0791 -0.2705  0.4449
   47MOL   C11825050   1.285   5.097   1.457 -0.0619  0.6819  0.5492
   47MOL   C11925051   1.231   4.990   1.550 -0.5524 -0.4820  0.2735
   47MOL   C12025052   1.324   5.234   1.535  0.1214 -0.0043 -0.2768
   47MOL   H12125053   1.377   4.970   0.879  0.0653 -0.7317 -1.1252
   47MOL   H12225054   1.517   4.972   0.768  2.0432  0.4708  1.0874
   47MOL   H12325055   1.469   4.830   0.855 -3.6046  0.0347 -0.7645
   47MOL   H12425056   1.523   4.913   1.061  0.6763  1.4866  1.3774
   47MOL   H12525057   1.664   4.936   0.979 -0.8903 -2.1151  2.6208
   47MOL   H12625058   1.612   5.183   0.919  0.1346  1.0065  1.3617
   47MOL   H12725059   1.466   5.172   1.010  0.0421 -0.6644  0.4412
   47MOL   H12825060   1.650   5.284   1.151 -2.9346 -0.0859 -0.3407
   47MOL   H12925061   1.747   5.152   1.109 -0.1304  0.6897 -1.0893
   47MOL   H13025062   1.641   4.998   1.271  1.1314 -0.3100  0.9835
   47MOL   H13125063   1.686   5.145   1.341 -0.2345 -2.7081  1.6610
   47MOL   H13225064   1.294   4.953   1.631 -0.5794  2.6390  1.7803
   47MOL   H13325065   1.139   5.029   1.594 -0.2840 -0.9139  1.2529
   47MOL   H13425066   1.205   4.903   1.489  1.5035 -1.0681  0.1994
   47MOL   H13525067   1.359   5.306   1.461  0.9961 -1.6617 -1.5178
   47MOL   H13625068   1.230   5.281   1.564  0.4065 -0.7240  1.8823
   47MOL   C13725069   1.820   4.909   2.110  0.5152 -0.6067  0.6810
   47MOL   C13825070   1.668   4.912   2.129 -0.3215  0.6424 -0.9441
   47MOL   C13925071   1.587   5.021   2.068  0.3590 -0.3901 -0.2989
   47MOL   C14025072   1.437   4.996   2.077 -0.4878  0.1700  0.0100
   47MOL   C14125073   1.343   5.097   2.000 -0.3190 -0.2355 -0.3995
   47MOL   O14225074   1.389   5.109   1.867 -0.1561 -0.4088 -0.0194
   47MOL   C14325075   1.328   5.195   1.791  0.1478  0.6385  0.0027
   47MOL   O14425076   1.220   5.249   1.820  0.5832 -0.4178 -0.9861
   47MOL   C14525077   1.410   5.234   1.666  0.4517 -0.4916 -0.8657
   47MOL   C14625078   1.543   5.148   1.653 -0.6327  0.5661  0.5721
   47MOL   C14725079   1.455   5.391   1.681 -0.1424 -0.6301  0.0088
   47MOL   H14825080   1.870   4.967   2.187 -0.3275 -0.5701  1.2073
   47MOL   H14925081   1.848   4.928   2.006 -1.2623  0.3800  0.3738
   47MOL   H15025082   1.845   4.806   2.138 -2.8116 -1.6426  0.0486
   47MOL   H15125083   1.646   4.918   2.236  0.5498  0.3408 -0.7477
   47MOL   H15225084   1.628   4.815   2.097 -2.9511  1.9419 -1.7564
   47MOL   H15325085   1.620   5.116   2.110 -0.0248 -0.3425 -0.1114
   47MOL   H15425086   1.610   5.025   1.962 -1.7239  1.6235 -0.7012
   47MOL   H15525087   1.422   4.897   2.034  1.0762  0.4343 -1.1338
   47MOL   H15625088   1.395   4.986   2.178 -1.0407 -0.8317 -0.3065
   47MOL   H15725089   1.359   5.193   2.049 -1.5946  0.0883 -0.6030
   47MOL   H15825090   1.236   5.082   2.016 -0.7608  1.1392 -2.0480
   47MOL   H15925091   1.607   5.157   1.741 -0.6289  2.5383  0.3778
   47MOL   H16025092   1.617   5.180   1.580 -0.8803 -1.4126 -0.5935
   47MOL   H16125093   1.533   5.040   1.640 -0.1137  0.4718  0.9424
   47MOL   H16225094   1.484   5.430   1.584 -1.2498 -0.5278 -0.2858
   47MOL   H16325095   1.359   5.441   1.690 -0.4626 -1.1410 -0.6109
   47MOL   C16425096   2.014   5.262   2.301  0.2259  0.0786 -0.6654
   47MOL   C16525097   2.104   5.325   2.193  0.1146 -0.1372  0.7282
   47MOL   C16625098   2.019   5.372   2.073 -0.2064  0.3461  0.7279
   47MOL   C16725099   1.958   5.277   1.970  0.2775 -0.7564  0.7017
   47MOL   C16825100   1.908   5.340   1.843  0.0808 -0.0125 -0.2675
   47MOL   O16925101   1.781   5.396   1.861  0.4848 -0.5066  0.2682
   47MOL   C17025102   1.708   5.402   1.754  0.5120 -0.4199 -0.3462
   47MOL   O17125103   1.739   5.375   1.640 -0.0639 -0.0262  0.2065
   47MOL   C17225104   1.559   5.441   1.781 -0.4330  0.7944 -0.7334
   47MOL   C17325105   1.515   5.397   1.932  0.6794  0.0362  1.3926
   47MOL   C17425106   1.549   5.601   1.792 -0.1432 -0.8015 -0.0390
   47MOL   H17525107   2.074   5.220   2.382 -2.9653  0.4871  2.0052
   47MOL   H17625108   1.960   5.176   2.260  0.3703  0.3272 -1.3830
   47MOL   H17725109   1.942   5.325   2.353  2.3024  0.3163  2.0093
   47MOL   H17825110   2.175   5.249   2.162 -1.1021 -1.6782  1.6642
   47MOL   H17925111   2.161   5.412   2.226 -1.8114  1.4872 -0.0505
   47MOL   H18025112   1.944   5.432   2.124  0.6327 -0.0437  2.4713
   47MOL   H18125113   2.084   5.445   2.024  1.9869 -2.1143 -0.1223
   47MOL   H18225114   1.876   5.228   2.021 -0.6216  0.6227  0.6178
   47MOL   H18325115   2.029   5.197   1.950 -0.3925 -1.3364  0.6618
   47MOL   H18425116   1.893   5.265   1.766 -0.0174  2.8327 -3.1037
   47MOL   H18525117   1.969   5.420   1.800 -0.7275  0.2264 -0.9759
   47MOL   H18625118   1.555   5.299   1.959  1.4323 -0.6728 -2.0329
   47MOL   H18725119   1.407   5.401   1.949  0.3815 -1.8046  0.1427
   47MOL   H18825120   1.555   5.462   2.009 -2.1692  0.3985  2.6407
   47MOL   H18925121   1.453   5.619   1.842 -1.6553 -3.2703 -1.9080
   47MOL   H19025122   1.627   5.629   1.862  0.2114 -1.1693 -0.2906
   47MOL   C19125123   0.992   5.441   2.045  0.1135 -0.1354 -1.0344
   47MOL   C19225124   0.985   5.475   1.897  0.2112  0.0098  1.0444
   47MOL   C19325125   1.084   5.582   1.850 -0.5243  0.1001 -0.1039
   47MOL   C19425126   1.090   5.590   1.697 -0.0977 -0.0826 -0.6860
   47MOL   C19525127   1.172   5.706   1.639  0.4532  1.0658  0.2495
   47MOL   O19625128   1.308   5.724   1.689 -0.0163  0.3429  0.3127
   47MOL   C19725129   1.410   5.697   1.611  0.2849 -0.5229  0.4713
   47MOL   O19825130   1.405   5.678   1.488  0.0696  0.2354  0.0543
   47MOL   C19925131   1.544   5.711   1.682 -0.3425  0.4739  0.2907
   47MOL   C20025132   1.660   5.679   1.585  0.0020 -0.9275 -0.4519
   47MOL   C20125133   1.562   5.848   1.757 -0.2779 -0.3857  0.1160
   47MOL   H20225134   0.930   5.499   2.114 -0.5169 -2.5150  0.4515
   47MOL   H20325135   0.955   5.339   2.056  0.9017 -0.2948  0.2753
   47MOL   H20425136   1.096   5.447   2.079  0.0796 -1.2916 -0.7019
   47MOL   H20525137   0.886   5.494   1.856  0.9147  1.1253 -0.2084
   47MOL   H20625138   1.017   5.381   1.851 -1.6004 -0.6053  1.0220
   47MOL   H20725139   1.185   5.547   1.872 -0.5345 -0.7246 -1.3404
   47MOL   H20825140   1.074   5.681   1.896  0.3938  1.2762 -2.3511
   47MOL   H20925141   1.117   5.496   1.649 -4.6915 -0.4159 -2.8607
   47MOL   H21025142   0.989   5.611   1.662 -0.4995 -0.4008  0.2640
   47MOL   H21125143   1.184   5.685   1.533  0.8219  0.8583  0.3337
   47MOL   H21225144   1.124   5.804   1.640 -1.1045  0.3409 -0.6133
   47MOL   H21325145   1.661   5.732   1.489 -0.6338  4.5690  2.3323
   47MOL   H21425146   1.654   5.574   1.556 -1.8104 -1.4506  1.6972
   47MOL   H21525147   1.754   5.689   1.638 -0.6646 -1.5133  0.8694
   47MOL   H21625148   1.660   5.844   1.805 -0.3958 -1.0257  0.3121
   47MOL   H21725149   1.498   5.855   1.844 -0.7044  0.3615 -0.2583
   47MOL   C21825150   1.965   5.531   1.393 -0.4555 -0.1893  0.3830
   47MOL   C21925151   1.923   5.679   1.362  0.6795 -0.1312  0.4573
   47MOL   C22025152   1.972   5.779   1.467 -0.0707  0.6710 -0.0143
   47MOL   C22125153   1.961   5.927   1.423  0.1956  0.1545  0.1892
   47MOL   C22225154   1.812   5.963   1.407 -0.2112 -0.1350 -0.3520
   47MOL   O22325155   1.746   5.966   1.537 -0.0075 -0.1149 -0.2552
   47MOL   C22425156   1.611   5.987   1.542  0.0756 -0.0288 -0.2734
   47MOL   O22525157   1.540   5.989   1.440  0.5846  0.7282  0.7076
   47MOL   C22625158   1.553   5.985   1.690  0.2330 -0.1139 -0.1192
   47MOL   C22725159   1.643   6.086   1.774 -0.0770 -0.1383 -0.0686
   47MOL   C22825160   1.403   6.032   1.695 -0.4864  0.1376 -0.5300
   47MOL   H22925161   1.902   5.463   1.335  1.3221 -1.1086 -0.5443
   47MOL   H23025162   2.063   5.500   1.357 -0.7513 -1.9444  1.0448
   47MOL   H23125163   1.971   5.505   1.499  2.5409 -0.0347  0.3039
   47MOL   H23225164   1.816   5.688   1.341  0.8779  1.8440  0.1746
   47MOL   H23325165   1.977   5.705   1.271 -1.4676 -2.8972 -1.7000
   47MOL   H23425166   2.078   5.759   1.482 -0.2060  1.2006  1.7726
   47MOL   H23525167   1.934   5.753   1.566  0.7949 -2.9020 -0.5438
   47MOL   H23625168   2.011   5.992   1.495  0.3056  0.8290 -0.4824
   47MOL   H23725169   2.012   5.958   1.331 -0.4611  2.5152  0.5932
   47MOL   H23825170   1.762   5.888   1.346 -0.1339  0.4790 -1.1792
   47MOL   H23925171   1.797   6.066   1.375  0.2532 -0.3362 -1.2289
   47MOL   H24025172   1.644   6.195   1.760  0.1770 -0.0516  0.6046
   47MOL   H24125173   1.750   6.066   1.783  0.0805  1.3228  1.5654
   47MOL   H24225174   1.630   6.072   1.881  2.6314 -1.6888  0.1113
   47MOL   H24325175   1.354   5.983   1.779  0.0300  1.0780  0.3364
   47MOL   H24425176   1.355   5.986   1.609 -5.0176  1.8633  0.9489
   47MOL   C24525177   1.557   6.743   1.204 -0.2534 -0.2425  0.6199
   47MOL   C24625178   1.581   6.612   1.134 -0.1301 -0.1963  0.1882
   47MOL   C24725179   1.608   6.495   1.233  0.8524 -0.7242  0.0324
   47MOL   C24825180   1.488   6.437   1.305 -0.0331  0.2693  0.1236
   47MOL   C24925181   1.533   6.330   1.404 -0.2059 -0.0581 -0.8387
   47MOL   O25025182   1.431   6.275   1.487 -0.1869 -0.3730 -0.4545
   47MOL   C25125183   1.435   6.282   1.625  0.5511 -0.7651  0.2715
   47MOL   O25225184   1.504   6.364   1.683  0.1209 -0.2186 -0.0129
   47MOL   C25325185   1.345   6.183   1.698 -0.0193 -0.3993 -0.4688
   47MOL   C25425186   1.342   6.227   1.852  0.3343  0.7653  0.0494
   47MOL   C25525187   1.204   6.173   1.627 -0.4001  0.3153  0.2186
   47MOL   H25625188   1.543   6.828   1.138 -1.2418 -0.3739  0.6514
   47MOL   H25725189   1.463   6.755   1.256 -0.8285 -1.3448 -0.1483
   47MOL   H25825190   1.622   6.774   1.286 -2.7196 -0.8663  2.8437
   47MOL   H25925191   1.491   6.605   1.073  0.6739  0.9328 -1.1514
   47MOL   H26025192   1.657   6.639   1.060 -1.2214  1.8227 -0.2474
   47MOL   H26125193   1.692   6.519   1.298  1.1904  0.7291 -0.9102
   47MOL   H26225194   1.651   6.417   1.171  0.6883 -2.4261  2.0350
   47MOL   H26325195   1.423   6.504   1.361 -2.4469 -2.7663  1.0746
   47MOL   H26425196   1.425   6.392   1.229 -0.3517  0.9531 -0.0111
   47MOL   H26525197   1.578   6.249   1.346 -0.2493 -0.7983  0.1494
   47MOL   H26625198   1.620   6.359   1.463 -1.7740 -1.3958  2.2250
   47MOL   H26725199   1.297   6.326   1.867 -1.3069 -0.1384  1.1761
   47MOL   H26825200   1.286   6.159   1.916 -0.7943 -0.3165 -2.0379
   47MOL   H26925201   1.442   6.251   1.887  0.2276 -0.6380  1.3043
   47MOL   H27025202   1.226   6.155   1.521 -1.4523 -0.4749  0.1268
   47MOL   H27125203   1.158   6.081   1.663 -1.0025  0.6986  0.4261
   47MOL   C27225204   0.776   5.791   1.916  0.7500  0.2440  0.4087
   47MOL   C27325205   0.808   5.931   1.963  0.1154  0.2851  0.5609
   47MOL   C27425206   0.957   5.961   2.006 -0.2280  0.3290  0.0037
   47MOL   C27525207   0.981   6.102   2.064 -0.2454  0.2106 -0.2535
   47MOL   C27625208   0.920   6.209   1.973 -0.3194  0.0394  0.2893
   47MOL   O27725209   0.975   6.198   1.843  0.2657  0.2282  0.6013
   47MOL   C27825210   1.047   6.296   1.779 -0.1235  0.0634 -0.0900
   47MOL   O27925211   1.069   6.405   1.834 -0.2620 -0.1997  0.3350
   47MOL   C28025212   1.098   6.285   1.637 -0.1514 -0.1413  0.3615
   47MOL   C28125213   1.161   6.426   1.593  0.4454 -0.4698  0.6845
   47MOL   C28225214   0.983   6.265   1.535  0.3784 -0.2204  0.3074
   47MOL   H28325215   0.846   5.760   1.838 -0.1036 -1.0891  0.1431
   47MOL   H28425216   0.777   5.722   2.001 -1.1135 -0.3221  0.0064
   47MOL   H28525217   0.676   5.782   1.873 -0.0832  1.0694  2.1224
   47MOL   H28625218   0.780   5.993   1.878 -0.2351 -0.6225  0.0113
   47MOL   H28725219   0.739   5.959   2.043 -0.0467 -2.4704  1.4380
   47MOL   H28825220   1.004   5.890   2.075  1.9300  0.1917 -1.5528
   47MOL   H28925221   1.022   5.946   1.920  1.7934 -1.7975  1.7916
   47MOL   H29025222   0.938   6.109   2.163  0.9303 -1.7344  0.4254
   47MOL   H29125223   1.086   6.134   2.062 -0.2271  0.4850  3.0600
   47MOL   H29225224   0.941   6.304   2.021  1.2608  0.0424 -0.4157
   47MOL   H29325225   0.812   6.190   1.969  0.1337 -2.4809 -0.6730
   47MOL   H29425226   1.087   6.506   1.599  0.6087 -0.3103  0.5815
   47MOL   H29525227   1.241   6.452   1.663 -0.7294  0.8539  1.5698
   47MOL   H29625228   1.208   6.421   1.495  1.8635 -0.8593  1.3769
   47MOL   H29725229   0.903   6.327   1.576  0.4626 -1.3613  2.2177
   47MOL   H29825230   1.005   6.316   1.441 -0.2618 -2.4579 -1.0928
   47MOL   C29925231   1.220   6.460   0.934 -0.0179  0.2301  0.1475
   47MOL   C30025232   1.153   6.319   0.940  0.0328 -0.7247 -0.4244
   47MOL   C30125233   1.193   6.243   1.065  0.5736  0.9737  0.7845
   47MOL   C30225234   1.154   6.093   1.076 -0.9479 -0.5636  0.3574
   47MOL   C30325235   1.170   6.038   1.220  0.4996 -0.4878  0.0564
   47MOL   O30425236   1.063   6.110   1.294  0.0340  0.3744 -0.4039
   47MOL   C30525237   1.012   6.048   1.406 -0.7761  0.2507 -0.5521
   47MOL   O30625238   1.052   5.940   1.444 -0.0765  0.4840 -0.2650
   47MOL   C30725239   0.913   6.129   1.492  0.1008  0.1587 -0.0835
   47MOL   C30825240   0.878   6.045   1.615 -0.4718  0.4169 -0.1026
   47MOL   C30925241   0.791   6.162   1.397  0.3663  0.0702 -0.5636
   47MOL   H31025242   1.326   6.457   0.907  0.4292  3.1258  1.3454
   47MOL   H31125243   1.218   6.510   1.031  0.9033 -0.5531  0.5761
   47MOL   H31225244   1.163   6.531   0.874  3.8727  3.5642  0.1452
   47MOL   H31325245   1.169   6.257   0.852  1.3028 -1.7573  0.4995
   47MOL   H31425246   1.047   6.343   0.945 -0.0266 -0.7901 -1.3088
   47MOL   H31525247   1.137   6.290   1.146 -2.5535 -1.7653  0.3028
   47MOL   H31625248   1.298   6.255   1.092  0.8115 -1.2996  1.0186
   47MOL   H31725249   1.220   6.038   1.009 -0.3172 -1.1204  1.4152
   47MOL   H31825250   1.055   6.070   1.038  0.9861 -1.6851 -4.2860
   47MOL   H31925251   1.151   5.931   1.231 -0.3494 -0.2979  0.4456
   47MOL   H32025252   1.266   6.059   1.266  2.1846 -1.0907 -3.0327
   47MOL   H32125253   0.813   6.103   1.681 -1.1490 -0.1308 -0.2804
   47MOL   H32225254   0.822   5.953   1.598  0.0683  0.0091  0.3380
   47MOL   H32325255   0.966   6.003   1.664 -0.9815 -1.9825 -1.1626
   47MOL   H32425256   0.794   6.072   1.336 -0.9293 -0.5841  0.3046
   47MOL   H32525257   0.811   6.244   1.328  0.3952 -0.1375 -0.8032
   47MOL   C32625258   0.806   5.444   1.396 -0.0647  0.1796  0.5214
   47MOL   C32725259   0.807   5.576   1.317  0.2358 -0.2007  0.0802
   47MOL   C32825260   0.764   5.702   1.399  0.2351  0.6304 -0.1964
   47MOL   C32925261   0.611   5.711   1.418 -0.2860 -0.4197 -1.1044
   47MOL   C33025262   0.567   5.837   1.501  0.1535  0.3908 -0.0355
   47MOL   O33125263   0.597   5.954   1.437 -0.4829  0.2740  0.0488
   47MOL   C33225264   0.583   6.059   1.512 -0.6339  0.3490  0.0666
   47MOL   O33325265   0.538   6.058   1.633 -0.3307 -0.4151 -0.0328
   47MOL   C33425266   0.640   6.185   1.445 -0.8965 -0.0376  0.1519
   47MOL   C33525267   0.633   6.308   1.541 -0.0422  0.2820  0.5265
   47MOL   C33625268   0.558   6.213   1.312  0.3944 -0.1171  0.0744
   47MOL   H33725269   0.836   5.363   1.329 -2.8596 -0.0515 -0.5228
   47MOL   H33825270   0.706   5.417   1.430  0.3005 -0.6532  0.9375
   47MOL   H33925271   0.862   5.450   1.489 -1.0817  0.1166  1.1446
   47MOL   H34025272   0.749   5.570   1.225  1.2249  0.6843 -0.6123
   47MOL   H34125273   0.907   5.591   1.275 -0.6274  0.6154 -1.7404
   47MOL   H34225274   0.786   5.792   1.343 -1.4370  0.6172 -0.8943
   47MOL   H34325275   0.816   5.715   1.494  1.0129 -0.4540 -0.4580
   47MOL   H34425276   0.587   5.619   1.471 -0.5398 -0.0502 -0.5705
   47MOL   H34525277   0.570   5.711   1.317 -0.8530  1.3384 -0.8906
   47MOL   H34625278   0.620   5.835   1.596 -2.0571  0.6578  1.2576
   47MOL   H34725279   0.463   5.853   1.533  0.6677  0.5976  1.6042
   47MOL   H34825280   0.533   6.309   1.584 -1.0724 -1.3940 -1.7325
   47MOL   H34925281   0.640   6.405   1.491  1.4472 -0.4832 -0.8004
   47MOL   H35025282   0.709   6.300   1.619  0.0106  0.4854  0.4954
   47MOL   H35125283   0.586   6.141   1.235  0.7417  1.4906 -1.3378
   47MOL   H35225284   0.599   6.300   1.260 -1.2987  0.4900 -0.3085
   47MOL   C35325285   0.397   6.888   1.843 -0.3017 -0.0992  0.2047
   47MOL   C35425286   0.448   6.810   1.719  0.0059 -0.0279 -0.2191
   47MOL   C35525287   0.344   6.711   1.659  0.1340 -0.7408 -0.5532
   47MOL   C35625288   0.404   6.631   1.547 -0.7238 -0.7500 -0.3387
   47MOL   C35725289   0.321   6.510   1.510  0.0662  0.4336 -0.4832
   47MOL   O35825290   0.379   6.421   1.417 -0.6319 -0.6946  0.4131
   47MOL   C35925291   0.338   6.292   1.418  0.2682  0.4502  0.1642
   47MOL   O36025292   0.264   6.244   1.501 -0.6759 -0.1899  0.3024
   47MOL   C36125293   0.396   6.214   1.296  0.0949 -0.3889  0.5990
   47MOL   C36225294   0.334   6.072   1.292  0.5425 -0.8118 -0.2910
   47MOL   C36325295   0.376   6.295   1.161  0.1698  0.5243  0.3412
   47MOL   H36425296   0.296   6.925   1.833 -0.8871 -1.8657 -0.5372
   47MOL   H36525297   0.478   6.961   1.853  0.7900 -0.7772 -3.1603
   47MOL   H36625298   0.401   6.822   1.930  0.9006 -1.2460 -0.7004
   47MOL   H36725299   0.490   6.880   1.647 -0.6485  1.5080  0.8615
   47MOL   H36825300   0.543   6.761   1.741 -0.0759 -0.5938 -1.0969
   47MOL   H36925301   0.254   6.765   1.630  0.5420  0.0675 -0.3116
   47MOL   H37025302   0.312   6.649   1.742  0.0207  0.8294  0.6025
   47MOL   H37125303   0.500   6.586   1.572  0.2360  0.0080 -2.5442
   47MOL   H37225304   0.428   6.694   1.462 -0.5852 -0.5749 -0.1681
   47MOL   H37325305   0.307   6.455   1.603 -0.9614 -0.9339 -1.4498
   47MOL   H37425306   0.220   6.537   1.481  0.0090  1.2089  0.3850
   47MOL   H37525307   0.229   6.079   1.262 -0.0659 -0.5201  1.7532
   47MOL   H37625308   0.373   6.003   1.218 -0.4941  0.5796 -2.1617
   47MOL   H37725309   0.338   6.024   1.390  2.5698  0.6460  0.3620
   47MOL   H37825310   0.420   6.394   1.174 -2.2182  1.7187 -0.4224
   47MOL   H37925311   0.436   6.249   1.082 -2.4731 -1.0930 -0.8142
   47MOL   C38025312   7.430   6.084   1.194 -0.0067 -0.6830  0.0567
   47MOL   C38125313   7.485   6.077   1.056  0.1150  0.4566  0.6303
   47MOL   C38225314   7.640   6.110   1.038  0.8186  0.7175 -0.0264
   47MOL   C38325315   7.677   6.127   0.883  0.2068  0.0975 -0.0227
   47MOL   C38425316   0.015   6.131   0.866 -0.1571  0.3148  0.1850
   47MOL   O38525317   0.071   6.246   0.934 -0.3946 -0.0012  0.4148
   47MOL   C38625318   0.187   6.224   0.999  0.3772  0.4878 -0.3491
   47MOL   O38725319   0.250   6.121   0.989  0.2396 -0.4224 -0.0436
   47MOL   C38825320   0.239   6.335   1.094 -0.3072 -0.2857  0.8919
   47MOL   C38925321   0.123   6.366   1.198  0.0247  0.7855  0.0415
   47MOL   C39025322   0.249   6.467   1.007  0.0699 -0.4539 -0.0395
   47MOL   H39125323   7.322   6.070   1.197 -0.0356 -0.2610  0.9658
   47MOL   H39225324   7.476   6.007   1.256  1.3720  0.6200  0.6628
   47MOL   H39325325   7.455   6.179   1.241 -0.8728  0.0224 -0.8870
   47MOL   H39425326   7.433   6.156   1.001 -2.0713 -0.8411  0.7887
   47MOL   H39525327   7.461   5.981   1.010  0.7750  0.7016 -0.2324
   47MOL   H39625328   7.675   6.203   1.083 -0.3016  0.7495  0.7902
   47MOL   H39725329   7.700   6.037   1.092  1.2261  1.7020  0.8735
   47MOL   H39825330   7.649   6.041   0.822  4.8458 -0.4641 -1.5384
   47MOL   H39925331   7.625   6.210   0.835  0.0054  0.5944  1.0264
   47MOL   H40025332   0.041   6.133   0.760 -1.6286 -1.3506 -0.2373
   47MOL   H40125333   0.053   6.035   0.900  0.3899 -0.1402 -1.5983
   47MOL   H40225334   0.091   6.271   1.241 -3.0735  0.5746 -2.5863
   47MOL   H40325335   0.027   6.411   1.172 -0.4686  0.9195  2.0083
   47MOL   H40425336   0.158   6.439   1.272  0.5366  1.2744 -0.6804
   47MOL   H40525337   0.242   6.554   1.073 -0.2673 -1.0618  0.7223
   47MOL   H40625338   0.150   6.476   0.961 -0.2740  1.2586  0.9892
   47MOL   C40725339   0.760   6.778   1.470 -0.0150  0.4770 -0.4747
   47MOL   C40825340   0.797   6.630   1.467  0.5671  0.1843  0.2620
   47MOL   C40925341   0.795   6.581   1.315 -0.4963  0.5692  1.4335
   47MOL   C41025342   0.659   6.583   1.235 -0.3168 -0.6093  0.0418
   47MOL   C41125343   0.668   6.562   1.084  0.5712 -0.6440 -0.1481
   47MOL   O41225344   0.543   6.586   1.026  0.4827 -0.5391  0.4921
   47MOL   C41325345   0.504   6.489   0.937  0.2345 -0.1888 -0.6158
   47MOL   O41425346   0.574   6.398   0.893 -0.1116 -0.6633 -0.1730
   47MOL   C41525347   0.354   6.503   0.894  0.2331 -0.2296  0.7327
   47MOL   C41625348   0.322   6.417   0.766  0.1222 -0.3882 -0.2667
   47MOL   C41725349   0.324   6.649   0.854  0.7968 -0.0606  0.5239
   47MOL   H41825350   0.653   6.775   1.454  0.0023  0.3840 -0.5706
   47MOL   H41925351   0.786   6.820   1.568 -0.6583 -0.3767  0.0654
   47MOL   H42025352   0.810   6.843   1.398  1.3593  0.6376  0.6078
   47MOL   H42125353   0.735   6.585   1.545  1.6883  0.6810  1.4577
   47MOL   H42225354   0.901   6.627   1.498 -0.0818 -2.7322  2.3298
   47MOL   H42325355   0.868   6.635   1.255 -1.7435  1.6757  0.8959
   47MOL   H42425356   0.811   6.474   1.307 -1.4209  0.4162  1.5533
   47MOL   H42525357   0.608   6.678   1.253  0.4200 -0.3699  0.8992
   47MOL   H42625358   0.591   6.510   1.279  0.6753 -2.2440 -1.1030
   47MOL   H42725359   0.730   6.638   1.036 -0.2769  0.9776  1.2394
   47MOL   H42825360   0.697   6.458   1.069 -1.8851 -1.7291  2.1530
   47MOL   H42925361   0.314   6.309   0.781  3.5938 -0.5777  0.7820
   47MOL   H43025362   0.413   6.430   0.707 -1.3214  4.3803 -1.6852
   47MOL   H43125363   0.240   6.451   0.703  0.0626 -0.8015 -0.4124
   47MOL   H43225364   0.341   6.698   0.950  1.0064 -0.7928  0.8645
   47MOL   H43325365   0.216   6.659   0.845  0.7361 -0.0378  1.1854
   47MOL   C43425366   0.489   6.629   7.808  0.7671 -0.4270  0.1380
   47MOL   C43525367   0.420   6.561   0.116 -0.2014  0.6327  0.4964
   47MOL   C43625368   0.511   6.538   0.230 -0.3791  0.3866  0.1229
   47MOL   C43725369   0.438   6.446   0.335  0.3079 -0.1679 -0.8124
   47MOL   C43825370   0.339   6.529   0.411 -0.2727 -0.8781 -0.3375
   47MOL   O43925371   0.399   6.581   0.532  0.3014  0.0950  0.0511
   47MOL   C44025372   0.333   6.685   0.597 -0.7049 -0.0731  0.2127
   47MOL   O44125373   0.226   6.723   0.555 -0.5257  0.3412 -0.1654
   47MOL   C44225374   0.391   6.732   0.738  0.5257  0.1394 -0.1934
   47MOL   C44325375   0.542   6.709   0.727  0.3194  0.2411  0.0215
   47MOL   C44425376   0.344   6.883   0.752 -0.1388 -0.3518  0.0292
   47MOL   H44525377   0.524   6.731   0.007  0.4250 -0.1240 -1.3328
   47MOL   H44625378   0.563   6.561   7.765  0.3932 -0.4644 -0.4526
   47MOL   H44725379   0.416   6.639   7.728  0.0772 -2.2683  0.5077
   47MOL   H44825380   0.350   6.640   0.142  0.6865  1.1917  1.1902
   47MOL   H44925381   0.358   6.476   0.086 -0.9068  1.7402 -1.3085
   47MOL   H45025382   0.597   6.477   0.198 -0.9114 -0.5001  0.3676
   47MOL   H45125383   0.548   6.634   0.265 -0.8376  0.1406  1.2896
   47MOL   H45225384   0.526   6.423   0.396  0.2544 -1.9679 -1.3672
   47MOL   H45325385   0.396   6.360   0.282 -0.3789 -0.5938  0.4209
   47MOL   H45425386   0.252   6.467   0.431 -0.9152  0.2858  0.5215
   47MOL   H45525387   0.296   6.606   0.348  1.3366 -0.3997 -0.8875
   47MOL   H45625388   0.600   6.745   0.811  0.2679 -2.7673  1.4121
   47MOL   H45725389   0.576   6.606   0.715 -0.1813  0.0545  0.1981
   47MOL   H45825390   0.585   6.756   0.639  2.8469  1.0557  1.6458
   47MOL   H45925391   0.254   6.873   0.812 -0.5429  1.6029 -0.2068
   47MOL   H46025392   0.307   6.928   0.660  1.0456  1.1494  0.2655
   47MOL   C46125393   7.788   6.714   1.296  0.1328  0.3386 -0.4348
   47MOL   C46225394   0.085   6.806   1.334  0.1477  0.2009  0.0672
   47MOL   C46325395   0.191   6.816   1.221  0.2498  0.8075 -0.1991
   47MOL   C46425396   0.304   6.918   1.268 -0.1230 -0.1207  0.1685
   47MOL   C46525397   0.427   6.906   1.184 -0.6410  0.3147  0.2707
   47MOL   O46625398   0.396   6.952   1.058 -0.2625  0.1257  0.5014
   47MOL   C46725399   0.481   6.945   0.963 -0.0411 -0.1825 -0.5538
   47MOL   O46825400   0.593   6.901   0.988  0.4272  0.5316 -0.9509
   47MOL   C46925401   0.436   6.995   0.825  0.4105  0.4338  0.2773
   47MOL   C47025402   0.336   7.113   0.844 -0.6457  0.5100  0.5665
   47MOL   C47125403   0.554   7.044   0.724 -0.9731 -0.4406 -0.3236
   47MOL   H47225404   7.808   6.628   1.233 -0.9043 -0.3418  0.1486
   47MOL   H47325405   7.724   6.783   1.241  1.4745  2.2965  0.3972
   47MOL   H47425406   7.728   6.682   1.381  1.6431 -0.4930  0.3362
   47MOL   H47525407   0.145   6.780   1.422 -0.7073  0.4975  0.7430
   47MOL   H47625408   0.043   6.905   1.349  2.0208  0.7985  1.5751
   47MOL   H47725409   0.149   6.844   1.125  1.9336 -1.7923 -1.7441
   47MOL   H47825410   0.224   6.712   1.222  2.3885  1.3896 -2.9391
   47MOL   H47925411   0.320   6.912   1.376 -1.4092 -1.4045  0.3085
   47MOL   H48025412   0.265   7.018   1.252  0.0002 -0.3137 -1.3844
   47MOL   H48125413   0.505   6.963   1.235 -0.0468  0.1308 -0.4144
   47MOL   H48225414   0.459   6.802   1.188 -1.3720  0.0220 -1.2619
   47MOL   H48325415   0.381   7.197   0.898  2.1074  0.8575 -2.0899
   47MOL   H48425416   0.239   7.087   0.886 -0.8534 -1.4838 -1.0901
   47MOL   H48525417   0.318   7.166   0.750  0.8604  1.3150  0.7138
   47MOL   H48625418   0.498   7.059   0.631 -0.9036 -1.0270 -0.4570
   47MOL   H48725419   0.620   6.960   0.703 -2.5098 -1.5857 -0.6364
   47MOL   C48825420   0.099   7.119   0.476 -0.1058 -0.1239 -0.0785
   47MOL   C48925421   0.151   7.257   0.508 -0.4021 -0.1008 -0.7026
   47MOL   C49025422   0.301   7.280   0.485 -0.2323  0.3995 -0.1511
   47MOL   C49125423   0.356   7.421   0.530  0.3215  0.0320 -0.2801
   47MOL   C49225424   0.507   7.433   0.524 -0.7028  0.8124 -1.0924
   47MOL   O49325425   0.567   7.319   0.580  0.6968  0.3119  0.2376
   47MOL   C49425426   0.571   7.292   0.709 -0.2956  0.2829 -0.4107
   47MOL   O49525427   0.523   7.363   0.790  0.0250  1.0115 -0.0577
   47MOL   C49625428   0.652   7.162   0.750 -0.3902  0.7316 -0.5267
   47MOL   C49725429   0.767   7.154   0.648  0.4899 -0.1561 -0.6248
   47MOL   C49825430   0.717   7.173   0.897 -0.1917  0.0717  0.1220
   47MOL   H49925431   7.806   7.132   0.495  0.0988 -1.9497  2.6772
   47MOL   H50025432   0.116   7.103   0.369 -0.7171 -3.3765  0.2555
   47MOL   H50125433   0.143   7.046   0.544  0.6909 -0.0225 -0.4796
   47MOL   H50225434   0.129   7.265   0.615 -0.4971 -3.8578 -0.4072
   47MOL   H50325435   0.093   7.324   0.444  3.3763  2.8989 -1.1704
   47MOL   H50425436   0.350   7.200   0.541 -1.2053  1.9946  3.1045
   47MOL   H50525437   0.333   7.262   0.382  0.9280  3.2431 -0.3049
   47MOL   H50625438   0.328   7.429   0.635  1.0615 -1.6563  0.0627
   47MOL   H50725439   0.311   7.498   0.466  1.0963  0.3086 -0.4963
   47MOL   H50825440   0.553   7.443   0.426 -0.8695  2.2604 -1.0300
   47MOL   H50925441   0.527   7.525   0.579 -0.8108 -1.1647  2.4567
   47MOL   H51025442   0.814   7.251   0.638 -2.4866  1.4749  0.4649
   47MOL   H51125443   0.731   7.120   0.551  1.4074 -2.2175 -0.2671
   47MOL   H51225444   0.844   7.083   0.679 -1.9822 -1.6585  2.4122
   47MOL   H51325445   0.738   7.069   0.920 -1.2906 -0.2041 -0.1069
   47MOL   H51425446   0.630   7.200   0.957 -1.0889 -1.3509 -0.5199
   47MOL   C51525447   1.511   6.733   0.775 -0.4806  0.1448  0.0456
   47MOL   C51625448   1.376   6.768   0.812 -0.1737 -0.1904  0.0781
   47MOL   C51725449   1.352   6.920   0.834  0.0773 -0.0682  0.7896
   47MOL   C51825450   1.203   6.962   0.852 -0.9624 -0.0936 -0.0059
   47MOL   C51925451   1.173   7.107   0.872 -0.2321  0.0070  0.7553
   47MOL   O52025452   1.035   7.127   0.891  0.3927  0.3021 -0.0064
   47MOL   C52125453   0.982   7.246   0.885  0.1826  0.6229  0.2497
   47MOL   O52225454   1.042   7.339   0.842  0.2713 -0.6713  0.3989
   47MOL   C52325455   0.837   7.265   0.947  0.5005 -0.6469 -0.3986
   47MOL   C52425456   0.844   7.238   1.098  0.2032  0.1248 -0.4001
   47MOL   C52525457   0.798   7.411   0.927 -0.7711 -0.8414 -0.6436
   47MOL   H52625458   1.507   6.625   0.765  0.2890  0.2470 -1.5701
   47MOL   H52725459   1.532   6.776   0.677 -1.6038 -0.8296 -0.6304
   47MOL   H52825460   1.589   6.765   0.845 -0.1334  0.5625 -0.5254
   47MOL   H52925461   1.306   6.732   0.736 -3.4127 -0.8914  3.2311
   47MOL   H53025462   1.355   6.726   0.911 -2.0000 -1.1837 -0.7099
   47MOL   H53125463   1.411   6.961   0.916  4.8248 -1.0445 -1.9291
   47MOL   H53225464   1.383   6.969   0.741  1.9621 -1.0023  0.8896
   47MOL   H53325465   1.166   6.910   0.941  1.6235  1.1872  1.8741
   47MOL   H53425466   1.144   6.935   0.764 -2.9743  3.0461  0.2877
   47MOL   H53525467   1.227   7.155   0.954 -2.6738  0.5252  2.0932
   47MOL   H53625468   1.207   7.159   0.782 -0.6884 -0.5759  0.2453
   47MOL   H53725469   0.942   7.270   1.136  0.5081 -0.4263 -0.7113
   47MOL   H53825470   0.832   7.131   1.117  1.9884 -0.3927 -1.9846
   47MOL   H53925471   0.766   7.286   1.156 -1.5422 -1.1504 -1.6584
   47MOL   H54025472   0.810   7.453   0.827  2.6633 -2.5029 -1.0169
   47MOL   H54125473   0.873   7.476   0.972 -0.5098 -1.4250 -0.2278
   47MOL   H54225474   0.698   7.442   0.958 -0.6003  0.3762 -1.3009
   48MOL     C125475   1.006   0.723   5.187  0.0088  0.0427 -0.3239
   48MOL     C225476   1.006   0.577   5.145 -0.5306 -0.3035 -0.2980
   48MOL     C325477   1.070   0.488   5.252 -0.1879 -0.2264  0.0514
   48MOL     C425478   1.061   0.340   5.236 -0.2993 -0.2307 -0.1406
   48MOL     C525479   1.122   0.255   5.347  0.6246  0.5489 -0.0598
   48MOL     O625480   1.263   0.260   5.328 -0.0291  0.3000 -0.3420
   48MOL     C725481   1.318   0.172   5.254 -0.5851 -0.2080 -0.4023
   48MOL     O825482   1.264   0.070   5.207 -0.6262  0.1846 -0.6683
   48MOL     C925483   1.456   0.207   5.218 -0.4894 -0.2149  0.3410
   48MOL    C1025484   1.564   0.173   5.329 -0.2491 -0.5479 -0.2989
   48MOL    C1125485   1.476   0.365   5.177 -0.0143  0.3632 -0.2329
   48MOL    H1225486   1.105   0.750   5.226  0.0943  0.5924 -0.9244
   48MOL    H1325487   0.921   0.749   5.250  0.3547 -2.0628  1.0835
   48MOL    H1425488   0.996   0.785   5.098 -0.0695  2.9445  1.6492
   48MOL    H1525489   0.908   0.535   5.124  0.5217 -3.2601  0.4153
   48MOL    H1625490   1.068   0.561   5.057  0.2074 -2.3559  0.5379
   48MOL    H1725491   1.176   0.515   5.248 -0.3335  0.0118 -2.9204
   48MOL    H1825492   1.039   0.513   5.354  0.1821 -2.1138  0.6520
   48MOL    H1925493   1.115   0.320   5.143 -1.5109  2.0043 -1.3815
   48MOL    H2025494   0.959   0.308   5.216 -1.2278  2.4900 -0.0155
   48MOL    H2125495   1.108   0.295   5.447 -0.1229 -0.1336  0.1121
   48MOL    H2225496   1.090   0.151   5.349 -1.2086  1.0222 -2.3197
   48MOL    H2325497   1.664   0.142   5.298  0.7012 -0.2982  2.4092
   48MOL    H2425498   1.531   0.083   5.382 -0.2059 -1.0717 -1.1459
   48MOL    H2525499   1.573   0.255   5.399  2.0672  0.0489 -1.2539
   48MOL    H2625500   1.557   0.401   5.240 -1.5720  2.5116  0.6240
   48MOL    H2725501   1.383   0.422   5.186  1.4158  2.4949  1.2765
   48MOL    H2825502   1.480   0.139   5.137 -0.6190 -0.6218  0.6404
   48MOL    C2925503   0.984   0.349   4.639  1.2986  0.5727 -0.1505
   48MOL    C3025504   1.092   0.274   4.566 -0.2905  0.1828  0.3225
   48MOL    C3125505   1.215   0.357   4.534 -0.1287 -0.0201  0.3605
   48MOL    C3225506   1.299   0.412   4.649 -0.4220  0.2359  0.0434
   48MOL    C3325507   1.380   0.289   4.703 -0.1898 -0.1520 -0.3224
   48MOL    O3425508   1.467   0.329   4.809  0.3066 -0.1881 -0.0952
   48MOL    C3525509   1.416   0.340   4.937  0.5150  0.4708 -0.0281
   48MOL    O3625510   1.303   0.314   4.972 -0.2667  0.0358 -0.5395
   48MOL    C3725511   1.529   0.380   5.033 -0.0014  0.3499  0.5284
   48MOL    C3825512   1.656   0.294   5.018 -0.4521 -0.3046  0.3058
   48MOL    C3925513   1.566   0.534   5.001  0.1957 -0.8723  0.0373
   48MOL    H4025514   0.903   0.277   4.630  0.7808  1.3784 -2.2239
   48MOL    H4125515   1.029   0.375   4.735  0.7829  2.4671 -0.4035
   48MOL    H4225516   0.950   0.437   4.585 -2.6977 -0.6345  0.2297
   48MOL    H4325517   1.051   0.243   4.470 -2.2333  1.9743  0.5375
   48MOL    H4425518   1.116   0.182   4.621 -1.6096  0.3495  1.2069
   48MOL    H4525519   1.188   0.445   4.475  0.1324 -0.6989 -0.7837
   48MOL    H4625520   1.271   0.301   4.460 -1.1391  0.9953 -1.2288
   48MOL    H4725521   1.368   0.486   4.609  1.5521 -1.3511  0.4364
   48MOL    H4825522   1.243   0.467   4.725  1.5359  0.4251  1.3894
   48MOL    H4925523   1.441   0.237   4.629  0.9837 -0.8375  1.1013
   48MOL    H5025524   1.314   0.215   4.747  0.1998 -0.7128 -0.6619
   48MOL    H5125525   1.707   0.296   5.114  0.0453  2.1412  0.0172
   48MOL    H5225526   1.732   0.339   4.954  1.3587  0.3233  2.8518
   48MOL    H5325527   1.639   0.197   4.971 -2.2205  0.6025 -1.0087
   48MOL    H5425528   1.587   0.545   4.895 -1.3698 -2.6007 -0.4814
   48MOL    H5525529   1.667   0.549   5.040 -0.5119  1.1173  1.1715
   48MOL    C5625530   2.143   0.684   5.340  0.1754 -0.8612  0.9173
   48MOL    C5725531   2.018   0.617   5.406  0.2903 -0.4344 -0.5543
   48MOL    C5825532   1.891   0.672   5.352 -0.0142  0.3062  0.7652
   48MOL    C5925533   1.766   0.608   5.427  0.2893 -0.0546  0.0699
   48MOL    C6025534   1.631   0.663   5.394  0.6878  0.1185 -0.1334
   48MOL    O6125535   1.614   0.664   5.256 -0.2483 -0.6471  0.2432
   48MOL    C6225536   1.493   0.678   5.203 -0.2238 -0.4669  0.0050
   48MOL    O6325537   1.388   0.690   5.269  0.0736  0.3098 -0.2250
   48MOL    C6425538   1.491   0.664   5.044 -0.5956  0.0916 -0.5360
   48MOL    C6525539   1.348   0.658   4.991  0.6749 -0.0715 -0.4440
   48MOL    C6625540   1.577   0.780   4.981 -0.0158 -0.2692 -0.4966
   48MOL    H6725541   2.143   0.791   5.359  2.1504 -1.2283  3.2152
   48MOL    H6825542   2.162   0.664   5.234 -0.1362  1.0931  0.4734
   48MOL    H6925543   2.231   0.651   5.395  0.1735 -0.8768  0.9106
   48MOL    H7025544   2.025   0.510   5.384 -0.4103 -1.0419  1.9477
   48MOL    H7125545   2.026   0.634   5.514  1.4578  1.6088 -0.9386
   48MOL    H7225546   1.896   0.778   5.375 -2.5905  0.9223 -1.3494
   48MOL    H7325547   1.887   0.660   5.244 -2.8339 -1.5986  1.0095
   48MOL    H7425548   1.773   0.620   5.535  2.6138  0.5006 -0.1198
   48MOL    H7525549   1.771   0.501   5.406  1.2669 -0.2292  1.1328
   48MOL    H7625550   1.558   0.597   5.440  1.1351  0.1419  0.6103
   48MOL    H7725551   1.619   0.764   5.433 -0.4278 -0.0777  0.0435
   48MOL    H7825552   1.350   0.625   4.887 -2.6441 -1.1912 -0.2031
   48MOL    H7925553   1.295   0.753   4.997 -0.0236 -0.5456  1.3078
   48MOL    H8025554   1.298   0.582   5.050  1.8520 -0.3497  0.2166
   48MOL    H8125555   1.572   0.764   4.873  1.7322  3.3387 -1.1780
   48MOL    H8225556   1.683   0.767   5.001  0.4456  1.3787 -1.7685
   48MOL    C8325557   0.846   1.290   5.082 -0.4570 -0.4131 -0.7638
   48MOL    C8425558   0.987   1.288   5.134 -0.0018 -0.1217 -0.3369
   48MOL    C8525559   1.040   1.142   5.149 -0.2867 -0.4917  0.1213
   48MOL    C8625560   1.193   1.139   5.142  0.3629 -0.3023 -0.4718
   48MOL    C8725561   1.247   0.998   5.147  0.7380  0.1618  0.8766
   48MOL    O8825562   1.389   0.999   5.130  0.5672  0.3773 -0.2096
   48MOL    C8925563   1.442   0.986   5.011  0.8807 -0.8297 -0.0889
   48MOL    O9025564   1.380   1.010   4.908 -0.1700  0.1817  0.4741
   48MOL    C9125565   1.588   0.935   5.009  0.1246  0.5262 -0.1509
   48MOL    C9225566   1.664   0.971   5.140 -0.6643 -0.0237 -0.5393
   48MOL    C9325567   1.664   1.012   4.896 -0.3586 -0.2347  0.1676
   48MOL    H9425568   0.785   1.232   5.152 -2.4936  1.6378 -0.7681
   48MOL    H9525569   0.815   1.394   5.072 -0.6052 -0.1857  1.7629
   48MOL    H9625570   0.837   1.249   4.982 -0.4944 -0.3884 -0.7705
   48MOL    H9725571   0.986   1.342   5.229 -2.5316 -1.1918  0.2852
   48MOL    H9825572   1.054   1.352   5.076 -2.9083  2.8014 -0.6109
   48MOL    H9925573   1.009   1.077   5.067 -0.9139 -0.5124  0.3668
   48MOL   H10025574   0.995   1.105   5.241 -3.1551  1.9226 -0.2208
   48MOL   H10125575   1.234   1.194   5.227  1.3362 -1.0446 -0.4556
   48MOL   H10225576   1.243   1.186   5.058  1.2391  0.6779  0.5737
   48MOL   H10325577   1.205   0.940   5.064 -0.2025  1.4897  0.4027
   48MOL   H10425578   1.221   0.950   5.241  0.5091 -0.1911  0.6356
   48MOL   H10525579   1.600   0.963   5.228 -0.1337  1.8723  0.0596
   48MOL   H10625580   1.712   1.069   5.144 -0.8569  0.0137  2.5829
   48MOL   H10725581   1.744   0.899   5.158 -1.2026 -0.7049 -0.8686
   48MOL   H10825582   1.594   1.017   4.813 -0.8072  0.4947  0.5913
   48MOL   H10925583   1.676   1.110   4.942 -1.7783 -0.0004  0.0460
   48MOL   C11025584   2.279   1.517   4.901  0.8454  0.2423  0.0512
   48MOL   C11125585   2.213   1.439   5.014  0.0625  0.3092  0.6208
   48MOL   C11225586   2.184   1.293   4.986 -0.5382 -0.4383  0.5984
   48MOL   C11325587   2.119   1.208   5.100  0.2748  0.2366 -0.2529
   48MOL   C11425588   2.094   1.069   5.068  0.7161 -0.7252 -0.1784
   48MOL   O11525589   1.977   1.065   4.976  0.2733  0.1383 -0.5341
   48MOL   C11625590   1.913   0.948   4.952  0.3933  0.0385 -0.0345
   48MOL   O11725591   1.942   0.837   4.998  0.6582 -0.1013  0.1720
   48MOL   C11825592   1.804   0.963   4.842 -0.5643 -0.9448 -0.3498
   48MOL   C11925593   1.842   1.082   4.749 -0.6811 -0.6533 -0.0060
   48MOL   C12025594   1.795   0.839   4.752  0.3786  0.1360 -0.1742
   48MOL   H12125595   2.198   1.553   4.838 -0.2044 -2.5749 -0.2721
   48MOL   H12225596   2.340   1.599   4.938 -0.2102  0.3483  1.5773
   48MOL   H12325597   2.343   1.450   4.843  0.1566 -0.5500  0.2033
   48MOL   H12425598   2.270   1.446   5.107  1.5108  2.0455 -0.3735
   48MOL   H12525599   2.118   1.493   5.021  0.0999  0.2702  1.4657
   48MOL   H12625600   2.125   1.286   4.895 -0.2520 -0.0009  0.3793
   48MOL   H12725601   2.277   1.248   4.953 -0.5685  0.3415 -0.5549
   48MOL   H12825602   2.029   1.263   5.128 -0.8685  0.3857 -3.8968
   48MOL   H12925603   2.182   1.206   5.189  0.4222 -2.6129 -0.3872
   48MOL   H13025604   2.179   1.044   5.005  1.3226 -0.2536  0.4420
   48MOL   H13125605   2.083   1.015   5.162  0.9134  1.1951  0.9675
   48MOL   H13225606   1.773   1.084   4.665 -0.5730  0.3987 -0.0723
   48MOL   H13325607   1.814   1.176   4.796 -0.0795 -0.5310  0.1137
   48MOL   H13425608   1.943   1.097   4.712 -1.5048  2.1427 -1.2180
   48MOL   H13525609   1.791   0.756   4.823  0.0910 -0.4442 -0.8716
   48MOL   H13625610   1.696   0.837   4.708  0.0531 -2.1872  0.6109
   48MOL   C13725611   1.418   1.275   4.593  0.9734 -0.1395  0.8383
   48MOL   C13825612   1.545   1.265   4.506 -0.3998  0.2561 -0.0063
   48MOL   C13925613   1.568   1.127   4.456 -0.0540  0.8192 -0.0020
   48MOL   C14025614   1.694   1.107   4.375 -0.4510  0.2926  0.7698
   48MOL   C14125615   1.732   0.957   4.346 -0.2062 -0.2008  0.0336
   48MOL   O14225616   1.765   0.885   4.468 -0.1973 -0.0589  0.0419
   48MOL   C14325617   1.884   0.881   4.511  0.8145 -0.6106 -0.0157
   48MOL   O14425618   1.982   0.927   4.441  0.5836 -0.6536  0.3257
   48MOL   C14525619   1.906   0.801   4.649  0.2718  0.0068 -0.3359
   48MOL   C14625620   2.049   0.825   4.707  0.2875 -0.0985 -0.3762
   48MOL   C14725621   1.898   0.641   4.625  0.1060  0.0386 -0.0632
   48MOL   H14825622   1.433   1.217   4.684 -0.2607 -0.8658  0.5782
   48MOL   H14925623   1.335   1.233   4.536  2.5283  1.5295 -2.8134
   48MOL   H15025624   1.383   1.373   4.626 -0.1456 -0.2002 -0.1596
   48MOL   H15125625   1.632   1.311   4.553 -1.1600  1.8769 -0.1381
   48MOL   H15225626   1.533   1.322   4.414  0.9932  0.1120 -0.2800
   48MOL   H15325627   1.570   1.062   4.543 -2.9774  1.3055  0.4785
   48MOL   H15425628   1.480   1.085   4.406 -0.3521 -0.2297  1.3754
   48MOL   H15525629   1.677   1.159   4.281 -1.9075 -2.8935 -0.7770
   48MOL   H15625630   1.778   1.153   4.427 -0.2570 -0.7549  1.3984
   48MOL   H15725631   1.813   0.952   4.273 -1.0481  0.1074 -0.9257
   48MOL   H15825632   1.646   0.905   4.304  0.7103 -1.6852 -0.0486
   48MOL   H15925633   2.055   0.771   4.801  1.7306  1.4164  0.4110
   48MOL   H16025634   2.072   0.931   4.716 -1.5828  0.2810  0.1759
   48MOL   H16125635   2.128   0.782   4.646  0.7551  0.0379  0.1350
   48MOL   H16225636   1.990   0.618   4.572 -0.5494 -1.0515 -0.7764
   48MOL   H16325637   1.900   0.601   4.726  0.2159  0.9114  0.2801
   48MOL   C16425638   1.391   0.210   3.984 -0.5710 -0.3283 -0.1836
   48MOL   C16525639   1.515   0.130   3.999  0.8813  1.0420 -0.0029
   48MOL   C16625640   1.639   0.206   4.062  0.2447  0.0403  0.3962
   48MOL   C16725641   1.621   0.289   4.185  0.1131  0.2186 -0.8794
   48MOL   C16825642   1.735   0.383   4.227 -0.5470  0.2675  0.8126
   48MOL   O16925643   1.698   0.458   4.339 -0.1306  0.9324  0.1671
   48MOL   C17025644   1.791   0.541   4.403  0.6040 -0.1049  0.5517
   48MOL   O17125645   1.876   0.599   4.344 -0.1026 -0.3914 -0.4080
   48MOL   C17225646   1.789   0.546   4.562  0.4768 -0.1302 -0.3000
   48MOL   C17325647   1.651   0.598   4.600 -0.1427 -0.0453 -0.4046
   48MOL   C17425648   1.803   0.398   4.617 -0.0960 -0.1891  0.7279
   48MOL   H17525649   1.356   0.250   4.079  0.8262  1.7792 -0.5328
   48MOL   H17625650   1.320   0.142   3.936 -0.8171 -2.5814  3.1724
   48MOL   H17725651   1.414   0.292   3.916  0.9937 -0.1102  0.5829
   48MOL   H17825652   1.554   0.100   3.902  3.0238  1.6336  0.6303
   48MOL   H17925653   1.497   0.040   4.058 -2.9045  1.5850 -0.2415
   48MOL   H18025654   1.709   0.123   4.077  1.8340  1.2793  0.0218
   48MOL   H18125655   1.672   0.277   3.986  0.2466  0.1366  0.4886
   48MOL   H18225656   1.597   0.221   4.267  1.3638  1.5617  0.6384
   48MOL   H18325657   1.529   0.346   4.175 -0.4038 -0.2008  1.1736
   48MOL   H18425658   1.750   0.445   4.139  0.7121 -0.1091  0.7533
   48MOL   H18525659   1.829   0.331   4.244  0.4889  2.3535  1.7565
   48MOL   H18625660   1.562   0.537   4.582  0.0364 -0.3881 -0.1407
   48MOL   H18725661   1.639   0.694   4.552  1.1939  0.7398  0.8012
   48MOL   H18825662   1.632   0.607   4.707 -0.8925 -2.0298 -0.3314
   48MOL   H18925663   1.750   0.386   4.712 -2.5009 -0.0732 -0.5386
   48MOL   H19025664   1.735   0.332   4.563  0.6199  0.9360 -1.6169
   48MOL   C19125665   1.992   0.060   5.279 -0.4042 -0.4089 -0.5173
   48MOL   C19225666   2.079   0.168   5.222 -0.5419 -0.0943 -0.0335
   48MOL   C19325667   1.998   0.269   5.149  0.0707 -0.1078  0.3430
   48MOL   C19425668   2.080   0.382   5.088 -0.1145  0.8245 -0.1107
   48MOL   C19525669   1.996   0.469   4.991  0.8445 -0.5532  0.7474
   48MOL   O19625670   1.955   0.398   4.876 -0.2543  0.3276  0.1332
   48MOL   C19725671   2.029   0.377   4.761 -0.0845 -0.1980  0.0929
   48MOL   O19825672   2.149   0.379   4.757 -0.1516  0.4615  0.2672
   48MOL   C19925673   1.946   0.332   4.638 -0.5601 -0.2572 -0.3427
   48MOL   C20025674   2.044   0.355   4.510 -0.0055 -0.3391 -0.2110
   48MOL   C20125675   1.924   0.183   4.662  0.3182 -0.3438 -0.4905
   48MOL   H20225676   1.904   0.118   5.306  0.5153  0.8177 -0.0982
   48MOL   H20325677   1.973   7.787   5.216  1.0608 -0.8725 -0.3231
   48MOL   H20425678   2.041   0.004   5.358 -0.4321  0.7721  0.3419
   48MOL   H20525679   2.152   0.116   5.160 -0.7513 -0.8286  0.3260
   48MOL   H20625680   2.129   0.207   5.311  0.9051  0.6302 -1.1528
   48MOL   H20725681   1.920   0.318   5.207  0.6880 -1.4152  2.3032
   48MOL   H20825682   1.952   0.205   5.073  0.6709 -2.5930  2.0184
   48MOL   H20925683   2.118   0.446   5.167  0.1436 -1.3584  1.5750
   48MOL   H21025684   2.165   0.336   5.038  0.6731  1.5507  0.5485
   48MOL   H21125685   1.912   0.491   5.057  0.6462 -1.2935  0.7386
   48MOL   H21225686   2.041   0.562   4.957 -0.6581 -0.1584 -0.1931
   48MOL   H21325687   1.998   0.322   4.417  3.4451 -1.1939 -1.6915
   48MOL   H21425688   2.130   0.289   4.524  0.1287  0.2300  1.7130
   48MOL   H21525689   2.081   0.455   4.490 -1.2998  0.3946  1.0078
   48MOL   H21625690   1.834   0.180   4.723  0.8408  0.3614  0.3403
   48MOL   H21725691   1.996   0.153   4.739  0.9134 -0.6998 -1.1846
   48MOL   C21825692   2.578   7.775   4.151  0.5318  0.0467 -0.3213
   48MOL   C21925693   2.442   7.812   4.218 -0.4984  0.5624  0.8886
   48MOL   C22025694   2.471   0.023   4.366  0.0488 -0.5171 -0.3011
   48MOL   C22125695   2.348   0.072   4.452  0.1752  0.6999 -0.5831
   48MOL   C22225696   2.239   7.778   4.458  0.1803  0.3555  0.1627
   48MOL   O22325697   2.133   0.023   4.530  0.2663  0.3718 -0.0290
   48MOL   C22425698   2.025   0.057   4.461 -1.1935  0.3490  0.2871
   48MOL   O22525699   2.021   0.061   4.338  0.1730 -0.0521 -0.1824
   48MOL   C22625700   1.898   0.073   4.553 -0.1377  0.1104 -0.2891
   48MOL   C22725701   1.783   0.109   4.459 -0.0651  0.2870  0.1497
   48MOL   C22825702   1.882   7.748   4.619 -0.3804  0.2094 -0.2342
   48MOL   H22925703   2.628   7.695   4.206 -0.6108  0.3779  1.2143
   48MOL   H23025704   2.560   7.740   4.049  0.6637 -1.6802  0.2283
   48MOL   H23125705   2.646   0.046   4.153  2.5873 -1.3547 -4.3570
   48MOL   H23225706   2.367   7.733   4.212 -2.1947  2.1389  0.9569
   48MOL   H23325707   2.396   0.084   4.170  0.3154  1.3033  1.4241
   48MOL   H23425708   2.546   0.102   4.376 -0.1672 -0.1811 -1.2308
   48MOL   H23525709   2.518   7.750   4.412  0.9923 -0.3403 -0.9102
   48MOL   H23625710   2.376   0.109   4.550 -1.2685  2.0905 -0.6862
   48MOL   H23725711   2.291   0.155   4.411 -0.6157  0.2084 -0.4858
   48MOL   H23825712   2.282   7.689   4.503 -1.2556 -0.4225  0.0274
   48MOL   H23925713   2.207   7.739   4.361  2.0733 -0.2590 -0.2367
   48MOL   H24025714   1.805   0.195   4.396  0.1362  0.2959  0.2321
   48MOL   H24125715   1.688   0.122   4.511  1.1272 -0.2842  2.5376
   48MOL   H24225716   1.772   0.022   4.394  1.3595  0.8729 -0.8939
   48MOL   H24325717   1.979   7.723   4.661 -0.1479 -0.8118 -1.3370
   48MOL   H24425718   1.878   7.681   4.533 -0.7083  1.3978 -1.1628
   48MOL   C24525719   0.973   7.585   4.422 -0.4376  0.1081  0.4101
   48MOL   C24625720   1.115   7.558   4.469 -0.0070  0.1636 -0.3996
   48MOL   C24725721   1.202   7.680   4.491 -0.0026 -0.1875 -0.5067
   48MOL   C24825722   1.341   7.653   4.540 -0.6252  0.2176 -0.7171
   48MOL   C24925723   1.446   7.763   4.532  0.0366  0.8382 -0.2924
   48MOL   O25025724   1.573   7.732   4.585 -0.4078  0.1317  0.3433
   48MOL   C25125725   1.625   7.771   4.702  0.2907  0.6496  0.2898
   48MOL   O25225726   1.553   0.010   4.782  0.0533 -0.3355 -0.1410
   48MOL   C25325727   1.771   7.714   4.729 -0.1338 -0.4327  0.7393
   48MOL   C25425728   1.812   7.770   4.866  0.1796  1.3960 -0.4875
   48MOL   C25525729   1.736   7.564   4.746 -0.1639  0.2149 -0.5863
   48MOL   H25625730   0.927   7.490   4.393 -0.4601  0.6238 -1.2986
   48MOL   H25725731   0.912   7.630   4.500  2.4334  2.3885  1.4484
   48MOL   H25825732   0.973   7.653   4.338 -0.7736  0.6870  0.8804
   48MOL   H25925733   1.108   7.510   4.566 -3.9251  2.9149  0.8127
   48MOL   H26025734   1.166   7.493   4.398  1.7464  0.5639  0.4607
   48MOL   H26125735   1.151   7.751   4.556  0.0624 -0.8476  0.2737
   48MOL   H26225736   1.215   7.727   4.393 -0.2296  0.3070 -0.3011
   48MOL   H26325737   1.319   7.633   4.645  0.9791  1.7669 -0.0568
   48MOL   H26425738   1.393   7.562   4.511  0.5330  0.6220  0.0486
   48MOL   H26525739   1.443   7.796   4.429  0.3297  2.3402  0.1753
   48MOL   H26625740   1.404   0.035   4.583  1.6466  1.1886  0.4672
   48MOL   H26725741   1.789   0.059   4.892  0.5912  1.1283  1.0388
   48MOL   H26825742   1.767   7.713   4.948  0.3535  1.1380 -0.5701
   48MOL   H26925743   1.919   7.760   4.885  0.6502  0.7117 -3.3875
   48MOL   H27025744   1.675   7.556   4.836  0.0742 -0.6626 -0.4967
   48MOL   H27125745   1.673   7.527   4.665  1.1421 -1.8379 -0.6954
   48MOL   C27225746   1.937   7.056   4.105  0.1677 -0.4951  0.7320
   48MOL   C27325747   1.858   7.197   4.073 -0.5780  0.5858  0.2387
   48MOL   C27425748   1.906   7.313   4.161  0.7776  0.4158  0.8746
   48MOL   C27525749   1.869   7.307   4.312 -0.2313  0.0016 -0.5050
   48MOL   C27625750   1.907   7.431   4.386 -0.1833 -0.5022 -1.2029
   48MOL   O27725751   1.852   7.438   4.521 -0.3268 -0.1123 -0.3398
   48MOL   C27825752   1.926   7.438   4.635  0.9206 -0.1435 -0.3268
   48MOL   O27925753   2.046   7.430   4.643  0.2570  0.5647 -0.0758
   48MOL   C28025754   1.839   7.455   4.768  0.7603  0.2472 -0.0919
   48MOL   C28125755   1.932   7.476   4.891  0.3228  0.0478  0.3450
   48MOL   C28225756   1.754   7.320   4.798  0.5330 -0.0783 -0.6867
   48MOL   H28325757   2.030   7.084   4.155 -1.2168 -0.7091  3.5068
   48MOL   H28425758   1.887   6.979   4.164  1.0085 -2.1289 -0.6196
   48MOL   H28525759   1.964   7.013   4.008  1.0361  0.1477  0.6792
   48MOL   H28625760   1.907   7.233   3.983 -0.3280  1.6994  0.8134
   48MOL   H28725761   1.754   7.188   4.043 -0.4076 -0.8463  0.0351
   48MOL   H28825762   2.014   7.325   4.163  0.8397 -0.1265  1.0804
   48MOL   H28925763   1.870   7.404   4.113 -0.3995 -0.1265  0.6979
   48MOL   H29025764   1.763   7.284   4.318 -0.3407  0.8334  1.2611
   48MOL   H29125765   1.908   7.216   4.356 -0.1786  0.9469  1.4514
   48MOL   H29225766   1.857   7.506   4.324 -1.6822  0.0552  0.6681
   48MOL   H29325767   2.013   7.457   4.382 -0.1626 -0.6201 -1.4153
   48MOL   H29425768   1.991   7.568   4.890  2.9084 -1.4448 -4.7748
   48MOL   H29525769   1.867   7.477   4.978  1.2496 -0.3887  1.0598
   48MOL   H29625770   2.006   7.396   4.899  1.3492  1.1220  1.9682
   48MOL   H29725771   1.707   7.340   4.894  3.3093  0.8630  0.5129
   48MOL   H29825772   1.675   7.318   4.723 -1.5618 -0.5607  1.4521
   48MOL   C29925773   1.882   6.484   4.732  0.1588  0.4247  0.3068
   48MOL   C30025774   1.826   6.596   4.649  0.7436 -0.1424  0.5125
   48MOL   C30125775   1.922   6.713   4.627  0.3065  0.2527 -0.1331
   48MOL   C30225776   1.868   6.816   4.531  0.8583  0.2576  0.1850
   48MOL   C30325777   1.942   6.948   4.516 -0.4476 -0.3490 -0.0378
   48MOL   O30425778   1.919   7.015   4.640  0.1601 -0.1319  0.1578
   48MOL   C30525779   1.834   7.122   4.652 -1.0637 -0.1450 -0.0294
   48MOL   O30625780   1.771   7.168   4.562  0.1820  0.4790 -0.9238
   48MOL   C30725781   1.809   7.171   4.794 -0.5558  0.4283  0.2992
   48MOL   C30825782   1.946   7.148   4.872  0.1652 -0.0611 -0.7147
   48MOL   C30925783   1.713   7.074   4.878 -0.2620  0.4467 -0.3534
   48MOL   H31025784   1.878   6.502   4.840 -1.1858  1.5652  0.0813
   48MOL   H31125785   1.977   6.445   4.695 -1.1183  0.9814 -3.8302
   48MOL   H31225786   1.819   6.395   4.726  0.1114  0.4574  0.3115
   48MOL   H31325787   1.743   6.626   4.713  0.9469 -1.2888  1.3212
   48MOL   H31425788   1.785   6.567   4.552 -0.7441  2.6527  0.2432
   48MOL   H31525789   2.022   6.678   4.604  0.1866 -0.3717  0.2696
   48MOL   H31625790   1.944   6.758   4.724 -0.0334 -1.4010  0.7358
   48MOL   H31725791   1.762   6.828   4.553  0.4826 -1.5034 -0.5888
   48MOL   H31825792   1.867   6.769   4.432  1.5421  0.6592 -0.0117
   48MOL   H31925793   2.046   6.924   4.495 -0.3884  0.3577 -0.5555
   48MOL   H32025794   1.901   7.003   4.431 -0.3802  1.5901  1.1362
   48MOL   H32125795   1.962   7.042   4.889  0.1232  0.0783  0.1917
   48MOL   H32225796   2.028   7.198   4.820 -0.5605  0.2528 -1.5707
   48MOL   H32325797   1.946   7.204   4.965  0.6361  0.0904 -0.8033
   48MOL   H32425798   1.723   7.100   4.983 -0.2494  1.5698 -0.6218
   48MOL   H32525799   1.753   6.974   4.861  0.0416  0.6497 -0.8513
   48MOL   C32625800   1.688   7.583   5.283  0.2971  1.1137 -0.2894
   48MOL   C32725801   1.545   7.575   5.228  0.4621 -0.1103  0.4884
   48MOL   C32825802   1.531   7.465   5.117  0.2079  0.7514  0.5995
   48MOL   C32925803   1.382   7.432   5.088  0.0710  0.6886  0.4465
   48MOL   C33025804   1.368   7.364   4.954 -0.1982  0.9800 -0.2573
   48MOL   O33125805   1.464   7.260   4.942 -0.8278 -0.1877 -0.0602
   48MOL   C33225806   1.470   7.181   4.830  0.3692  0.6496  0.7933
   48MOL   O33325807   1.432   7.211   4.717 -0.1772 -0.0467  0.3817
   48MOL   C33425808   1.554   7.048   4.854 -0.5418  0.2665  0.1490
   48MOL   C33525809   1.546   6.968   4.721  0.5396 -0.4350 -0.3070
   48MOL   C33625810   1.504   6.961   4.976 -0.6279  0.3861  0.5844
   48MOL   H33725811   1.773   7.597   5.216 -0.9020 -3.0946 -2.8697
   48MOL   H33825812   1.700   7.500   5.353 -2.3048  0.7691 -0.1902
   48MOL   H33925813   1.681   7.671   5.347  1.4415  0.4617  0.7618
   48MOL   H34025814   1.511   7.674   5.197  1.8934 -0.2701 -1.7004
   48MOL   H34125815   1.484   7.540   5.311 -0.0162  0.7921  0.5233
   48MOL   H34225816   1.567   7.367   5.146 -2.0265 -0.8548 -1.8682
   48MOL   H34325817   1.592   7.496   5.032  0.8661  0.0644  0.8182
   48MOL   H34425818   1.319   7.520   5.091 -0.1530  0.5049  1.0236
   48MOL   H34525819   1.341   7.366   5.164 -1.2287 -1.7907 -2.3137
   48MOL   H34625820   1.379   7.429   4.867  1.2294  0.3686 -0.5457
   48MOL   H34725821   1.272   7.314   4.956 -0.7246  2.0255  0.7330
   48MOL   H34825822   1.446   6.927   4.706  0.7163 -1.2903  0.8004
   48MOL   H34925823   1.618   6.886   4.715  1.1446  0.2170 -2.4989
   48MOL   H35025824   1.565   7.020   4.627 -0.2609  1.7759  0.7249
   48MOL   H35125825   1.519   7.030   5.059  0.7228  1.9124 -0.9041
   48MOL   H35225826   1.579   6.885   4.993  1.0000  1.7154 -0.5096
   48MOL   C35325827   1.624   6.057   4.938  0.0178  0.0773 -0.6534
   48MOL   C35425828   1.637   6.207   4.977 -0.2288  0.0542  0.0649
   48MOL   C35525829   1.543   6.309   4.897 -0.0773 -0.1115  0.2221
   48MOL   C35625830   1.543   6.452   4.962  0.0430 -0.6298 -0.1505
   48MOL   C35725831   1.444   6.544   4.885  0.1232 -0.2824  0.0692
   48MOL   O35825832   1.451   6.674   4.940  0.6587  0.5528 -0.4334
   48MOL   C35925833   1.356   6.764   4.911  0.5989  0.5140  0.7909
   48MOL   O36025834   1.273   6.742   4.824 -0.3688  0.7175  0.8025
   48MOL   C36125835   1.360   6.894   4.993 -0.2859  0.0054  0.2551
   48MOL   C36225836   1.253   6.990   4.940  0.8568  0.2291 -0.6825
   48MOL   C36325837   1.339   6.860   5.148  0.2308  0.4610 -0.1193
   48MOL   H36425838   1.707   6.005   4.987  0.2304 -0.1663 -1.2564
   48MOL   H36525839   1.613   6.035   4.832  0.0445  0.0542 -0.6515
   48MOL   H36625840   1.534   6.019   4.985  0.4849 -1.4585 -0.9506
   48MOL   H36725841   1.606   6.213   5.081 -0.2673 -1.9917  0.1933
   48MOL   H36825842   1.743   6.229   4.984 -0.5079  1.6720 -0.6098
   48MOL   H36925843   1.438   6.281   4.889  0.1386 -0.9564  0.2545
   48MOL   H37025844   1.574   6.312   4.792 -2.4580 -1.0598 -0.5464
   48MOL   H37125845   1.634   6.510   4.955  0.4496 -1.3205 -0.6985
   48MOL   H37225846   1.530   6.456   5.070  1.2886  0.0657 -0.0234
   48MOL   H37325847   1.484   6.552   4.784  1.1447 -1.3554  0.3790
   48MOL   H37425848   1.346   6.495   4.887 -0.1386  0.2065  3.8388
   48MOL   H37525849   1.265   7.083   4.996  0.4826  0.1088 -0.3958
   48MOL   H37625850   1.253   7.007   4.833 -2.4390 -0.0810 -0.7857
   48MOL   H37725851   1.153   6.952   4.963  0.6684  0.2318 -1.4844
   48MOL   H37825852   1.429   6.805   5.175  0.8231  1.2021 -0.5565
   48MOL   H37925853   1.355   6.951   5.206 -0.0496 -0.7046  1.8476
   48MOL   C38025854   1.040   7.534   5.460 -0.2889  0.2969  0.1205
   48MOL   C38125855   1.077   7.515   5.315  0.2908 -0.4697  0.5624
   48MOL   C38225856   1.013   7.391   5.255 -0.1052 -0.2338  0.5776
   48MOL   C38325857   1.088   7.259   5.300  0.5120 -0.2212  0.1541
   48MOL   C38425858   1.041   7.126   5.225  0.4892  0.2982 -0.2710
   48MOL   O38525859   1.125   7.018   5.267  0.3681  0.0133 -0.1930
   48MOL   C38625860   1.098   6.899   5.225  0.0569 -0.9172 -0.4947
   48MOL   O38725861   0.991   6.876   5.173 -0.3377  0.1808  0.0339
   48MOL   C38825862   1.219   6.796   5.220 -0.6275 -0.2542  0.5071
   48MOL   C38925863   1.181   6.669   5.134  0.0773 -0.1815  0.3937
   48MOL   C39025864   1.273   6.765   5.368  0.1589 -0.2449 -0.2035
   48MOL   H39125865   0.932   7.523   5.465 -0.6502  3.5403  0.9462
   48MOL   H39225866   1.101   7.472   5.525 -1.5934  0.0069  1.0799
   48MOL   H39325867   1.057   7.638   5.487 -4.7381  1.3172 -0.5708
   48MOL   H39425868   1.186   7.515   5.319  0.2718  1.3750  1.5438
   48MOL   H39525869   1.059   7.605   5.258  0.5316 -0.0443  1.1506
   48MOL   H39625870   0.907   7.382   5.280  0.4499 -1.4690  2.5661
   48MOL   H39725871   1.022   7.406   5.147  0.1622  4.2824  1.1352
   48MOL   H39825872   1.197   7.264   5.290  0.7335 -3.5323  0.4258
   48MOL   H39925873   1.080   7.241   5.407  2.3035  1.5938  0.6294
   48MOL   H40025874   1.053   7.147   5.119  0.1201  0.0296 -0.3641
   48MOL   H40125875   0.935   7.120   5.250  0.8621  2.4233  2.1912
   48MOL   H40225876   1.087   6.627   5.172 -1.0820 -0.7107 -2.9498
   48MOL   H40325877   1.249   6.587   5.158 -0.2218 -0.8985 -1.1861
   48MOL   H40425878   1.158   6.672   5.028  0.8565 -2.1050  0.1545
   48MOL   H40525879   1.336   6.843   5.410  0.4264 -1.3901  1.5777
   48MOL   H40625880   1.349   6.691   5.345 -1.2099 -2.1133  1.1398
   48MOL   C40725881   1.626   6.137   5.477  0.2820 -0.4563 -0.2377
   48MOL   C40825882   1.546   6.190   5.360  0.0849  0.0742 -0.7640
   48MOL   C40925883   1.411   6.245   5.419 -0.0443 -0.1180  0.2355
   48MOL   C41025884   1.314   6.301   5.314  0.1111 -0.2644  0.1402
   48MOL   C41125885   1.188   6.355   5.380 -0.2898  0.5899 -0.1541
   48MOL   O41225886   1.220   6.486   5.422 -0.0583 -0.0717 -0.1307
   48MOL   C41325887   1.129   6.574   5.445  0.2502 -0.0773  0.6120
   48MOL   O41425888   1.010   6.550   5.431 -0.0540 -0.1837  0.6221
   48MOL   C41525889   1.182   6.713   5.486 -0.1679 -0.0788 -0.1444
   48MOL   C41625890   1.286   6.691   5.602  0.2498 -0.6646  0.4232
   48MOL   C41725891   1.072   6.820   5.518  0.2201 -0.2407 -0.7752
   48MOL   H41825892   1.573   6.058   5.531 -0.9012  0.9680  0.7458
   48MOL   H41925893   1.720   6.092   5.446  0.6702 -0.5142  0.9927
   48MOL   H42025894   1.642   6.213   5.553  0.1822 -0.5597 -0.1121
   48MOL   H42125895   1.524   6.114   5.286 -1.2571  1.8886 -2.2663
   48MOL   H42225896   1.579   6.288   5.325 -2.0541  1.2770  0.4343
   48MOL   H42325897   1.353   6.163   5.461 -1.3378  0.8305  0.3181
   48MOL   H42425898   1.431   6.332   5.481 -2.9196  1.5316 -1.0584
   48MOL   H42525899   1.286   6.223   5.242  1.4476 -0.9496  0.3565
   48MOL   H42625900   1.367   6.379   5.260  0.5390 -0.3708  0.4075
   48MOL   H42725901   1.106   6.343   5.308  0.7311 -1.3798 -1.0474
   48MOL   H42825902   1.155   6.294   5.464 -1.2767 -0.4826 -1.2875
   48MOL   H42925903   1.333   6.786   5.629  0.3848 -0.4390 -0.6020
   48MOL   H43025904   1.371   6.631   5.567  0.1372 -0.3739 -0.3489
   48MOL   H43125905   1.236   6.657   5.693 -1.4343  1.2101  0.2179
   48MOL   H43225906   0.994   6.806   5.443 -0.8891 -1.3255  0.5521
   48MOL   H43325907   1.118   6.914   5.489  1.1581 -0.1034  1.0667
   48MOL   C43425908   1.534   7.166   5.348  0.4404  0.6159  0.1199
   48MOL   C43525909   1.462   7.258   5.446  0.7685  0.5569 -0.1311
   48MOL   C43625910   1.362   7.188   5.537  0.4863 -0.8741  0.0470
   48MOL   C43725911   1.415   7.104   5.655  0.0934 -0.4883  0.5815
   48MOL   C43825912   1.307   7.075   5.765  0.3082  0.6166 -0.3118
   48MOL   O43925913   1.203   7.007   5.695 -0.3895  0.5072 -0.4030
   48MOL   C44025914   1.130   6.910   5.752 -0.2288  0.1656  0.5047
   48MOL   O44125915   1.141   6.875   5.871  0.1010 -0.2899  0.7997
   48MOL   C44225916   1.013   6.849   5.661 -0.5099  0.0511  0.3369
   48MOL   C44325917   0.959   6.712   5.718 -0.3067  1.3320  0.0132
   48MOL   C44425918   0.889   6.946   5.632 -0.0433 -0.5558  1.1188
   48MOL   H44525919   1.469   7.149   5.262 -0.6638 -0.9649  1.2515
   48MOL   H44625920   1.620   7.215   5.302  1.9551 -1.7421  0.3727
   48MOL   H44725921   1.557   7.074   5.401 -0.1265  0.6338  0.4015
   48MOL   H44825922   1.527   7.319   5.509  0.2331  1.4977 -0.4760
   48MOL   H44925923   1.412   7.337   5.389 -0.9303 -0.3346  0.1155
   48MOL   H45025924   1.296   7.263   5.580  0.8806 -1.4286  1.6565
   48MOL   H45125925   1.300   7.125   5.474 -0.9227  0.4755  0.0716
   48MOL   H45225926   1.493   7.166   5.698 -1.1909  0.1354  2.0615
   48MOL   H45325927   1.464   7.014   5.619  1.5783 -0.0916  1.5559
   48MOL   H45425928   1.265   7.167   5.805  0.4979 -0.5073  2.6466
   48MOL   H45525929   1.352   7.020   5.848  2.9634  2.0225 -0.7735
   48MOL   H45625930   0.932   6.711   5.823  3.3365  2.9307  1.0465
   48MOL   H45725931   0.880   6.678   5.651  0.4406 -0.9155  0.2544
   48MOL   H45825932   1.032   6.633   5.704 -1.4506  0.1915  0.4473
   48MOL   H45925933   0.796   6.891   5.619 -1.5063  1.8393  1.1606
   48MOL   H46025934   0.894   7.014   5.546  1.2770  0.6160  2.1048
   48MOL   C46125935   0.563   7.596   6.082 -0.2788 -0.0313 -0.2515
   48MOL   C46225936   0.710   7.567   6.101  0.3935 -0.0579 -0.0088
   48MOL   C46325937   0.765   7.492   5.986  0.1611 -0.2041  0.1744
   48MOL   C46425938   0.912   7.428   6.004  0.0902 -0.0019 -0.3705
   48MOL   C46525939   0.955   7.366   5.880  0.1422  0.9667  0.8145
   48MOL   O46625940   0.880   7.251   5.861  0.6984  0.2002  0.5165
   48MOL   C46725941   0.917   7.168   5.756  0.0306  0.0620  0.0723
   48MOL   O46825942   0.995   7.205   5.670 -0.1635 -0.2015 -0.2700
   48MOL   C46925943   0.824   7.044   5.734 -0.6783  0.5210  0.3477
   48MOL   C47025944   0.805   6.975   5.868 -0.4333 -0.4088 -0.7549
   48MOL   C47125945   0.675   7.077   5.697 -0.4282 -0.0021  0.1814
   48MOL   H47225946   0.540   7.614   5.977 -1.7112 -0.2150  0.0180
   48MOL   H47325947   0.526   7.676   6.146  3.6919  0.7273  1.2398
   48MOL   H47425948   0.497   7.509   6.092  0.4241 -0.7417 -1.7775
   48MOL   H47525949   0.721   7.498   6.185 -2.2007 -1.5816 -0.8523
   48MOL   H47625950   0.763   7.659   6.121 -0.4754  0.4546 -0.0271
   48MOL   H47725951   0.760   7.554   5.897  0.6938 -0.7265 -0.2261
   48MOL   H47825952   0.695   7.411   5.964 -0.4759  0.6473 -0.9682
   48MOL   H47925953   0.919   7.358   6.087  0.4375  2.0229  1.3690
   48MOL   H48025954   0.987   7.502   6.035  0.5778 -0.1794 -1.1223
   48MOL   H48125955   0.949   7.433   5.794 -0.2638 -0.3616 -0.2184
   48MOL   H48225956   1.061   7.341   5.882 -0.5662 -2.1099  2.7003
   48MOL   H48325957   0.746   7.031   5.940 -0.4528 -1.2010 -0.1516
   48MOL   H48425958   0.903   6.961   5.914 -0.0123 -1.0362 -1.8026
   48MOL   H48525959   0.752   6.881   5.852  3.1107 -2.7045  0.3607
   48MOL   H48625960   0.641   7.128   5.787  1.3783  0.4605  0.6243
   48MOL   H48725961   0.611   6.990   5.683  0.5522 -0.4120 -2.0748
   48MOL   C48825962   0.693   6.482   5.253  1.0114 -0.0279 -0.2051
   48MOL   C48925963   0.569   6.557   5.203 -0.4728  0.4713 -0.2997
   48MOL   C49025964   0.586   6.708   5.184  0.6314  0.0720  0.3489
   48MOL   C49125965   0.618   6.783   5.311  0.1642 -0.0021  0.0747
   48MOL   C49225966   0.638   6.934   5.296 -0.0837 -0.1852  0.3155
   48MOL   O49325967   0.631   7.002   5.427  0.0599 -0.1837  0.6008
   48MOL   C49425968   0.666   7.134   5.448  0.9607 -0.6223 -1.0070
   48MOL   O49525969   0.704   7.211   5.364  0.4218 -0.4676 -0.4216
   48MOL   C49625970   0.632   7.185   5.595 -0.3057 -0.4702 -0.5305
   48MOL   C49725971   0.693   7.330   5.618  0.3216  0.1180  0.7819
   48MOL   C49825972   0.475   7.199   5.573 -0.4931 -0.1495  0.2761
   48MOL   H49925973   0.761   6.489   5.168 -0.4839 -0.1290 -1.4272
   48MOL   H50025974   0.748   6.524   5.337  1.8053  0.4597 -0.9583
   48MOL   H50125975   0.679   6.376   5.273  0.0989  0.3599  1.2871
   48MOL   H50225976   0.486   6.536   5.270  0.1962 -1.7999 -0.1439
   48MOL   H50325977   0.534   6.510   5.111 -2.4495  2.3951 -0.5664
   48MOL   H50425978   0.672   6.728   5.119 -0.1106 -0.4120 -0.7824
   48MOL   H50525979   0.502   6.758   5.136  0.8609 -0.2021 -0.3319
   48MOL   H50625980   0.701   6.741   5.366 -0.4070  2.3782  2.8437
   48MOL   H50725981   0.531   6.775   5.375 -0.8525 -3.3365 -1.5592
   48MOL   H50825982   0.736   6.960   5.255 -0.6604  1.5525  0.0208
   48MOL   H50925983   0.563   6.969   5.226 -0.5843  0.4593  1.1704
   48MOL   H51025984   0.653   7.406   5.551 -0.2315 -0.3496  0.5769
   48MOL   H51125985   0.800   7.334   5.595  0.0634  2.3835 -0.0441
   48MOL   H51225986   0.686   7.371   5.719 -0.2603  1.7095  0.1006
   48MOL   H51325987   0.439   7.105   5.531 -1.9704  0.4319  0.1874
   48MOL   H51425988   0.451   7.265   5.489  0.6674 -0.1206 -0.0399
   48MOL   C51525989   0.504   6.523   5.547  0.0148 -0.1181  0.4507
   48MOL   C51625990   0.382   6.590   5.600 -0.5427 -0.5534  0.2040
   48MOL   C51725991   0.414   6.710   5.687 -0.3983 -0.1289 -0.0671
   48MOL   C51825992   0.297   6.766   5.765  0.3410  0.2056 -0.0254
   48MOL   C51925993   0.328   6.892   5.839 -0.1418  0.2091  0.6671
   48MOL   O52025994   0.332   7.002   5.749 -0.1565 -0.1700  0.2160
   48MOL   C52125995   0.374   7.120   5.794  0.6062  0.4966  0.9349
   48MOL   O52225996   0.395   7.143   5.910 -0.1229  0.2305  0.1430
   48MOL   C52325997   0.377   7.231   5.688 -1.2027 -0.2801 -0.4907
   48MOL   C52425998   0.233   7.251   5.632 -0.0652 -0.4654 -0.0526
   48MOL   C52525999   0.420   7.360   5.758  0.0647  0.5770  0.0569
   48MOL   H52626000   0.568   6.594   5.495 -0.3251 -1.1365 -1.3974
   48MOL   H52726001   0.578   6.482   5.616  0.6917 -0.5670 -0.5173
   48MOL   H52826002   0.477   6.444   5.477  2.5060 -0.7212  0.1394
   48MOL   H52926003   0.325   6.636   5.519  1.4433 -0.3023 -1.1115
   48MOL   H53026004   0.311   6.521   5.645  0.3085 -1.3822  0.3109
   48MOL   H53126005   0.483   6.693   5.769 -0.4367  2.3180  0.5104
   48MOL   H53226006   0.468   6.788   5.634 -0.0262 -0.2711  0.1057
   48MOL   H53326007   0.275   6.690   5.840  0.2763 -0.6615 -0.9112
   48MOL   H53426008   0.210   6.764   5.700 -0.5672  0.1484  1.1689
   48MOL   H53526009   0.252   6.901   5.918  0.5352 -0.0279  1.3548
   48MOL   H53626010   0.424   6.892   5.892 -0.0097 -2.2864  0.4566
   48MOL   H53726011   0.234   7.285   5.528 -1.8497 -3.0370 -0.9597
   48MOL   H53826012   0.178   7.317   5.699 -0.3433 -0.6388 -0.1096
   48MOL   H53926013   0.178   7.157   5.624 -2.2180  0.9690 -2.9544
   48MOL   H54026014   0.497   7.354   5.834  1.4560 -0.3939 -1.4102
   48MOL   H54126015   0.334   7.410   5.804 -0.9141  0.2700 -1.3892
   48MOL   H54226016   0.462   7.425   5.681 -3.7898  2.5798 -0.4862
   49MOL     C126017   6.262   3.565   3.370 -0.5437  0.4720 -0.9122
   49MOL     C226018   6.152   3.493   3.294  0.0985  0.5897 -0.3873
   49MOL     C326019   6.110   3.350   3.338  0.1633 -0.0993 -0.4201
   49MOL     C426020   5.957   3.326   3.355  0.2756 -0.0504  0.1229
   49MOL     C526021   5.899   3.433   3.451  0.2155  0.6431  0.2285
   49MOL     O626022   5.763   3.412   3.474  0.4631 -0.0560  0.5287
   49MOL     C726023   5.715   3.334   3.566 -0.3020 -0.3691 -0.1060
   49MOL     O826024   5.778   3.274   3.648 -0.0228  0.0820  0.2840
   49MOL     C926025   5.565   3.315   3.560  0.5034  0.4022 -0.1288
   49MOL    C1026026   5.533   3.222   3.443 -0.2187  0.0162 -0.9956
   49MOL    C1126027   5.486   3.448   3.544 -0.1621  0.4651 -0.6051
   49MOL    H1226028   6.235   3.588   3.473  2.0477 -2.1338  0.4265
   49MOL    H1326029   6.273   3.655   3.310 -3.5138  1.2914 -0.3043
   49MOL    H1426030   6.355   3.508   3.367 -0.7385  0.1430 -0.7409
   49MOL    H1526031   6.071   3.559   3.265 -0.0368  0.2676 -0.7531
   49MOL    H1626032   6.192   3.480   3.193  0.6586 -0.8585  0.0042
   49MOL    H1726033   6.132   3.279   3.259 -3.5369 -0.9212 -0.8065
   49MOL    H1826034   6.148   3.320   3.436 -0.0160 -0.7695 -0.5504
   49MOL    H1926035   5.937   3.227   3.396 -0.5172  0.7963  1.8201
   49MOL    H2026036   5.915   3.346   3.256 -2.0540 -0.3668  1.0283
   49MOL    H2126037   5.953   3.423   3.544 -1.3001  0.0141  1.0627
   49MOL    H2226038   5.918   3.526   3.398 -0.1062  0.7123  0.2328
   49MOL    H2326039   5.428   3.190   3.446 -0.1069 -0.4802 -2.1042
   49MOL    H2426040   5.600   3.140   3.422 -1.0511 -1.0729  0.4846
   49MOL    H2526041   5.534   3.269   3.345  0.7952 -0.8564 -1.4053
   49MOL    H2626042   5.437   3.449   3.446  0.8019 -0.8681 -1.1167
   49MOL    H2726043   5.555   3.533   3.540  1.4314 -0.7343  0.8905
   49MOL    H2826044   5.529   3.264   3.650  0.1476  1.8717  0.5638
   49MOL    C2926045   5.417   3.437   4.474  0.2335  0.5228  1.5054
   49MOL    C3026046   5.467   3.410   4.332 -0.0030  0.4446 -1.0061
   49MOL    C3126047   5.433   3.519   4.235 -0.4215 -0.3889  0.5412
   49MOL    C3226048   5.437   3.481   4.091  0.2710  0.5427  0.4539
   49MOL    C3326049   5.390   3.598   4.000  0.4912 -0.2739 -0.1637
   49MOL    O3426050   5.338   3.549   3.877  0.0049 -0.5844 -0.1216
   49MOL    C3526051   5.430   3.515   3.784  0.6781  1.0231  0.1894
   49MOL    O3626052   5.551   3.516   3.805 -0.0156  0.4871 -0.3253
   49MOL    C3726053   5.374   3.488   3.647  0.0195 -0.1331  0.6052
   49MOL    C3826054   5.261   3.376   3.666 -0.1622 -0.3661 -0.5367
   49MOL    C3926055   5.287   3.611   3.600 -0.0139  0.5269 -0.7479
   49MOL    H4026056   5.450   3.534   4.513  0.3236  1.5871 -1.1243
   49MOL    H4126057   5.309   3.445   4.488 -0.2989  0.3745 -2.0189
   49MOL    H4226058   5.440   3.352   4.538 -0.9672  0.9655  2.5666
   49MOL    H4326059   5.423   3.316   4.300 -1.7246  0.9941 -0.2740
   49MOL    H4426060   5.572   3.378   4.337 -0.5016 -1.0168  0.8727
   49MOL    H4526061   5.500   3.604   4.247  2.5162 -2.5146 -0.1881
   49MOL    H4626062   5.332   3.558   4.244 -0.9138 -0.3207 -3.7881
   49MOL    H4726063   5.539   3.461   4.057  0.2013 -2.1277  1.7327
   49MOL    H4826064   5.382   3.393   4.057 -1.1700  1.8923 -0.8291
   49MOL    H4926065   5.474   3.667   3.995 -0.7483  1.4494  1.6789
   49MOL    H5026066   5.309   3.662   4.036  0.0132 -0.9159 -0.0828
   49MOL    H5126067   5.296   3.284   3.712 -0.1902  0.0674  0.3476
   49MOL    H5226068   5.242   3.344   3.563 -0.2365 -0.4310 -0.5029
   49MOL    H5326069   5.170   3.401   3.720  0.6815 -3.3712  2.4544
   49MOL    H5426070   5.209   3.618   3.675 -1.9259 -0.4336 -2.6085
   49MOL    H5526071   5.234   3.568   3.516 -0.0682 -2.7769  0.8841
   49MOL    C5626072   5.885   3.678   3.111 -0.1203  0.0764  0.2168
   49MOL    C5726073   5.751   3.691   3.033 -0.4767 -0.1022 -0.0724
   49MOL    C5826074   5.654   3.581   3.073  0.6846 -0.1524 -0.7084
   49MOL    C5926075   5.587   3.606   3.215 -0.9712  0.5454  0.3504
   49MOL    C6026076   5.487   3.716   3.217  0.1194  0.8971 -0.3576
   49MOL    O6126077   5.404   3.709   3.327 -0.6506  0.1385 -0.2889
   49MOL    C6226078   5.452   3.754   3.446 -0.0662 -0.0290 -0.4454
   49MOL    O6326079   5.563   3.802   3.463 -0.1900 -0.7261 -0.8980
   49MOL    C6426080   5.343   3.758   3.563 -0.5236  0.2293  0.3175
   49MOL    C6526081   5.392   3.827   3.693  0.2546  0.4504  0.0735
   49MOL    C6626082   5.221   3.833   3.491  0.2573  0.0162 -0.1694
   49MOL    H6726083   5.875   3.715   3.214 -0.8037  0.9203 -0.1487
   49MOL    H6826084   5.969   3.733   3.070 -1.0637  1.6798  0.3724
   49MOL    H6926085   5.920   3.575   3.106  0.1654  0.0710  1.8847
   49MOL    H7026086   5.704   3.790   3.031 -0.9626 -0.3154  0.5099
   49MOL    H7126087   5.761   3.678   2.926 -0.9542 -1.8337  0.0784
   49MOL    H7226088   5.569   3.585   3.005 -1.3995 -0.3867  1.8189
   49MOL    H7326089   5.697   3.482   3.058 -0.0192 -0.7685  1.2457
   49MOL    H7426090   5.657   3.616   3.298  0.7334 -1.1476 -0.8363
   49MOL    H7526091   5.533   3.511   3.217 -0.4832  0.1712 -2.1908
   49MOL    H7626092   5.544   3.808   3.204 -1.7194  1.9274 -1.2844
   49MOL    H7726093   5.419   3.701   3.134 -0.2293 -3.0433  0.5676
   49MOL    H7826094   5.495   3.794   3.711 -0.9040 -2.4808  1.7715
   49MOL    H7926095   5.341   3.797   3.785  1.4057  0.2670  0.6627
   49MOL    H8026096   5.393   3.936   3.692 -2.1707  0.4964 -1.1420
   49MOL    H8126097   5.132   3.818   3.551  0.3784  2.1935  0.6096
   49MOL    H8226098   5.189   3.772   3.406  0.6709  2.7469 -2.3580
   49MOL    C8326099   5.379   4.545   3.912  0.1806 -0.1553 -0.2100
   49MOL    C8426100   5.245   4.588   3.859  0.3110  0.0841  0.4469
   49MOL    C8526101   5.141   4.477   3.837 -0.1040 -0.5997  0.1506
   49MOL    C8626102   5.200   4.375   3.736  1.1919  0.1601 -0.1980
   49MOL    C8726103   5.084   4.286   3.680  0.4575 -0.0750  0.0982
   49MOL    O8826104   5.135   4.199   3.578  0.7644  0.2394 -0.3559
   49MOL    C8926105   5.148   4.062   3.598 -0.6610 -0.2579 -0.5030
   49MOL    O9026106   5.112   3.997   3.700 -0.2835 -0.6452 -0.1297
   49MOL    C9126107   5.200   3.984   3.469 -0.3894 -0.2427  0.8307
   49MOL    C9226108   5.331   4.048   3.431 -0.4118 -0.1525 -0.2854
   49MOL    C9326109   5.097   4.002   3.345 -1.1032  0.8959  0.0669
   49MOL    H9426110   5.428   4.467   3.853  1.3814  0.1376  0.3843
   49MOL    H9526111   5.456   4.622   3.910 -1.8444  1.9696  1.0610
   49MOL    H9626112   5.368   4.509   4.015 -2.6979  0.5602 -0.2023
   49MOL    H9726113   5.266   4.627   3.760  0.1304 -0.6133  0.1329
   49MOL    H9826114   5.217   4.666   3.930  0.5894 -0.3127  0.9928
   49MOL    H9926115   5.057   4.532   3.795 -0.2822 -0.9181  0.0924
   49MOL   H10026116   5.113   4.435   3.933  0.3391 -0.2005  0.4600
   49MOL   H10126117   5.267   4.314   3.797 -1.3091 -2.0803  0.3879
   49MOL   H10226118   5.255   4.422   3.654  2.4033 -1.6486 -0.4592
   49MOL   H10326119   4.994   4.343   3.659 -0.6242 -1.0122  2.1240
   49MOL   H10426120   5.051   4.222   3.761  0.8816 -2.8512 -1.8418
   49MOL   H10526121   5.378   3.990   3.351  0.1855 -2.0293  1.3884
   49MOL   H10626122   5.397   4.071   3.514 -0.8445 -1.5547  0.4532
   49MOL   H10726123   5.310   4.148   3.394 -0.3168 -0.1915 -0.4475
   49MOL   H10826124   5.098   4.106   3.311  1.7501  1.1469  0.7706
   49MOL   H10926125   5.148   3.949   3.265 -1.1135 -1.2567  1.4484
   49MOL   C11026126   4.492   3.724   3.735 -0.1814  0.6693  0.0933
   49MOL   C11126127   4.452   3.856   3.685 -0.1538  0.0945  0.2110
   49MOL   C11226128   4.577   3.926   3.628  0.2358  0.5835 -0.1629
   49MOL   C11326129   4.537   4.047   3.555 -0.2661 -0.7322 -0.3091
   49MOL   C11426130   4.650   4.142   3.502 -0.0231  0.8620 -0.7322
   49MOL   O11526131   4.733   4.053   3.431  0.4553  0.4024  0.6440
   49MOL   C11626132   4.861   4.081   3.407 -0.2618 -0.3087  0.1185
   49MOL   O11726133   4.902   4.199   3.422 -0.1631 -0.3734 -0.1661
   49MOL   C11826134   4.944   3.966   3.344 -0.1974 -0.2435 -0.4839
   49MOL   C11926135   4.904   3.838   3.429 -0.1223  0.1215  0.6792
   49MOL   C12026136   4.904   3.935   3.193  0.1663 -0.1561  0.0968
   49MOL   H12126137   4.565   3.730   3.815  1.4508 -3.0069 -1.0138
   49MOL   H12226138   4.402   3.668   3.760 -0.9563  2.2279  0.8094
   49MOL   H12326139   4.535   3.661   3.657  1.8688  2.1271  0.0075
   49MOL   H12426140   4.383   3.842   3.602  2.0202 -1.8240 -1.3511
   49MOL   H12526141   4.406   3.918   3.762 -2.1118 -0.3374 -0.5867
   49MOL   H12626142   4.647   3.960   3.705 -0.4469  0.7671  0.3755
   49MOL   H12726143   4.629   3.860   3.559 -0.5248 -0.7886  0.5577
   49MOL   H12826144   4.472   4.104   3.622  0.1944  2.7931 -2.7277
   49MOL   H12926145   4.469   4.028   3.472  0.1681 -1.9302 -0.3911
   49MOL   H13026146   4.603   4.225   3.448  0.5005  1.8921  0.3772
   49MOL   H13126147   4.700   4.182   3.590  0.4309 -1.4127  0.0819
   49MOL   H13226148   4.919   3.855   3.535  0.8134  3.2668  0.0911
   49MOL   H13326149   4.802   3.808   3.407 -0.4059  0.7049  1.1977
   49MOL   H13426150   4.959   3.746   3.408 -0.9469 -0.4167  0.8560
   49MOL   H13526151   4.974   3.857   3.162  0.9176  1.1416 -1.5648
   49MOL   H13626152   4.813   3.875   3.194  1.2025 -1.7388  0.2177
   49MOL   C13726153   4.315   3.738   3.009 -0.1056  0.1002  0.1241
   49MOL   C13826154   4.280   3.824   3.136 -0.3068 -0.2389 -0.0058
   49MOL   C13926155   4.397   3.914   3.184 -0.2372  0.1530  0.2573
   49MOL   C14026156   4.408   4.057   3.122  0.1081 -0.4609  0.1097
   49MOL   C14126157   4.532   4.131   3.165 -0.6496  0.3209 -0.7830
   49MOL   O14226158   4.648   4.070   3.116 -0.1742  0.1469  0.8910
   49MOL   C14326159   4.762   4.138   3.108 -0.1595  0.0687  0.2925
   49MOL   O14426160   4.772   4.261   3.118 -0.2386 -0.0578  0.6455
   49MOL   C14526161   4.891   4.047   3.086 -0.0440 -0.6522  0.2882
   49MOL   C14626162   5.015   4.141   3.083 -0.1213 -0.8988 -0.5023
   49MOL   C14726163   4.887   3.992   2.938 -0.1714  0.6297  0.0669
   49MOL   H14826164   4.409   3.686   3.028  0.1106 -0.6718 -2.8135
   49MOL   H14926165   4.325   3.809   2.926 -0.1275 -1.5859 -1.3525
   49MOL   H15026166   4.231   3.676   2.978 -0.6966  0.0102  1.8675
   49MOL   H15126167   4.263   3.743   3.207  1.5187 -1.8301 -1.3170
   49MOL   H15226168   4.189   3.878   3.110  0.4035  0.3947 -1.2097
   49MOL   H15326169   4.396   3.936   3.290  0.2270  0.3653  0.2228
   49MOL   H15426170   4.495   3.865   3.180 -0.6103 -0.8425  2.9498
   49MOL   H15526171   4.399   4.035   3.015 -1.8166 -0.3706  0.2341
   49MOL   H15626172   4.315   4.110   3.141 -1.2915 -2.2953 -1.3631
   49MOL   H15726173   4.523   4.132   3.273 -0.9405  0.7258 -0.8090
   49MOL   H15826174   4.536   4.234   3.130 -1.1187  0.1624 -1.3127
   49MOL   H15926175   5.015   4.208   3.169  3.9986  0.5271 -1.4915
   49MOL   H16026176   5.008   4.207   2.997  1.6619 -0.8339 -0.6198
   49MOL   H16126177   5.116   4.103   3.069 -0.6475 -2.2552 -0.6206
   49MOL   H16226178   4.849   4.068   2.870  3.3007  2.2472 -0.1680
   49MOL   H16326179   4.993   3.992   2.910  0.1151  0.6135  1.1079
   49MOL   C16426180   4.246   3.799   2.494  0.2119 -0.1921 -0.2172
   49MOL   C16526181   4.380   3.856   2.435  0.1692  0.2881 -0.0471
   49MOL   C16626182   4.501   3.781   2.497 -0.5491  0.1388  0.2428
   49MOL   C16726183   4.645   3.832   2.457  0.4066 -0.4267 -0.3481
   49MOL   C16826184   4.771   3.766   2.518 -1.1410 -0.1149  0.4695
   49MOL   O16926185   4.764   3.766   2.662  0.1091 -0.5570  0.2202
   49MOL   C17026186   4.830   3.869   2.726  0.1903  0.2070 -0.3516
   49MOL   O17126187   4.884   3.966   2.665  0.0231 -0.2015  0.3651
   49MOL   C17226188   4.826   3.857   2.884  0.4370 -0.3097  0.6673
   49MOL   C17326189   4.675   3.858   2.915  0.1365 -0.3288 -0.0811
   49MOL   C17426190   4.876   3.718   2.936 -0.0190 -0.7231  0.6215
   49MOL   H17526191   4.243   3.825   2.599  1.8118  2.4150 -0.7457
   49MOL   H17626192   4.236   3.691   2.482 -0.8212  0.0412 -1.6720
   49MOL   H17726193   4.161   3.852   2.451 -0.6545 -0.8533  0.6630
   49MOL   H17826194   4.387   3.961   2.464  2.1730 -0.3792  2.0976
   49MOL   H17926195   4.369   3.852   2.327 -0.1921  1.2069 -0.0503
   49MOL   H18026196   4.491   3.767   2.605  3.3619  1.1623  0.8131
   49MOL   H18126197   4.503   3.678   2.463  1.8120  0.3097 -0.2727
   49MOL   H18226198   4.650   3.941   2.463 -2.4267 -0.0906 -2.8518
   49MOL   H18326199   4.638   3.810   2.351  0.9627 -0.1814 -0.4354
   49MOL   H18426200   4.864   3.814   2.489 -0.2485 -2.2344 -0.2327
   49MOL   H18526201   4.788   3.663   2.489  1.7224  0.8542 -1.5450
   49MOL   H18626202   4.635   3.955   2.887 -0.9726 -0.9972 -0.8765
   49MOL   H18726203   4.655   3.836   3.020  0.4279  0.2421  0.0932
   49MOL   H18826204   4.619   3.780   2.862  0.7818 -1.6201  1.1108
   49MOL   H18926205   4.853   3.716   3.043 -2.9189 -1.6656  0.0026
   49MOL   H19026206   4.803   3.646   2.899  0.1830 -1.3845  1.4738
   49MOL   C19126207   5.592   3.727   2.481 -0.1682 -0.8774  0.1913
   49MOL   C19226208   5.555   3.728   2.631  0.2781  0.9348  0.0179
   49MOL   C19326209   5.450   3.824   2.662  0.0932  0.1533  0.0553
   49MOL   C19426210   5.410   3.843   2.809  0.2284  0.4384 -0.6366
   49MOL   C19526211   5.280   3.914   2.830 -0.1434  0.7252 -0.0089
   49MOL   O19626212   5.169   3.820   2.819 -0.4986  0.4539  0.4572
   49MOL   C19726213   5.134   3.756   2.930 -0.2101  1.0735  0.0269
   49MOL   O19826214   5.198   3.776   3.038 -0.0401  0.4234 -0.2182
   49MOL   C19926215   5.018   3.649   2.909 -0.1977  0.5833  0.0882
   49MOL   C20026216   5.009   3.591   2.766  0.5280  0.5301  0.0420
   49MOL   C20126217   5.031   3.545   3.018  0.6372  1.1465  0.4122
   49MOL   H20226218   5.502   3.741   2.421 -0.0109 -0.3671  0.0692
   49MOL   H20326219   5.651   3.816   2.459 -0.7499 -1.1734 -2.7817
   49MOL   H20426220   5.647   3.637   2.456  1.9525  0.5640 -0.5081
   49MOL   H20526221   5.637   3.737   2.703  0.0584 -0.0489  0.4108
   49MOL   H20626222   5.528   3.624   2.650 -0.1460  1.3610  1.8276
   49MOL   H20726223   5.368   3.774   2.609 -0.6088  1.0182  0.3179
   49MOL   H20826224   5.472   3.921   2.618  1.8961 -0.2125  0.1293
   49MOL   H20926225   5.413   3.752   2.868  2.3890  1.7538  1.3486
   49MOL   H21026226   5.486   3.904   2.858 -0.5205 -0.7839  2.1207
   49MOL   H21126227   5.272   3.965   2.925  0.2157  0.1303  0.3499
   49MOL   H21226228   5.256   3.990   2.756  0.9806  1.6447  0.5551
   49MOL   H21326229   4.930   3.517   2.756  0.9188 -0.3492  2.9963
   49MOL   H21426230   5.106   3.552   2.733 -0.5040 -0.5960 -1.7443
   49MOL   H21526231   4.991   3.671   2.694 -0.8015 -0.0363 -0.2625
   49MOL   H21626232   4.937   3.488   3.015  3.1300 -3.2273  1.0139
   49MOL   H21726233   5.037   3.589   3.118  1.6658 -0.6372  1.1722
   49MOL   C21826234   4.756   2.908   3.237 -0.1672 -0.7921  0.4941
   49MOL   C21926235   4.773   3.027   3.335 -0.0376  1.1946 -0.0738
   49MOL   C22026236   4.905   3.100   3.310 -0.2130 -0.1638  0.3070
   49MOL   C22126237   4.919   3.227   3.399 -0.1304 -0.1451  0.3700
   49MOL   C22226238   5.043   3.306   3.360  0.5856  0.6651 -0.1825
   49MOL   O22326239   5.044   3.329   3.222 -0.0812 -0.3514 -0.5799
   49MOL   C22426240   5.155   3.381   3.172 -0.1220 -0.0642  0.3103
   49MOL   O22526241   5.257   3.412   3.236  0.3914 -0.0060 -0.0370
   49MOL   C22626242   5.135   3.414   3.015 -0.1308 -0.2957  0.0960
   49MOL   C22726243   5.270   3.457   2.951  0.4281 -0.0861 -0.2658
   49MOL   C22826244   5.061   3.301   2.932 -0.7850 -0.1502 -0.4691
   49MOL   H22926245   4.835   2.833   3.247  0.0270 -0.6081  0.3436
   49MOL   H23026246   4.660   2.860   3.257 -0.7123  0.6395  1.3466
   49MOL   H23126247   4.753   2.951   3.137 -2.4395  1.7216  1.6043
   49MOL   H23226248   4.767   2.986   3.435 -0.6014  1.4646  0.0065
   49MOL   H23326249   4.687   3.094   3.331  0.3426  1.6934  0.1007
   49MOL   H23426250   4.907   3.131   3.205 -0.6361  0.3563  0.4517
   49MOL   H23526251   4.991   3.033   3.322  0.5763  0.6854 -0.4958
   49MOL   H23626252   4.826   3.285   3.394  0.4435  0.8858  1.4779
   49MOL   H23726253   4.930   3.198   3.503 -0.8189 -0.9434  0.2255
   49MOL   H23826254   5.136   3.254   3.383  0.3700 -0.1309 -1.0927
   49MOL   H23926255   5.047   3.400   3.415  0.5899 -0.0005  0.9686
   49MOL   H24026256   5.343   3.376   2.953  2.8213  1.9695 -1.7408
   49MOL   H24126257   5.311   3.541   3.007 -1.8557  1.0423 -0.2259
   49MOL   H24226258   5.263   3.489   2.848  0.8294 -0.1438 -0.3092
   49MOL   H24326259   5.009   3.340   2.844  1.8461  1.8770 -1.2068
   49MOL   H24426260   4.978   3.268   2.995 -2.0584 -2.0685 -3.0588
   49MOL   C24526261   5.960   3.015   3.149  0.3316 -0.2486 -0.1924
   49MOL   C24626262   5.854   3.088   3.068 -0.0039  0.6452 -0.4463
   49MOL   C24726263   5.705   3.050   3.101 -0.7136  0.0825  0.5904
   49MOL   C24826264   5.600   3.127   3.026  0.2428  0.2579  0.4612
   49MOL   C24926265   5.462   3.089   3.083 -0.2379 -0.1613 -0.1456
   49MOL   O25026266   5.367   3.140   2.989 -0.5310 -0.7898 -0.2603
   49MOL   C25126267   5.231   3.110   3.003 -0.2679  0.4718 -0.1611
   49MOL   O25226268   5.199   3.049   3.107  0.3498 -0.6719  0.0528
   49MOL   C25326269   5.129   3.162   2.894  0.2764  0.2313 -0.8833
   49MOL   C25426270   5.196   3.183   2.754  0.1650 -0.3038  0.4365
   49MOL   C25526271   5.009   3.056   2.879  0.4958  0.3021 -0.4454
   49MOL   H25626272   5.964   3.029   3.257 -0.1616 -0.9995 -0.0798
   49MOL   H25726273   5.956   2.907   3.139  1.3304 -0.3515  0.4361
   49MOL   H25826274   6.057   3.045   3.107  0.5429 -0.2872  0.2691
   49MOL   H25926275   5.878   3.194   3.080  0.6482  0.5145 -0.5388
   49MOL   H26026276   5.867   3.069   2.962 -1.8704 -0.8813 -0.4092
   49MOL   H26126277   5.687   3.066   3.207  0.7662  0.1461  0.8558
   49MOL   H26226278   5.696   2.944   3.079  2.9676  0.0021 -0.9712
   49MOL   H26326279   5.601   3.236   3.033 -1.3744  0.2433  1.1644
   49MOL   H26426280   5.617   3.106   2.920  1.3518  1.5543  0.3716
   49MOL   H26526281   5.460   2.980   3.090  1.5462 -0.1145  1.3947
   49MOL   H26626282   5.453   3.140   3.179  0.8213  0.3674 -0.3249
   49MOL   H26726283   5.124   3.205   2.675 -0.2395 -2.3445  0.1921
   49MOL   H26826284   5.264   3.267   2.755  1.2183 -1.0947 -1.4010
   49MOL   H26926285   5.250   3.093   2.723 -1.7696 -1.3436 -0.0699
   49MOL   H27026286   4.973   3.034   2.980  0.7252 -1.3693 -0.7177
   49MOL   H27126287   4.922   3.110   2.840  0.0317  0.5046  0.8361
   49MOL   C27226288   4.630   3.317   2.448 -0.5315  0.6377  0.2367
   49MOL   C27326289   4.759   3.369   2.391  0.4114  0.1690  0.5402
   49MOL   C27426290   4.888   3.308   2.449  0.2761  0.8694 -0.0422
   49MOL   C27526291   4.919   3.167   2.389  0.5115  0.1707  0.1605
   49MOL   C27626292   5.019   3.072   2.462 -0.0202 -0.6295 -0.2620
   49MOL   O27726293   4.974   3.031   2.594 -0.2106 -0.4654  0.1982
   49MOL   C27826294   5.045   2.929   2.655 -0.5023 -0.0995 -0.0667
   49MOL   O27926295   5.118   2.848   2.602 -0.5060  0.1234  0.5483
   49MOL   C28026296   5.022   2.921   2.807 -0.7224  0.0603  0.0338
   49MOL   C28126297   5.133   2.835   2.880  0.2088 -0.3893 -0.6045
   49MOL   C28226298   4.889   2.844   2.835  1.1532 -0.1683  0.2922
   49MOL   H28326299   4.536   3.351   2.406 -2.5257 -0.5234  3.5548
   49MOL   H28426300   4.622   3.208   2.446 -0.4860  0.6532 -1.1492
   49MOL   H28526301   4.630   3.325   2.557 -0.6953  0.8311  0.2211
   49MOL   H28626302   4.755   3.363   2.282  2.3230  1.1288  0.4021
   49MOL   H28726303   4.754   3.476   2.406 -2.7397  0.3911 -1.5290
   49MOL   H28826304   4.977   3.367   2.427  0.3179  0.4151 -1.0924
   49MOL   H28926305   4.882   3.293   2.557 -0.9507  1.2372 -0.0469
   49MOL   H29026306   4.828   3.106   2.384  0.1060  0.3216  4.0881
   49MOL   H29126307   4.947   3.181   2.285 -2.2380 -0.5861 -0.7449
   49MOL   H29226308   5.113   3.128   2.465  0.7842 -2.0162  1.2178
   49MOL   H29326309   5.034   2.978   2.410 -1.6076 -0.4611 -1.0568
   49MOL   H29426310   5.112   2.835   2.987  2.0714  2.5644 -0.2009
   49MOL   H29526311   5.144   2.738   2.832 -0.5622 -0.9224  0.2754
   49MOL   H29626312   5.232   2.875   2.859  1.3983 -2.5243  0.8464
   49MOL   H29726313   4.912   2.738   2.832 -1.2542 -0.7454  1.0662
   49MOL   H29826314   4.863   2.874   2.936  2.4237  0.1201  0.5487
   49MOL   C29926315   4.621   3.562   3.207  0.0693 -0.2741 -0.0377
   49MOL   C30026316   4.677   3.422   3.164  0.2046  0.0214  0.4614
   49MOL   C30126317   4.651   3.373   3.021  0.4930  0.2104 -0.6047
   49MOL   C30226318   4.681   3.224   3.005  0.1817 -0.3311 -0.2670
   49MOL   C30326319   4.664   3.185   2.855  0.0883 -0.2003  0.6274
   49MOL   O30426320   4.695   3.051   2.853  0.2375 -0.2279 -0.3050
   49MOL   C30526321   4.695   2.980   2.741 -0.4428 -0.2989  0.4552
   49MOL   O30626322   4.662   3.029   2.633 -0.8360 -0.2034  0.2560
   49MOL   C30726323   4.751   2.838   2.755  0.1133  0.0957 -0.8677
   49MOL   C30826324   4.761   2.771   2.616  0.4902  0.1015  0.0423
   49MOL   C30926325   4.656   2.753   2.855  0.1502  0.2960  0.0859
   49MOL   H31026326   4.517   3.567   3.174 -0.0843  1.9773  0.7015
   49MOL   H31126327   4.670   3.649   3.164 -0.0543  0.4446  1.2557
   49MOL   H31226328   4.619   3.566   3.316  0.4473 -1.6864  0.0360
   49MOL   H31326329   4.656   3.347   3.240 -0.6542  0.7205  0.9221
   49MOL   H31426330   4.786   3.429   3.165  0.2827 -1.2656  1.8081
   49MOL   H31526331   4.708   3.443   2.960  0.9398 -0.1228 -0.5735
   49MOL   H31626332   4.547   3.393   2.996  0.3877  0.6496  0.1845
   49MOL   H31726333   4.623   3.155   3.066  0.0274 -1.2451 -1.4206
   49MOL   H31826334   4.783   3.212   3.042  0.4217  0.8928 -0.5052
   49MOL   H31926335   4.567   3.196   2.808 -0.4132 -0.8705  1.4926
   49MOL   H32026336   4.738   3.229   2.788 -0.4839  0.5080  0.4609
   49MOL   H32126337   4.786   2.665   2.620  0.9060  0.1613 -0.7502
   49MOL   H32226338   4.675   2.793   2.553  0.4130  0.7203  0.3583
   49MOL   H32326339   4.830   2.820   2.547 -1.3443  0.1613 -1.8002
   49MOL   H32426340   4.666   2.781   2.960 -0.3779  2.6928 -0.4908
   49MOL   H32526341   4.693   2.650   2.863  3.6708  1.4208 -1.0324
   49MOL   C32626342   4.192   3.200   2.342 -0.3593 -0.6898 -0.5055
   49MOL   C32726343   4.311   3.114   2.365 -1.1354  0.0704  1.1000
   49MOL   C32826344   4.352   3.094   2.509 -0.1106 -0.0970  0.4585
   49MOL   C32926345   4.244   3.062   2.608  0.2848  0.6241  0.5598
   49MOL   C33026346   4.305   3.037   2.752  0.9854 -0.4402  0.2464
   49MOL   O33126347   4.385   2.921   2.745  0.6521  0.0375 -0.5222
   49MOL   C33226348   4.433   2.870   2.861  0.7008 -0.7326 -0.2136
   49MOL   O33326349   4.431   2.928   2.972 -0.9142  0.7893  0.6252
   49MOL   C33426350   4.501   2.736   2.839  0.0247 -0.0475  0.0396
   49MOL   C33526351   4.457   2.672   2.706 -0.1727 -0.1198 -0.1807
   49MOL   C33626352   4.450   2.634   2.957 -0.2374  0.0235  0.6038
   49MOL   H33726353   4.191   3.224   2.235  1.4560  1.0977 -0.1536
   49MOL   H33826354   4.210   3.298   2.387 -0.6732 -0.6094 -0.5481
   49MOL   H33926355   4.099   3.156   2.379  0.0243  0.1910  1.5461
   49MOL   H34026356   4.398   3.150   2.310  0.5192 -2.7000  1.8367
   49MOL   H34126357   4.298   3.014   2.326  1.9081 -0.0255  0.1857
   49MOL   H34226358   4.396   3.188   2.545  1.7614 -0.7685  0.0075
   49MOL   H34326359   4.434   3.023   2.520  0.7373  0.7583 -0.0981
   49MOL   H34426360   4.186   2.981   2.564  3.6362 -1.4869 -0.1839
   49MOL   H34526361   4.182   3.148   2.632 -1.6040 -0.4078 -0.4756
   49MOL   H34626362   4.224   3.019   2.823  0.3379  0.1919 -0.3162
   49MOL   H34726363   4.349   3.130   2.788  0.4822 -0.4020  0.7680
   49MOL   H34826364   4.348   2.668   2.710 -0.1341  0.3821  3.0593
   49MOL   H34926365   4.503   2.577   2.679 -0.1369  0.0216 -0.6215
   49MOL   H35026366   4.481   2.739   2.623  0.5266 -0.7348 -0.4791
   49MOL   H35126367   4.500   2.661   3.050  2.6327  0.4791 -1.0210
   49MOL   H35226368   4.504   2.545   2.926 -1.9485 -0.3792 -1.3420
   49MOL   C35326369   4.413   1.862   2.521 -0.7251 -0.9015 -0.0599
   49MOL   C35426370   4.433   1.953   2.639  0.1822 -0.1389  0.3537
   49MOL   C35526371   4.325   2.062   2.662 -0.2128 -0.1476  0.5149
   49MOL   C35626372   4.362   2.177   2.763  0.2175 -0.4550 -0.8878
   49MOL   C35726373   4.271   2.293   2.763  0.5747  0.1884 -0.4077
   49MOL   O35826374   4.310   2.379   2.870 -0.0891  0.0493 -0.2357
   49MOL   C35926375   4.243   2.490   2.892  0.0954  0.3459 -0.3077
   49MOL   O36026376   4.141   2.518   2.832 -0.4682  0.2696 -0.6402
   49MOL   C36126377   4.302   2.586   2.997 -0.2435 -0.6956 -0.7567
   49MOL   C36226378   4.202   2.705   3.014  0.2258 -0.5508 -0.1495
   49MOL   C36326379   4.317   2.508   3.134 -0.6667 -0.9251  0.1328
   49MOL   H36426380   4.316   1.816   2.502  0.8273 -3.2480 -2.8546
   49MOL   H36526381   4.478   1.781   2.555  0.2451 -0.2897 -0.4397
   49MOL   H36626382   4.457   1.901   2.429  1.0921 -3.6298 -0.4089
   49MOL   H36726383   4.437   1.898   2.732  2.2045 -0.7663 -0.0933
   49MOL   H36826384   4.527   2.007   2.632  0.6992 -1.1817 -1.0507
   49MOL   H36926385   4.224   2.025   2.680  0.0348 -1.4290 -0.6665
   49MOL   H37026386   4.314   2.120   2.570  0.3613  0.0821  0.5955
   49MOL   H37126387   4.459   2.223   2.740 -0.5112  1.9007  0.5347
   49MOL   H37226388   4.362   2.121   2.857 -0.5299  3.5696  1.6389
   49MOL   H37326389   4.271   2.335   2.662  0.7780 -1.4856 -1.1058
   49MOL   H37426390   4.171   2.250   2.772  0.0593  0.6418 -3.2891
   49MOL   H37526391   4.102   2.685   3.052 -0.2584  2.9474  0.5957
   49MOL   H37626392   4.252   2.780   3.075  0.3424 -1.3539  0.7590
   49MOL   H37726393   4.186   2.751   2.916  0.0186  1.6866  0.9101
   49MOL   H37826394   4.340   2.405   3.107 -0.6125 -0.7297 -0.5776
   49MOL   H37926395   4.410   2.533   3.184  0.3189 -0.3685 -1.8950
   49MOL   C38026396   4.385   3.276   3.449 -0.0334  0.5384  0.4720
   49MOL   C38126397   4.416   3.132   3.414 -0.2479  0.6703  0.3115
   49MOL   C38226398   4.313   3.036   3.457  0.2681 -0.7529 -0.6210
   49MOL   C38326399   4.349   2.902   3.403  0.5397  0.6685  0.0033
   49MOL   C38426400   4.233   2.797   3.423 -0.0717 -0.2437  0.0757
   49MOL   O38526401   4.245   2.679   3.351  0.0574  0.2738  0.6219
   49MOL   C38626402   4.147   2.607   3.311  0.2265 -0.1402 -0.4111
   49MOL   O38726403   4.028   2.637   3.322 -0.8977  0.2969 -0.0450
   49MOL   C38826404   4.203   2.480   3.240  0.5246  0.4034 -0.0139
   49MOL   C38926405   4.087   2.409   3.166  0.0638  0.4589  0.0839
   49MOL   C39026406   4.268   2.377   3.342 -0.5175  0.0506 -0.6206
   49MOL   H39126407   4.291   3.277   3.505 -0.5689  0.3086 -0.4013
   49MOL   H39226408   4.466   3.312   3.512  1.3295 -1.5338 -0.0410
   49MOL   H39326409   4.367   3.344   3.366 -0.4223  0.7820  0.7539
   49MOL   H39426410   4.511   3.098   3.457 -0.1413  0.8995  0.2572
   49MOL   H39526411   4.439   3.122   3.308 -2.0529  1.4870 -0.1775
   49MOL   H39626412   4.319   3.038   3.565  1.3848 -1.5439 -0.6633
   49MOL   H39726413   4.217   3.072   3.421  1.1977 -0.3485 -2.7702
   49MOL   H39826414   4.359   2.900   3.294 -2.1653  0.1017 -0.2817
   49MOL   H39926415   4.439   2.857   3.446  1.2941  1.9524 -0.2210
   49MOL   H40026416   4.138   2.849   3.410  0.8629  1.9239  1.3926
   49MOL   H40126417   4.230   2.759   3.525  0.5644  0.4225  0.3501
   49MOL   H40226418   4.112   2.331   3.093 -0.7115  2.2677 -2.1863
   49MOL   H40326419   4.030   2.487   3.116 -0.9475 -0.1651  0.2389
   49MOL   H40426420   4.014   2.356   3.228 -0.2992  0.3573 -0.4250
   49MOL   H40526421   4.345   2.440   3.386 -0.0618  0.7556 -2.3946
   49MOL   H40626422   4.321   2.303   3.282  0.1928 -0.0887  0.1702
   49MOL   C40726423   4.541   2.161   3.060  0.6691  0.1043  0.1374
   49MOL   C40826424   4.502   2.008   3.059 -0.0852 -0.5195 -0.0633
   49MOL   C40926425   4.408   1.983   3.182 -0.6027 -0.3126  0.0001
   49MOL   C41026426   4.259   2.003   3.154  0.1028 -0.3875 -0.7112
   49MOL   C41126427   4.160   1.982   3.268  0.2939 -0.0988 -0.0570
   49MOL   O41226428   4.203   2.081   3.363 -0.1098  0.4210  0.0257
   49MOL   C41326429   4.117   2.180   3.403 -0.2938 -0.6873 -0.1478
   49MOL   O41426430   3.998   2.176   3.395 -0.5015 -0.3946 -0.2866
   49MOL   C41526431   4.191   2.309   3.460  0.9223  0.4376  0.1507
   49MOL   C41626432   4.298   2.255   3.553 -0.0182 -0.5712  0.0447
   49MOL   C41726433   4.101   2.411   3.546 -0.1988 -0.1117  0.7771
   49MOL   H41826434   4.601   2.185   3.148 -1.5769  1.0503  1.4420
   49MOL   H41926435   4.591   2.190   2.968  1.6471 -1.5611  0.1264
   49MOL   H42026436   4.445   2.210   3.073  0.0043 -0.6254 -1.8603
   49MOL   H42126437   4.592   1.948   3.073  0.6737  1.2352  2.7420
   49MOL   H42226438   4.466   1.980   2.959  1.0956  1.4735 -1.0762
   49MOL   H42326439   4.422   1.876   3.197  1.1201 -0.0564  0.3200
   49MOL   H42426440   4.441   2.044   3.266  1.7181  0.3327 -1.3248
   49MOL   H42526441   4.235   1.925   3.082  1.9738 -0.7901 -0.9188
   49MOL   H42626442   4.235   2.099   3.107  1.4239  0.9500  1.2859
   49MOL   H42726443   4.056   1.976   3.234  0.3994 -0.3674 -0.3255
   49MOL   H42826444   4.177   1.884   3.311  1.0638  0.2101  0.3504
   49MOL   H42926445   4.259   2.165   3.601  0.3147 -1.3615 -1.1402
   49MOL   H43026446   4.338   2.319   3.632 -0.2441 -2.3824  1.6502
   49MOL   H43126447   4.385   2.219   3.499  0.0472 -0.9840  0.4218
   49MOL   H43226448   4.035   2.433   3.461 -2.8858 -0.0542  2.7895
   49MOL   H43326449   4.143   2.511   3.557  0.7849 -0.6208  1.7806
   49MOL   C43426450   4.541   2.550   3.531 -0.1208  0.6749 -1.0074
   49MOL   C43526451   4.444   2.600   3.638 -0.8498  0.3580 -0.8909
   49MOL   C43626452   4.480   2.557   3.785  0.0040 -0.0713 -0.0004
   49MOL   C43726453   4.379   2.589   3.894  0.1538  0.5753 -0.4358
   49MOL   C43826454   4.279   2.476   3.912  0.0618 -0.3336 -0.3561
   49MOL   O43926455   4.173   2.474   3.814 -0.1018  0.3948  0.5970
   49MOL   C44026456   4.121   2.359   3.789 -0.5795  0.2154 -0.1307
   49MOL   O44126457   4.154   2.252   3.841  0.1448 -0.3830  0.0161
   49MOL   C44226458   4.018   2.370   3.673  0.4941 -0.7874 -0.0158
   49MOL   C44326459   3.940   2.238   3.672  0.6220  0.3721 -0.0390
   49MOL   C44426460   3.926   2.493   3.713  0.9165  0.1441 -0.2150
   49MOL   H44526461   4.523   2.443   3.518 -2.2767  0.7759  0.8436
   49MOL   H44626462   4.533   2.595   3.432 -0.5654  0.4287 -1.0814
   49MOL   H44726463   4.644   2.572   3.561 -0.0374 -1.5100  0.3872
   49MOL   H44826464   4.437   2.709   3.640 -1.2827  0.3053  0.7454
   49MOL   H44926465   4.343   2.565   3.618 -0.9916  1.3743 -2.0433
   49MOL   H45026466   4.508   2.452   3.792 -2.0926 -0.5461  1.5930
   49MOL   H45126467   4.568   2.611   3.819  0.2112  1.5731 -2.8808
   49MOL   H45226468   4.333   2.686   3.877  0.6880  0.7457 -0.9162
   49MOL   H45326469   4.432   2.603   3.988  0.8615  1.0983 -0.9123
   49MOL   H45426470   4.237   2.501   4.009  0.0655 -0.4271 -0.3308
   49MOL   H45526471   4.326   2.378   3.923 -0.8077 -0.7837 -0.5230
   49MOL   H45626472   3.899   2.209   3.768 -0.3672  0.5798 -0.4010
   49MOL   H45726473   3.863   2.225   3.597  1.9635  0.6242 -1.4863
   49MOL   H45826474   4.013   2.161   3.645  0.5427  0.7968 -1.4896
   49MOL   H45926475   3.976   2.587   3.688 -3.1896  1.7938 -2.6362
   49MOL   H46026476   3.917   2.483   3.822  2.1703  1.6995  0.0587
   49MOL   C46126477   3.054   2.412   3.471  0.0892 -0.5837  0.8604
   49MOL   C46226478   3.140   2.512   3.545 -0.1107 -0.1454  0.1495
   49MOL   C46326479   3.293   2.462   3.545  0.4527 -0.3596 -0.1511
   49MOL   C46426480   3.321   2.366   3.659 -0.0340 -0.2525  0.0419
   49MOL   C46526481   3.461   2.299   3.657 -0.1207 -0.0622  0.2089
   49MOL   O46626482   3.561   2.405   3.634  0.1607 -0.8077  0.2920
   49MOL   C46726483   3.679   2.402   3.698  0.3137 -0.0616  0.2406
   49MOL   O46826484   3.710   2.330   3.793 -0.5696  0.0927  0.6434
   49MOL   C46926485   3.777   2.504   3.645  0.3033  0.5723  0.2967
   49MOL   C47026486   3.785   2.488   3.492  0.5901 -1.1435  0.6576
   49MOL   C47126487   3.717   2.643   3.668  0.3344 -0.0050 -0.2135
   49MOL   H47226488   3.091   2.415   3.368 -0.9255 -0.2585  0.4923
   49MOL   H47326489   2.948   2.439   3.476  0.4324  0.6820  1.5080
   49MOL   H47426490   3.065   2.311   3.509  0.1035 -1.7370 -2.0473
   49MOL   H47526491   3.101   2.528   3.646  0.4025  0.0525  0.3185
   49MOL   H47626492   3.146   2.608   3.495 -0.8867 -0.5741 -0.7827
   49MOL   H47726493   3.360   2.548   3.554  3.1008 -2.4608  0.7032
   49MOL   H47826494   3.317   2.423   3.446  1.3974  1.6986 -0.7579
   49MOL   H47926495   3.243   2.289   3.659  1.0566 -1.3815  0.7421
   49MOL   H48026496   3.322   2.424   3.751 -2.5440 -0.3807  0.1904
   49MOL   H48126497   3.465   2.236   3.745  0.8405 -1.5220 -0.8508
   49MOL   H48226498   3.467   2.240   3.565 -0.5050  1.7301 -1.0071
   49MOL   H48326499   3.824   2.393   3.456  1.1294 -0.3956 -0.7463
   49MOL   H48426500   3.842   2.567   3.443 -4.3191  1.2139 -1.5796
   49MOL   H48526501   3.689   2.490   3.442  0.7080 -2.1921  0.3923
   49MOL   H48626502   3.619   2.651   3.620  0.3407 -2.1367 -0.6002
   49MOL   H48726503   3.782   2.709   3.611 -1.7837  1.0670 -1.4648
   49MOL   C48826504   4.024   3.338   3.755  0.1523  0.0261 -0.0085
   49MOL   C48926505   4.084   3.200   3.720 -0.0026  0.5073  0.1209
   49MOL   C49026506   4.015   3.082   3.798 -0.6569  0.2849 -0.1198
   49MOL   C49126507   4.104   2.949   3.786  0.3302  0.0896  0.6645
   49MOL   C49226508   4.044   2.829   3.871  0.2143 -0.2401 -0.3375
   49MOL   O49326509   3.920   2.805   3.818  0.2582 -0.6749 -0.3068
   49MOL   C49426510   3.823   2.733   3.885  0.4836 -0.1246 -0.1469
   49MOL   O49526511   3.845   2.684   3.997  0.1557 -0.1560  0.8578
   49MOL   C49626512   3.691   2.714   3.809  0.1252  0.4990 -0.2399
   49MOL   C49726513   3.588   2.636   3.900  0.4217  0.3898 -0.0873
   49MOL   C49826514   3.625   2.853   3.768 -0.0355  0.2272  0.0906
   49MOL   H49926515   3.916   3.325   3.745 -0.0989  1.1800  1.1348
   49MOL   H50026516   4.035   3.359   3.862  1.4744  1.4892 -0.4126
   49MOL   H50126517   4.047   3.426   3.695  2.0559  0.0913  0.7754
   49MOL   H50226518   4.191   3.203   3.738  0.0067 -1.9461  0.7089
   49MOL   H50326519   4.088   3.170   3.615 -0.2283 -1.3182  0.6043
   49MOL   H50426520   4.009   3.112   3.903  1.0167 -2.0026  0.6690
   49MOL   H50526521   3.916   3.063   3.757 -0.6813  0.4214 -0.1247
   49MOL   H50626522   4.204   2.982   3.815 -0.3284  1.1020  1.8284
   49MOL   H50726523   4.110   2.916   3.682 -0.6856  0.0516  0.6167
   49MOL   H50826524   4.116   2.748   3.878  1.7098  1.0041 -1.0978
   49MOL   H50926525   4.024   2.854   3.975 -0.8680 -0.1019 -0.5682
   49MOL   H51026526   3.637   2.550   3.946  0.9441  0.2376 -0.9372
   49MOL   H51126527   3.493   2.592   3.869  0.5358  0.5244 -0.6236
   49MOL   H51226528   3.567   2.699   3.987 -0.0619 -0.0731  0.1425
   49MOL   H51326529   3.561   2.837   3.681 -1.2144 -0.9307  1.1642
   49MOL   H51426530   3.702   2.915   3.722  0.6793 -1.0061 -0.3727
   49MOL   C51526531   2.919   3.198   3.872 -0.1221  0.1856  0.3836
   49MOL   C51626532   2.959   3.072   3.791  0.0009  0.4585  0.1910
   49MOL   C51726533   3.080   3.003   3.856  0.1607  0.4005 -0.3509
   49MOL   C51826534   3.127   2.878   3.779  0.8811  0.1651 -0.1144
   49MOL   C51926535   3.224   2.780   3.850 -0.1608  0.4563  0.0090
   49MOL   O52026536   3.356   2.830   3.826 -0.5843 -0.2523 -0.0135
   49MOL   C52126537   3.418   2.908   3.916  0.2293 -0.0807  0.1744
   49MOL   O52226538   3.369   2.944   4.025 -0.2472 -0.5593 -0.2492
   49MOL   C52326539   3.561   2.952   3.873 -0.8342 -0.2557 -0.4802
   49MOL   C52426540   3.535   3.086   3.795 -0.1445  0.0086 -0.1724
   49MOL   C52526541   3.652   2.977   3.995  0.0464 -0.2604  0.2314
   49MOL   H52626542   2.876   3.167   3.967  0.9457  0.8619  1.0921
   49MOL   H52726543   3.010   3.253   3.896  0.5100 -0.7820  0.2259
   49MOL   H52826544   2.857   3.259   3.806  1.8519  0.7745 -0.9610
   49MOL   H52926545   2.866   3.015   3.797  0.0822  0.4085  1.1134
   49MOL   H53026546   2.972   3.092   3.685  2.2801 -1.8876 -0.0264
   49MOL   H53126547   3.162   3.073   3.871 -0.2440  0.8096 -0.0363
   49MOL   H53226548   3.049   2.979   3.957  0.8607  4.2297  0.8401
   49MOL   H53326549   3.159   2.909   3.680 -2.4636  0.9176 -1.0128
   49MOL   H53426550   3.036   2.828   3.746  1.0727 -0.1963 -0.0898
   49MOL   H53526551   3.217   2.769   3.958  0.7878 -1.6968 -0.1270
   49MOL   H53626552   3.213   2.680   3.806 -0.7531  1.0627 -1.2452
   49MOL   H53726553   3.619   3.141   3.752 -0.9655  1.0716 -0.4127
   49MOL   H53826554   3.480   3.148   3.865 -0.1548 -0.6146  0.3734
   49MOL   H53926555   3.457   3.076   3.720  0.5744 -0.1328 -0.9180
   49MOL   H54026556   3.758   2.989   3.971  0.1054  0.4183  0.8060
   49MOL   H54126557   3.658   2.895   4.067  1.6972  0.5111  1.0175
   49MOL   H54226558   3.619   3.067   4.047  0.0929 -0.5206  0.7161
   50MOL     C126559   5.713   2.217   4.121  0.1524  0.2309  0.5013
   50MOL     C226560   5.583   2.197   4.203 -0.9170  0.1366  0.4302
   50MOL     C326561   5.534   2.055   4.226  0.6822 -0.1430 -0.3263
   50MOL     C426562   5.509   1.975   4.100  0.5119  0.2398 -0.1097
   50MOL     C526563   5.448   1.830   4.108  0.1858 -0.5229  0.3864
   50MOL     O626564   5.446   1.777   3.979  0.5911 -0.6949  0.1873
   50MOL     C726565   5.365   1.674   3.946 -0.6236  0.5445  0.7404
   50MOL     O826566   5.324   1.592   4.028  0.2398 -0.0698 -0.0283
   50MOL     C926567   5.335   1.664   3.794  0.6151  0.6761 -0.3593
   50MOL    C1026568   5.232   1.773   3.762  0.7512  0.4422  0.0185
   50MOL    C1126569   5.280   1.522   3.748  0.1247  0.1263 -0.1640
   50MOL    H1226570   5.796   2.175   4.177  0.3063 -0.2666 -0.0895
   50MOL    H1326571   5.738   2.323   4.112  2.2847 -0.4095 -1.6577
   50MOL    H1426572   5.693   2.164   4.027  2.2255  2.0906 -1.0375
   50MOL    H1526573   5.598   2.236   4.304  0.2243 -3.7170  1.8444
   50MOL    H1626574   5.508   2.250   4.144  0.3005  0.8250 -0.5029
   50MOL    H1726575   5.611   2.004   4.284 -0.3057 -1.3818 -0.0682
   50MOL    H1826576   5.442   2.061   4.284  1.6456  0.2087  1.1952
   50MOL    H1926577   5.605   1.958   4.052  0.4526 -0.6597  0.0886
   50MOL    H2026578   5.456   2.030   4.022  0.7065  0.4249 -0.1113
   50MOL    H2126579   5.520   1.769   4.163  2.0256  2.0645  0.9728
   50MOL    H2226580   5.352   1.834   4.158 -0.7211 -0.4348 -1.3306
   50MOL    H2326581   5.205   1.767   3.657 -3.7906  0.6658  1.0726
   50MOL    H2426582   5.266   1.873   3.785  1.0857  0.2535  0.3530
   50MOL    H2526583   5.140   1.769   3.821 -1.0911  1.2171 -2.7431
   50MOL    H2626584   5.231   1.541   3.652 -0.2066 -1.1672 -0.2555
   50MOL    H2726585   5.205   1.486   3.818 -0.4907  1.2346 -0.2467
   50MOL    H2826586   5.427   1.687   3.741 -0.2863  0.6080 -1.9804
   50MOL    C2926587   5.489   0.964   3.223  0.4226  0.8894  0.5105
   50MOL    C3026588   5.596   1.067   3.271 -0.6861 -0.0898  0.1288
   50MOL    C3126589   5.525   1.192   3.322 -0.6881 -0.3759 -0.0531
   50MOL    C3226590   5.625   1.289   3.397 -0.4947 -0.5889 -0.2709
   50MOL    C3326591   5.571   1.426   3.424 -0.5657 -0.0860 -0.3832
   50MOL    O3426592   5.475   1.417   3.523 -0.2894  0.1648 -0.0162
   50MOL    C3526593   5.506   1.434   3.655  0.1579  0.6472  0.7778
   50MOL    O3626594   5.617   1.467   3.703  0.3067  0.2734  0.1343
   50MOL    C3726595   5.372   1.397   3.735 -0.2763 -0.3580  0.3352
   50MOL    C3826596   5.287   1.290   3.649  0.0172  0.4445  0.1617
   50MOL    C3926597   5.418   1.339   3.875  0.1003 -0.2313 -0.2565
   50MOL    H4026598   5.530   0.876   3.174 -0.4777  0.1790  1.0082
   50MOL    H4126599   5.436   0.933   3.314 -0.5889 -2.3614 -1.0985
   50MOL    H4226600   5.416   1.001   3.151 -1.8915 -1.3953  1.5660
   50MOL    H4326601   5.666   1.100   3.195  0.2885  0.2719  1.1684
   50MOL    H4426602   5.655   1.022   3.351  0.6919  1.6628  0.1398
   50MOL    H4526603   5.453   1.157   3.396  0.5876  0.2755  1.5132
   50MOL    H4626604   5.464   1.243   3.249 -0.7502 -0.3296  0.0315
   50MOL    H4726605   5.657   1.247   3.492  2.5892  0.3602 -0.8320
   50MOL    H4826606   5.716   1.297   3.337  1.0862 -0.7959  2.0221
   50MOL    H4926607   5.513   1.460   3.338 -2.7583  0.6335  1.3260
   50MOL    H5026608   5.648   1.494   3.460 -2.1846  1.9496 -0.6551
   50MOL    H5126609   5.361   1.214   3.626 -2.9989 -2.2273 -1.0335
   50MOL    H5226610   5.240   1.328   3.558  2.1413  1.3309 -0.6017
   50MOL    H5326611   5.215   1.235   3.709  0.3978 -0.1550  0.0684
   50MOL    H5426612   5.333   1.352   3.942  1.3566 -0.1500  1.3542
   50MOL    H5526613   5.479   1.410   3.931 -0.4327  0.9683 -1.1641
   50MOL    C5626614   4.861   1.442   3.886 -0.3676  0.6979  0.6665
   50MOL    C5726615   4.884   1.325   3.982  0.4100  0.9665  0.6207
   50MOL    C5826616   4.987   1.225   3.930  0.4844 -0.4108  0.0129
   50MOL    C5926617   5.030   1.123   4.042 -0.8751 -0.2268  0.6069
   50MOL    C6026618   5.146   1.040   3.989 -0.1685  0.4253 -0.3038
   50MOL    O6126619   5.266   1.112   3.985 -0.2715  0.2444  0.3882
   50MOL    C6226620   5.362   1.095   3.890  0.9046  0.0336 -0.3220
   50MOL    O6326621   5.340   1.018   3.791 -0.0893  0.1110 -0.2360
   50MOL    C6426622   5.478   1.194   3.897  0.1689  0.5446  0.1816
   50MOL    C6526623   5.529   1.184   4.040  0.1762  0.0513  0.0944
   50MOL    C6626624   5.596   1.155   3.802  1.1229  0.2922  0.0233
   50MOL    H6726625   4.873   1.418   3.780 -0.6228  0.0147  0.7905
   50MOL    H6826626   4.940   1.516   3.894  0.0415  0.4392 -0.8737
   50MOL    H6926627   4.764   1.490   3.900 -1.1389 -0.6464  0.0055
   50MOL    H7026628   4.927   1.360   4.076  0.8372 -2.6319  1.8443
   50MOL    H7126629   4.793   1.265   3.988  1.4988 -1.1303 -2.3181
   50MOL    H7226630   4.941   1.178   3.843 -2.8197 -1.5792  2.2902
   50MOL    H7326631   5.080   1.270   3.894  0.4649 -0.2330  0.1850
   50MOL    H7426632   4.948   1.062   4.079 -3.3747  2.7734  0.1867
   50MOL    H7526633   5.066   1.175   4.131 -1.3588  0.1818  0.5662
   50MOL    H7626634   5.166   0.954   4.054 -3.2778  0.1616  0.4063
   50MOL    H7726635   5.106   0.996   3.897 -1.7322 -0.9589  1.0021
   50MOL    H7826636   5.458   1.214   4.116 -2.0626 -2.0122 -1.1427
   50MOL    H7926637   5.623   1.239   4.053 -0.1741  0.1123  2.4332
   50MOL    H8026638   5.544   1.081   4.070 -1.6471 -0.6959 -1.4424
   50MOL    H8126639   5.660   1.243   3.796  0.5677  0.6605 -0.6324
   50MOL    H8226640   5.552   1.163   3.703 -1.0221 -1.2459  0.8327
   50MOL    C8326641   6.180   1.167   4.495  0.1495 -0.2499  0.2439
   50MOL    C8426642   6.041   1.176   4.413  0.6095 -0.7135 -0.5299
   50MOL    C8526643   6.055   1.134   4.269 -0.5961 -0.5208  0.0657
   50MOL    C8626644   5.925   1.145   4.192 -0.3225 -0.2809  0.3679
   50MOL    C8726645   5.954   1.137   4.039 -0.2202  0.0437 -0.6740
   50MOL    O8826646   5.838   1.134   3.949  0.1354 -0.2004  0.1469
   50MOL    C8926647   5.775   1.017   3.926 -0.0745  0.3174 -0.5968
   50MOL    O9026648   5.782   0.916   3.996 -0.2551 -0.1880  0.1540
   50MOL    C9126649   5.686   1.021   3.796 -0.4652 -0.4601  0.4966
   50MOL    C9226650   5.607   0.890   3.788  0.4511 -0.1559 -0.4862
   50MOL    C9326651   5.776   1.036   3.673 -0.1015  0.1454  1.0360
   50MOL    H9426652   6.164   1.206   4.596  1.6171 -0.2978  0.5140
   50MOL    H9526653   6.213   1.063   4.505 -0.0297 -0.2927  0.3774
   50MOL    H9626654   6.267   1.220   4.455  2.1294 -1.5382  2.6734
   50MOL    H9726655   5.997   1.275   4.420 -1.1708 -1.5336  0.2384
   50MOL    H9826656   5.972   1.104   4.457  0.5283 -0.9380 -1.0118
   50MOL    H9926657   6.095   1.033   4.263 -0.2400 -0.3731 -0.0735
   50MOL   H10026658   6.129   1.197   4.220 -0.8957 -0.8337 -0.7857
   50MOL   H10126659   5.892   1.248   4.206 -0.4821 -0.0585 -1.5482
   50MOL   H10226660   5.848   1.074   4.221  0.4088 -1.1899  0.0941
   50MOL   H10326661   6.012   1.049   4.012  2.0168  0.7751  1.5421
   50MOL   H10426662   6.017   1.220   4.008  3.4967 -1.8924  1.3383
   50MOL   H10526663   5.549   0.879   3.696 -2.4300  0.1123  1.2314
   50MOL   H10626664   5.533   0.885   3.868  0.3051 -2.2244 -0.7181
   50MOL   H10726665   5.665   0.800   3.810  0.0825 -0.2714  0.0197
   50MOL   H10826666   5.716   1.046   3.582  2.0834 -0.0201 -0.4814
   50MOL   H10926667   5.823   1.132   3.692 -0.4432  0.5620 -0.1883
   50MOL   C11026668   5.521   0.442   3.088 -0.3796 -0.3189 -0.0590
   50MOL   C11126669   5.572   0.574   3.162  0.6024 -0.0435 -0.3449
   50MOL   C11226670   5.582   0.526   3.312  0.0266 -0.3751  0.6613
   50MOL   C11326671   5.609   0.643   3.405 -0.7329  0.0491  0.0727
   50MOL   C11426672   5.753   0.699   3.379 -0.2174  0.0696  0.2458
   50MOL   O11526673   5.775   0.811   3.464  0.3091  0.1199  0.2572
   50MOL   C11626674   5.836   0.802   3.581 -0.7415 -0.0976  0.4956
   50MOL   O11726675   5.848   0.701   3.647 -0.4650  0.3630  0.2709
   50MOL   C11826676   5.894   0.938   3.627 -1.0619 -0.1769  0.9628
   50MOL   C11926677   6.004   0.927   3.735  0.0259  0.1514  1.1856
   50MOL   C12026678   5.966   1.015   3.512  0.0487  0.1893 -0.7333
   50MOL   H12126679   5.580   0.356   3.118  0.6664  0.3193 -0.2422
   50MOL   H12226680   5.419   0.429   3.122 -0.4577 -0.2864 -0.2834
   50MOL   H12326681   5.518   0.462   2.981 -0.1847  0.3140  0.0476
   50MOL   H12426682   5.667   0.617   3.131 -0.3724  0.7435 -2.3256
   50MOL   H12526683   5.493   0.649   3.155 -0.2053 -0.6995  1.4949
   50MOL   H12626684   5.490   0.481   3.351 -0.2191 -0.4492  0.0012
   50MOL   H12726685   5.652   0.444   3.325  0.0247 -0.3941  0.5491
   50MOL   H12826686   5.615   0.609   3.508  0.5523  2.1041  0.7111
   50MOL   H12926687   5.541   0.727   3.396  0.9311  1.4086 -0.0115
   50MOL   H13026688   5.832   0.626   3.394 -0.9508 -0.6416  0.6796
   50MOL   H13126689   5.760   0.742   3.279  0.2525  0.7598  0.5698
   50MOL   H13226690   6.086   0.863   3.702 -0.6919 -0.3358  0.3054
   50MOL   H13326691   6.048   1.018   3.776  1.5222  0.1781 -0.4140
   50MOL   H13426692   5.966   0.875   3.823 -0.8887 -4.2770 -1.6636
   50MOL   H13526693   5.882   1.026   3.443  0.0703  1.8481 -0.4984
   50MOL   H13626694   5.979   1.117   3.547 -0.7736  0.5778 -1.5596
   50MOL   C13726695   6.705   0.707   3.359 -0.2328 -0.0686  0.3803
   50MOL   C13826696   6.675   0.779   3.493  0.2902 -0.1588  0.1593
   50MOL   C13926697   6.545   0.721   3.545  0.7315 -1.0207  0.4875
   50MOL   C14026698   6.486   0.782   3.671 -0.2788 -0.3982 -0.1606
   50MOL   C14126699   6.416   0.920   3.644  0.0372 -0.7457 -0.0286
   50MOL   O14226700   6.310   0.904   3.557 -0.2137 -0.2239  0.4206
   50MOL   C14326701   6.221   1.011   3.534 -0.1486  0.0001 -0.0271
   50MOL   O14426702   6.237   1.121   3.581  0.5590  0.0939  0.5786
   50MOL   C14526703   6.100   0.971   3.440  0.0984 -0.8184 -0.8346
   50MOL   C14626704   6.103   0.818   3.412 -0.0973  0.1624  0.2993
   50MOL   C14726705   6.111   1.068   3.320 -0.6995 -0.7076  0.5314
   50MOL   H14826706   6.651   0.766   3.285  0.3162 -0.7942 -0.6017
   50MOL   H14926707   6.673   0.604   3.346 -0.4514 -0.2951  2.4858
   50MOL   H15026708   6.809   0.716   3.330 -0.8252 -0.1927 -1.8802
   50MOL   H15126709   6.682   0.885   3.472  2.2240  0.1175  2.0204
   50MOL   H15226710   6.758   0.760   3.561  1.4547  0.1736 -1.1444
   50MOL   H15326711   6.468   0.729   3.468  1.1879 -0.6728  0.0703
   50MOL   H15426712   6.555   0.613   3.555  1.2587 -0.8848  1.5724
   50MOL   H15526713   6.422   0.710   3.722  0.3139 -0.7743  0.0546
   50MOL   H15626714   6.572   0.790   3.737  0.7461 -2.2203 -1.2148
   50MOL   H15726715   6.488   0.997   3.614  0.0905 -0.4167  0.9135
   50MOL   H15826716   6.377   0.953   3.741  0.5739 -2.1337  0.6707
   50MOL   H15926717   6.109   0.752   3.498 -0.1090 -0.7491 -0.3947
   50MOL   H16026718   6.179   0.783   3.342 -1.3275  0.1760 -1.0985
   50MOL   H16126719   6.009   0.796   3.360 -0.8495  0.1265  1.6602
   50MOL   H16226720   6.010   1.087   3.284 -0.3171  0.8366  0.2395
   50MOL   H16326721   6.124   1.171   3.352  1.1901 -0.8457  0.2680
   50MOL   C16426722   5.540   0.878   2.826 -0.1136  0.9954  0.6660
   50MOL   C16526723   5.662   0.810   2.762  0.2235 -0.3117  0.1846
   50MOL   C16626724   5.774   0.753   2.863 -0.1363 -0.2806  0.3392
   50MOL   C16726725   5.850   0.860   2.947 -0.2196  0.2217 -0.0852
   50MOL   C16826726   5.968   0.815   3.025  0.0838  0.1990  0.1112
   50MOL   O16926727   6.033   0.917   3.092  0.0828  0.3455  0.0213
   50MOL   C17026728   6.163   0.907   3.118 -0.2388 -1.1308 -0.2625
   50MOL   O17126729   6.228   0.810   3.101 -0.8081  0.0629  0.0484
   50MOL   C17226730   6.213   1.036   3.195 -0.2300 -0.2730 -0.3364
   50MOL   C17326731   6.361   1.016   3.231  0.6979  0.0824  0.1348
   50MOL   C17426732   6.197   1.171   3.105  0.1104 -0.2603 -0.2210
   50MOL   H17526733   5.458   0.883   2.755  1.3388 -0.5333 -1.1762
   50MOL   H17626734   5.569   0.977   2.861  3.7522 -0.2749  1.4161
   50MOL   H17726735   5.512   0.810   2.907 -0.1628  1.6452  1.2039
   50MOL   H17826736   5.701   0.874   2.683 -1.3817  0.9183  0.3716
   50MOL   H17926737   5.640   0.718   2.708 -2.4769  0.3351  0.1629
   50MOL   H18026738   5.739   0.664   2.915  1.0198 -1.5985 -1.0481
   50MOL   H18126739   5.854   0.714   2.799  0.3171  1.2715 -0.0677
   50MOL   H18226740   5.785   0.903   3.024 -0.2193 -0.3347  0.2287
   50MOL   H18326741   5.878   0.945   2.885 -1.7431 -0.0190 -1.1535
   50MOL   H18426742   6.035   0.767   2.954 -1.7701 -0.9046 -0.9365
   50MOL   H18526743   5.925   0.751   3.102 -1.4673  4.0080  2.5351
   50MOL   H18626744   6.374   0.950   3.317  2.9290 -2.9607 -2.4272
   50MOL   H18726745   6.414   1.101   3.272 -1.3103  1.5321 -0.2053
   50MOL   H18826746   6.407   0.975   3.141  1.3186 -1.2981  1.0588
   50MOL   H18926747   6.093   1.201   3.094  0.1715  1.3070  2.8719
   50MOL   H19026748   6.220   1.256   3.170 -1.1199 -1.4297  1.7784
   50MOL   C19126749   5.860   1.754   3.043 -0.2422 -0.1308  0.3209
   50MOL   C19226750   5.986   1.826   3.092  0.3463 -0.3891 -0.8618
   50MOL   C19326751   6.107   1.813   2.999 -0.3209  0.3861  0.0040
   50MOL   C19426752   6.178   1.673   3.008  0.3538  0.3657  0.6102
   50MOL   C19526753   6.157   1.566   2.906 -0.0880 -0.5020 -0.3721
   50MOL   O19626754   6.197   1.441   2.963 -0.1336 -0.5229  0.1150
   50MOL   C19726755   6.177   1.320   2.896 -0.5181 -0.4040 -0.5417
   50MOL   O19826756   6.115   1.308   2.792 -0.1100 -0.2701 -0.4208
   50MOL   C19926757   6.255   1.201   2.966 -0.6321  0.1007 -0.2044
   50MOL   C20026758   6.247   1.075   2.884  0.0381  0.2305 -0.1385
   50MOL   C20126759   6.405   1.246   2.990  0.7125  0.9897  0.4573
   50MOL   H20226760   5.866   1.647   3.065 -1.4180 -0.4837 -0.9703
   50MOL   H20326761   5.771   1.785   3.097 -1.4644 -0.4684 -1.4550
   50MOL   H20426762   5.852   1.769   2.935  0.7239  0.2527  0.2967
   50MOL   H20526763   6.014   1.819   3.197  0.0640 -0.7651 -0.8109
   50MOL   H20626764   5.951   1.929   3.081  0.5388 -0.3369 -0.9947
   50MOL   H20726765   6.181   1.892   3.011 -0.4577  0.8476 -2.0993
   50MOL   H20826766   6.076   1.810   2.895 -0.6740  1.2676  0.0795
   50MOL   H20926767   6.284   1.689   3.027  0.2251 -0.1132  1.7590
   50MOL   H21026768   6.157   1.639   3.109 -1.1634  1.6241  0.7331
   50MOL   H21126769   6.054   1.561   2.871 -0.3058  1.7735 -0.1088
   50MOL   H21226770   6.221   1.577   2.818  1.1187 -1.5157  0.3529
   50MOL   H21326771   6.152   1.023   2.872  1.1800 -1.5191 -2.0503
   50MOL   H21426772   6.323   0.999   2.902 -2.2376 -2.0334  0.3055
   50MOL   H21526773   6.262   1.102   2.779  0.4701  1.9885  0.3621
   50MOL   H21626774   6.449   1.175   3.060 -0.7852 -2.1429 -1.6775
   50MOL   H21726775   6.402   1.348   3.027 -0.7307  0.7093  1.1319
   50MOL   C21826776   6.802   0.477   2.983 -0.6431 -0.0661  0.9057
   50MOL   C21926777   6.824   0.624   3.004 -0.4052  0.1040 -0.2172
   50MOL   C22026778   6.735   0.702   2.909 -0.1083  0.3948 -0.0217
   50MOL   C22126779   6.742   0.848   2.937  0.8493 -1.2238 -0.0322
   50MOL   C22226780   6.677   0.934   2.823  0.6792  0.3607  0.6433
   50MOL   O22326781   6.648   1.065   2.872 -0.0658 -0.3167  0.3233
   50MOL   C22426782   6.555   1.135   2.814 -0.6080  0.0863  0.3801
   50MOL   O22526783   6.491   1.096   2.719  0.3975  0.5903  0.0743
   50MOL   C22626784   6.521   1.270   2.886 -0.2028  0.4547 -0.3639
   50MOL   C22726785   6.643   1.318   2.968  0.2755  0.5663  0.4777
   50MOL   C22826786   6.473   1.374   2.785 -0.3064  0.1452  0.1663
   50MOL   H22926787   6.695   0.460   2.996 -0.1332 -1.1726  4.1231
   50MOL   H23026788   6.833   0.433   2.889  1.0572  1.0882  0.8993
   50MOL   H23126789   6.845   0.419   3.063 -0.3060  0.3327  1.0161
   50MOL   H23226790   6.928   0.653   2.993  0.2728 -1.0615  2.5658
   50MOL   H23326791   6.783   0.658   3.100 -1.7682 -1.6261 -0.1679
   50MOL   H23426792   6.632   0.666   2.917  0.7592 -2.7506 -2.0364
   50MOL   H23526793   6.757   0.682   2.804 -0.1200  1.8456 -0.3140
   50MOL   H23626794   6.688   0.874   3.027 -0.8438 -2.8703 -0.5292
   50MOL   H23726795   6.840   0.889   2.958  1.5787 -2.1093 -1.6177
   50MOL   H23826796   6.585   0.877   2.807  1.2675 -0.3269 -0.3382
   50MOL   H23926797   6.741   0.930   2.735 -0.0843 -3.0236  0.1464
   50MOL   H24026798   6.656   1.256   3.056 -1.2553  0.0326  0.3414
   50MOL   H24126799   6.642   1.420   3.007  1.5286  0.1516  1.6622
   50MOL   H24226800   6.729   1.315   2.900 -0.7638  1.0846 -0.8798
   50MOL   H24326801   6.416   1.451   2.837  1.7004  1.3313  0.6447
   50MOL   H24426802   6.406   1.316   2.722  0.0236 -1.7288  1.4891
   50MOL   C24526803   6.357   2.103   2.593 -0.1443 -0.8808 -0.3763
   50MOL   C24626804   6.342   1.958   2.559  0.1676 -0.3134  0.2669
   50MOL   C24726805   6.259   1.865   2.649 -0.6731  0.7308  0.2552
   50MOL   C24826806   6.206   1.745   2.572  0.2104 -0.8608  0.0093
   50MOL   C24926807   6.317   1.648   2.509 -0.7084 -0.5076 -0.4278
   50MOL   O25026808   6.397   1.588   2.605 -0.5314 -0.3821 -0.2487
   50MOL   C25126809   6.490   1.508   2.569  0.4758  0.0237 -1.0429
   50MOL   O25226810   6.497   1.467   2.454 -0.2508  0.1289 -0.3532
   50MOL   C25326811   6.577   1.451   2.686  0.0635 -0.9062  0.2337
   50MOL   C25426812   6.677   1.351   2.625  0.0518  0.9539 -0.4454
   50MOL   C25526813   6.655   1.567   2.764 -0.0841 -0.0445 -0.5079
   50MOL   H25626814   6.418   2.155   2.519  0.8199  0.8242  1.5720
   50MOL   H25726815   6.259   2.151   2.589 -0.3598 -1.3723 -1.1737
   50MOL   H25826816   6.404   2.106   2.691 -0.7556  0.2197 -0.1148
   50MOL   H25926817   6.308   1.954   2.456  2.1204 -0.1915 -0.4039
   50MOL   H26026818   6.442   1.914   2.557 -0.1950 -1.2705  1.8829
   50MOL   H26126819   6.170   1.921   2.678  0.8468  1.6271  3.3878
   50MOL   H26226820   6.296   1.834   2.746 -0.6431 -2.0012 -0.5852
   50MOL   H26326821   6.151   1.676   2.634 -0.5240  0.2030  0.5610
   50MOL   H26426822   6.142   1.784   2.492  0.0763 -0.0597  0.4973
   50MOL   H26526823   6.269   1.566   2.455  0.9558 -2.9340  1.6502
   50MOL   H26626824   6.369   1.709   2.435  0.4284  0.8995  1.4926
   50MOL   H26726825   6.618   1.262   2.600 -1.3356  1.5319  0.7066
   50MOL   H26826826   6.721   1.393   2.534  3.0513  0.9372  0.9720
   50MOL   H26926827   6.750   1.315   2.696  1.7251  0.6059 -2.2897
   50MOL   H27026828   6.578   1.625   2.815  0.9097  0.3219  0.6179
   50MOL   H27126829   6.708   1.515   2.843  0.5936 -2.0519 -2.2398
   50MOL   C27226830   7.357   1.600   2.990 -0.2832 -0.1470  0.5130
   50MOL   C27326831   7.327   1.606   2.837 -0.5290  0.1923  0.4624
   50MOL   C27426832   7.201   1.523   2.810 -0.3275 -0.5243  0.2001
   50MOL   C27526833   7.182   1.486   2.660  0.4725  0.0448  0.3340
   50MOL   C27626834   7.047   1.422   2.622  0.2456 -0.1392 -0.9624
   50MOL   O27726835   6.936   1.492   2.677  0.2061 -0.0506 -0.4623
   50MOL   C27826836   6.866   1.588   2.606  0.3224  0.1240  0.0866
   50MOL   O27926837   6.893   1.617   2.485 -0.2062  0.7590  0.4558
   50MOL   C28026838   6.761   1.667   2.692  0.1520 -0.3104  0.9385
   50MOL   C28126839   6.690   1.767   2.597 -0.2633  0.2628 -0.2986
   50MOL   C28226840   6.848   1.742   2.801 -0.5221  0.5369 -0.2029
   50MOL   H28326841   7.269   1.638   3.041 -0.3062  1.3534 -0.6179
   50MOL   H28426842   7.381   1.497   3.016  0.2061  0.0481  0.8412
   50MOL   H28526843   7.443   1.659   3.022  0.3551 -2.4294  3.1663
   50MOL   H28626844   7.311   1.710   2.807 -1.0129 -0.1803 -0.5759
   50MOL   H28726845   7.412   1.567   2.781  0.7389 -1.2045  3.2668
   50MOL   H28826846   7.202   1.426   2.860  3.7421 -1.1615 -0.9191
   50MOL   H28926847   7.125   1.590   2.850  1.8129  1.5009  0.9732
   50MOL   H29026848   7.205   1.575   2.602  0.1985  0.2043  0.4694
   50MOL   H29126849   7.267   1.422   2.636  0.3106  0.0587 -0.2678
   50MOL   H29226850   7.042   1.320   2.661  0.3290  0.2195 -0.0114
   50MOL   H29326851   7.047   1.420   2.513 -0.8437  2.3230 -1.0533
   50MOL   H29426852   6.660   1.727   2.500 -0.8436  0.2809 -0.1338
   50MOL   H29526853   6.604   1.812   2.648  0.7572  0.5198  1.2247
   50MOL   H29626854   6.753   1.846   2.558 -1.6288  0.4439 -2.2337
   50MOL   H29726855   6.867   1.670   2.880  0.6404 -1.3912 -2.1924
   50MOL   H29826856   6.949   1.760   2.764 -0.2016 -2.8970 -1.1632
   50MOL   C29926857   6.957   1.320   3.107  0.3348 -0.3877 -0.1322
   50MOL   C30026858   6.948   1.477   3.117  0.8529  0.0547  0.5433
   50MOL   C30126859   7.015   1.537   3.242 -0.3168  0.7158  0.2294
   50MOL   C30226860   6.969   1.680   3.272 -0.1133 -0.2432 -0.2825
   50MOL   C30326861   7.001   1.799   3.179 -0.4813 -0.4891 -0.6420
   50MOL   O30426862   6.905   1.810   3.088  0.0798 -0.2185  0.6707
   50MOL   C30526863   6.917   1.894   2.988  0.5564  0.2637  0.3643
   50MOL   O30626864   7.011   1.966   2.973 -0.1717  0.1037  0.0902
   50MOL   C30726865   6.805   1.873   2.877  0.6216 -0.0352  0.9534
   50MOL   C30826866   6.817   1.989   2.776 -0.1055  0.5124 -0.8868
   50MOL   C30926867   6.657   1.870   2.927  0.0798  0.0228  0.3544
   50MOL   H31026868   6.954   1.278   3.007  1.1354 -1.0180  0.1060
   50MOL   H31126869   6.877   1.272   3.164 -0.7165  1.8350  0.3325
   50MOL   H31226870   7.043   1.282   3.163  0.3103  1.7200  1.3926
   50MOL   H31326871   6.851   1.522   3.101 -0.5084 -3.1480 -0.7411
   50MOL   H31426872   7.008   1.514   3.033 -1.3329  0.6331 -0.7992
   50MOL   H31526873   7.123   1.541   3.225 -0.0992 -2.8487  0.4871
   50MOL   H31626874   7.003   1.475   3.331  1.4914 -0.4186 -0.2977
   50MOL   H31726875   7.016   1.702   3.368  1.0768 -2.0078 -0.4331
   50MOL   H31826876   6.862   1.680   3.292 -0.4117  3.2238 -1.5555
   50MOL   H31926877   7.017   1.891   3.236  1.0291 -0.2703 -1.3685
   50MOL   H32026878   7.092   1.783   3.120  0.2593 -3.8125  1.2744
   50MOL   H32126879   6.894   1.956   2.706 -1.1327 -0.3965 -1.6005
   50MOL   H32226880   6.724   2.008   2.724  0.0355  2.0925 -0.5845
   50MOL   H32326881   6.838   2.090   2.811 -1.2372  0.5718 -0.3471
   50MOL   H32426882   6.637   1.776   2.978 -2.5031 -0.0536 -0.7541
   50MOL   H32526883   6.593   1.872   2.839 -0.6774 -0.6517  0.8778
   50MOL   C32626884   7.215   2.354   2.919 -0.0944  0.3968  0.1809
   50MOL   C32726885   7.077   2.374   2.868  0.8041 -0.7893  0.4124
   50MOL   C32826886   6.957   2.353   2.962 -0.0761 -0.1810 -0.3027
   50MOL   C32926887   6.831   2.389   2.883  0.3141  0.1408 -0.1724
   50MOL   C33026888   6.701   2.351   2.953 -0.2578 -0.8528  0.1745
   50MOL   O33126889   6.704   2.207   2.974  0.0355 -0.2457 -0.4933
   50MOL   C33226890   6.592   2.137   2.962  0.7471  0.3736  0.6222
   50MOL   O33326891   6.493   2.184   2.906  0.0391  0.5788  0.0592
   50MOL   C33426892   6.595   1.985   3.015 -0.1993 -0.2433 -0.1074
   50MOL   C33526893   6.447   1.939   3.032 -0.3204  0.7793 -0.1603
   50MOL   C33626894   6.649   1.974   3.163 -0.2251 -0.4658 -0.1674
   50MOL   H33726895   7.277   2.336   2.832 -1.3457  0.8499 -0.8101
   50MOL   H33826896   7.211   2.258   2.971 -1.2160  0.5993  0.4890
   50MOL   H33926897   7.255   2.438   2.977  2.0495 -0.2290 -0.3438
   50MOL   H34026898   7.064   2.298   2.791  1.5234 -0.6305  0.1329
   50MOL   H34126899   7.057   2.466   2.813  0.6610 -1.1184 -0.0890
   50MOL   H34226900   6.962   2.434   3.035 -2.8115  0.2503 -0.5600
   50MOL   H34326901   6.945   2.262   3.020  0.2132  1.7553  2.9354
   50MOL   H34426902   6.827   2.331   2.790 -2.7483 -0.7055  0.4328
   50MOL   H34526903   6.828   2.493   2.852 -3.5626 -0.4907 -2.1388
   50MOL   H34626904   6.615   2.374   2.891  0.9837  0.9479 -0.9076
   50MOL   H34726905   6.687   2.406   3.046  0.4168 -3.1494  1.6828
   50MOL   H34826906   6.399   1.933   2.935 -0.7257  0.4535  0.0568
   50MOL   H34926907   6.395   2.019   3.085 -0.1418  1.9753 -1.7700
   50MOL   H35026908   6.441   1.835   3.066  2.0308  0.6817  0.0580
   50MOL   H35126909   6.754   2.004   3.161 -0.9237  2.1286 -0.1844
   50MOL   H35226910   6.653   1.868   3.188  1.1659 -0.4097 -0.0955
   50MOL   C35326911   6.627   1.320   3.321 -0.1298  0.3056 -0.4695
   50MOL   C35426912   6.511   1.411   3.297 -0.0610  0.3799 -0.1617
   50MOL   C35526913   6.509   1.545   3.367  0.5946  0.1513 -0.6386
   50MOL   C35626914   6.392   1.620   3.314  0.1256 -0.5144 -0.2053
   50MOL   C35726915   6.375   1.759   3.389 -0.0856 -0.0709  0.3569
   50MOL   O35826916   6.485   1.841   3.348  0.1008  0.2693  0.2206
   50MOL   C35926917   6.465   1.971   3.337 -0.0224  0.0083  0.4875
   50MOL   O36026918   6.359   2.035   3.360  0.0607  0.0705  0.3252
   50MOL   C36126919   6.598   2.043   3.294  0.9206 -0.2634  0.3463
   50MOL   C36226920   6.575   2.196   3.271  0.2260  0.0633 -0.3845
   50MOL   C36326921   6.715   2.008   3.398  0.3724 -0.2055  0.5164
   50MOL   H36426922   6.620   1.299   3.428 -3.4711 -2.4604 -1.1729
   50MOL   H36526923   6.727   1.358   3.298  1.5740 -3.4375  0.3914
   50MOL   H36626924   6.623   1.226   3.267  1.0867 -0.5341  0.8477
   50MOL   H36726925   6.517   1.435   3.191  2.6700  0.2741 -0.0751
   50MOL   H36826926   6.423   1.355   3.327 -0.4131  1.5067  0.9689
   50MOL   H36926927   6.604   1.593   3.340  0.0230  0.5101 -2.0722
   50MOL   H37026928   6.505   1.526   3.474 -0.0791  2.2182 -0.2761
   50MOL   H37126929   6.293   1.578   3.334  0.3742 -1.0108 -0.0118
   50MOL   H37226930   6.396   1.621   3.205 -1.1847 -1.2153 -0.2762
   50MOL   H37326931   6.274   1.798   3.379 -0.6012 -1.5839 -0.4804
   50MOL   H37426932   6.386   1.742   3.496 -1.1546 -0.1295  0.4593
   50MOL   H37526933   6.670   2.235   3.235  0.0517  0.4472 -0.4282
   50MOL   H37626934   6.502   2.202   3.190  0.3273 -1.3483 -0.5979
   50MOL   H37726935   6.532   2.240   3.360  0.6623 -0.2384 -0.0250
   50MOL   H37826936   6.742   1.903   3.385 -2.5751 -0.9625  0.2004
   50MOL   H37926937   6.795   2.072   3.360  1.4844 -2.1594 -0.5811
   50MOL   C38026938   7.008   2.648   3.263  0.7695  0.1986 -0.8355
   50MOL   C38126939   6.961   2.646   3.404  0.6030  0.4355 -0.1312
   50MOL   C38226940   6.840   2.545   3.416 -0.0928  0.1178 -0.1666
   50MOL   C38326941   6.823   2.487   3.552  0.1414  0.1334 -0.3277
   50MOL   C38426942   6.699   2.394   3.561  0.0241  0.4406  0.2508
   50MOL   O38526943   6.726   2.255   3.536  0.6457 -0.1052  0.0174
   50MOL   C38626944   6.648   2.165   3.589  0.5106  0.1679  0.9481
   50MOL   O38726945   6.546   2.186   3.651 -0.4198  0.7918 -0.2728
   50MOL   C38826946   6.711   2.023   3.556  0.3266 -0.5851  0.6324
   50MOL   C38926947   6.624   1.910   3.595 -0.0284  0.5771  0.2118
   50MOL   C39026948   6.859   2.013   3.614  0.7190 -0.0274 -0.3657
   50MOL   H39126949   7.098   2.703   3.239  1.8966 -1.7632 -1.2450
   50MOL   H39226950   7.029   2.543   3.241  1.3181  0.1910 -0.2724
   50MOL   H39326951   6.923   2.680   3.203 -0.6629 -0.9229  0.5389
   50MOL   H39426952   6.928   2.746   3.434 -2.3758  0.0492 -1.9260
   50MOL   H39526953   7.035   2.612   3.477  1.0202 -1.7507 -1.5216
   50MOL   H39626954   6.745   2.588   3.384 -0.4977 -0.7523 -0.1589
   50MOL   H39726955   6.870   2.467   3.346  0.9857 -0.6597  1.1323
   50MOL   H39826956   6.916   2.433   3.573  1.6366  1.8666 -2.3994
   50MOL   H39926957   6.812   2.578   3.611  1.2966  1.9647 -2.8861
   50MOL   H40026958   6.623   2.412   3.485  2.1433 -0.1732 -2.0801
   50MOL   H40126959   6.644   2.420   3.651 -0.9671 -1.4566  0.2349
   50MOL   H40226960   6.519   1.936   3.581  0.1192 -0.3161 -2.7571
   50MOL   H40326961   6.616   1.888   3.702  0.5668 -1.2172 -0.0977
   50MOL   H40426962   6.655   1.815   3.550 -1.3399 -0.3736  1.2565
   50MOL   H40526963   6.895   2.115   3.611  1.2740 -0.1292  1.9646
   50MOL   H40626964   6.923   1.973   3.535  1.8222  0.0076  0.5064
   50MOL   C40726965   6.546   2.635   3.932 -0.0649  0.2847  0.0550
   50MOL   C40826966   6.632   2.576   4.044  0.2365  0.5904 -0.2929
   50MOL   C40926967   6.621   2.429   4.065  0.0342 -0.5857  0.6137
   50MOL   C41026968   6.672   2.353   3.947  0.1107  0.0869 -0.4843
   50MOL   C41126969   6.685   2.206   3.962 -0.7557  0.4421 -0.4832
   50MOL   O41226970   6.769   2.145   3.863 -0.1490 -0.2675 -0.1189
   50MOL   C41326971   6.793   2.019   3.866  0.4208 -0.2264 -0.0140
   50MOL   O41426972   6.737   1.943   3.946  0.0551 -0.9823 -0.3900
   50MOL   C41526973   6.898   1.969   3.762  0.0894 -0.4688 -0.2586
   50MOL   C41626974   6.906   1.815   3.753 -0.3144  0.2042  0.4628
   50MOL   C41726975   7.042   2.019   3.794 -0.7298  0.3886 -0.5550
   50MOL   H41826976   6.458   2.571   3.918  1.5570 -2.3608  1.5036
   50MOL   H41926977   6.511   2.734   3.960  1.9476  0.4942  1.9455
   50MOL   H42026978   6.596   2.632   3.835 -1.4374 -2.6055 -0.6214
   50MOL   H42126979   6.605   2.616   4.141 -3.7459 -2.1487 -0.1895
   50MOL   H42226980   6.735   2.611   4.031  0.0018  1.9949  1.4768
   50MOL   H42326981   6.686   2.396   4.147 -0.5059 -0.9930  0.8843
   50MOL   H42426982   6.522   2.393   4.094 -0.7106  1.2223  0.3977
   50MOL   H42526983   6.772   2.392   3.932 -0.0185 -0.2866 -2.4822
   50MOL   H42626984   6.617   2.383   3.857 -0.3016 -2.8651 -1.2688
   50MOL   H42726985   6.725   2.184   4.061  1.7353 -1.1373 -1.7763
   50MOL   H42826986   6.582   2.170   3.971 -1.0619  1.4283 -0.0191
   50MOL   H42926987   6.814   1.763   3.725  0.1438 -0.7144  0.6651
   50MOL   H43026988   6.935   1.782   3.852  1.4473  0.5056  0.0628
   50MOL   H43126989   6.985   1.796   3.680  2.9086 -0.8248  4.0865
   50MOL   H43226990   7.100   2.005   3.703  0.5243  0.0540  0.2914
   50MOL   H43326991   7.090   1.945   3.858 -0.8173 -0.4965 -1.4914
   50MOL   C43426992   6.916   1.577   4.184 -0.2492 -0.0976 -0.0382
   50MOL   C43526993   7.023   1.676   4.235 -0.2154  0.1559  0.0995
   50MOL   C43626994   6.986   1.820   4.202  0.6589 -0.3946 -0.1336
   50MOL   C43726995   7.069   1.928   4.275 -0.0211 -0.1586 -0.3655
   50MOL   C43826996   7.036   2.064   4.212 -0.0926  0.3342  0.1175
   50MOL   O43926997   7.055   2.072   4.069  0.5841 -0.0259  0.3010
   50MOL   C44026998   7.043   2.182   4.000  0.3352  1.0540  0.5304
   50MOL   O44126999   6.993   2.290   4.046 -0.4497  0.5806  0.5200
   50MOL   C44227000   7.091   2.161   3.852 -0.7497 -0.3361  0.5776
   50MOL   C44327001   7.039   2.288   3.769 -0.3864 -0.1443  0.0270
   50MOL   C44427002   7.253   2.161   3.832 -0.3068 -0.2530 -0.2335
   50MOL   H44527003   6.969   1.483   4.202  3.0419  1.3701 -1.6771
   50MOL   H44627004   6.826   1.583   4.244  1.3632 -1.8012  2.6784
   50MOL   H44727005   6.902   1.584   4.076 -1.0733 -1.5239 -0.0355
   50MOL   H44827006   7.041   1.663   4.342  2.0888 -0.0180 -0.2950
   50MOL   H44927007   7.120   1.659   4.189  0.0105  0.9101  0.2889
   50MOL   H45027008   6.975   1.836   4.094 -2.3177 -0.6861  0.0901
   50MOL   H45127009   6.884   1.836   4.234  0.8028 -0.4537  0.3501
   50MOL   H45227010   7.175   1.905   4.264 -0.4605 -2.7911  0.5024
   50MOL   H45327011   7.054   1.942   4.382 -0.8956  0.1163 -0.5224
   50MOL   H45427012   7.100   2.145   4.248 -1.6567  1.9595 -0.6883
   50MOL   H45527013   6.937   2.099   4.239  0.3891  1.4624  0.4669
   50MOL   H45627014   7.066   2.291   3.664 -2.5987  0.6750 -0.5515
   50MOL   H45727015   6.930   2.279   3.768 -0.6058  2.1488 -1.4786
   50MOL   H45827016   7.068   2.379   3.822  0.3144 -1.2100  1.5320
   50MOL   H45927017   7.269   2.192   3.729 -0.4804  1.4072  0.2290
   50MOL   H46027018   7.283   2.056   3.826  1.4097  0.2412 -0.3358
   50MOL   C46127019   7.296   2.416   4.672 -0.3013  0.5973 -0.6100
   50MOL   C46227020   7.417   2.392   4.585 -0.8480 -0.5962 -0.1275
   50MOL   C46327021   7.385   2.292   4.479  0.6640  0.2639 -0.0184
   50MOL   C46427022   7.506   2.262   4.392  0.2656  1.0201  0.6810
   50MOL   C46527023   7.482   2.174   4.272 -0.7944  0.4529  0.2977
   50MOL   O46627024   7.432   2.237   4.162  0.9341 -0.5425  0.3105
   50MOL   C46727025   7.371   2.160   4.065 -0.6253 -0.2439  0.3580
   50MOL   O46827026   7.336   2.043   4.084 -0.5105  0.3836  0.3289
   50MOL   C46927027   7.356   2.227   3.924  0.7404 -0.5787 -0.3297
   50MOL   C47027028   7.321   2.378   3.950  0.1684  0.5141  0.3855
   50MOL   C47127029   7.501   2.229   3.864  0.0841 -0.2632 -0.4249
   50MOL   H47227030   7.323   2.500   4.737  1.3471 -0.7871  0.5296
   50MOL   H47327031   7.260   2.334   4.734  1.7630 -0.6000 -0.9683
   50MOL   H47427032   7.218   2.435   4.598 -1.2529 -0.5806  0.0813
   50MOL   H47527033   7.501   2.371   4.652  0.3779  0.6807 -1.2043
   50MOL   H47627034   7.445   2.488   4.541  0.1772 -0.6594  0.3711
   50MOL   H47727035   7.309   2.332   4.411  1.2181 -0.6616 -1.1974
   50MOL   H47827036   7.332   2.206   4.520  0.8776 -0.3816 -1.0579
   50MOL   H47927037   7.585   2.220   4.454  1.4868 -0.0207 -1.5341
   50MOL   H48027038   7.550   2.352   4.349  1.0044  0.9599  1.2982
   50MOL   H48127039   7.577   2.134   4.237  0.2183  2.3794  0.7577
   50MOL   H48227040   7.428   2.087   4.308  2.3457 -1.2997  0.9716
   50MOL   H48327041   7.230   2.378   4.010  0.4922  0.5388  0.8759
   50MOL   H48427042   7.307   2.425   3.852  0.1477 -0.8234 -0.2724
   50MOL   H48527043   7.403   2.425   4.004  0.2345 -0.5980  1.2788
   50MOL   H48627044   7.571   2.269   3.937  0.1681  1.4346 -1.4309
   50MOL   H48727045   7.502   2.312   3.794 -1.0325  0.5497  0.5098
   50MOL   C48827046   7.762   1.622   3.283 -0.3000 -0.6143  0.3267
   50MOL   C48927047   7.640   1.627   3.368 -0.6982 -0.0130  0.4265
   50MOL   C49027048   7.591   1.771   3.401 -0.4960  0.2403 -0.2662
   50MOL   C49127049   7.455   1.773   3.468  0.4343  0.0788 -0.7019
   50MOL   C49227050   7.414   1.917   3.508 -0.0216  0.2205  0.0519
   50MOL   O49327051   7.487   1.959   3.619 -0.2270  0.8336 -0.2386
   50MOL   C49427052   7.498   2.090   3.652 -0.7589  0.1033  0.0076
   50MOL   O49527053   7.470   2.189   3.581  0.4322 -0.0825  0.0347
   50MOL   C49627054   7.571   2.111   3.788 -0.2247 -0.0708  0.0892
   50MOL   C49727055   7.571   1.981   3.860 -0.3310  0.6921  0.5029
   50MOL   C49827056   7.722   2.153   3.779  0.4038 -1.0695  0.0411
   50MOL   H49927057   7.800   1.524   3.251  0.7717 -0.1278  0.0799
   50MOL   H50027058   7.744   1.675   3.190  2.5702 -2.1062 -1.1493
   50MOL   H50127059   0.028   1.667   3.342 -1.0376  0.2846  0.6379
   50MOL   H50227060   7.669   1.575   3.460 -1.0057 -1.5803 -0.3491
   50MOL   H50327061   7.557   1.578   3.317 -1.1359  2.9361 -1.8002
   50MOL   H50427062   7.663   1.828   3.459  1.5363 -0.0322 -2.4463
   50MOL   H50527063   7.591   1.827   3.307  2.1872  0.6529 -0.0544
   50MOL   H50627064   7.477   1.716   3.558 -1.0391  1.1838  0.3889
   50MOL   H50727065   7.383   1.725   3.402  1.2785  0.2879 -1.7970
   50MOL   H50827066   7.422   1.983   3.423 -0.9832 -1.3169 -1.2668
   50MOL   H50927067   7.308   1.913   3.531 -0.3701  0.9124 -1.4185
   50MOL   H51027068   7.606   1.989   3.963 -2.3867  0.2224  1.2615
   50MOL   H51127069   7.637   1.900   3.829  0.9544  2.7495 -2.3162
   50MOL   H51227070   7.474   1.932   3.860  1.0060 -2.1125 -2.7202
   50MOL   H51327071   7.751   2.115   3.876  1.9448 -0.5228 -0.1957
   50MOL   H51427072   7.736   2.261   3.770 -0.3664 -1.0145 -0.5823
   50MOL   C51527073   0.073   1.382   4.151 -0.4533  0.7969  0.5699
   50MOL   C51627074   0.063   1.539   4.146 -0.3976  0.0712  0.4000
   50MOL   C51727075   0.094   1.586   4.006 -0.5120 -0.2573  0.2906
   50MOL   C51827076   0.082   1.743   3.979 -0.0094  0.3951 -0.5015
   50MOL   C51927077   0.087   1.780   3.831  0.3673 -0.1040 -0.2563
   50MOL   O52027078   0.069   1.912   3.814  0.3767  0.3212  0.4987
   50MOL   C52127079   0.064   1.957   3.684  0.7614 -0.5659 -0.1183
   50MOL   O52227080   0.089   1.887   3.585 -0.6163  0.8276 -1.0137
   50MOL   C52327081   0.012   2.106   3.666 -0.0279 -0.9558 -0.4031
   50MOL   C52427082   0.141   2.186   3.695  0.3457 -0.6650  1.4016
   50MOL   C52527083   7.782   2.131   3.516 -0.4648  0.3362 -0.4343
   50MOL   H52627084   7.797   1.336   4.112 -0.9576  1.4418  0.9703
   50MOL   H52727085   0.152   1.353   4.081 -0.5737  0.1977  0.6867
   50MOL   H52827086   0.099   1.351   4.252  0.2189 -5.1153 -1.2528
   50MOL   H52927087   7.785   1.568   4.198 -1.0822 -2.5638  0.7643
   50MOL   H53027088   0.141   1.578   4.212  0.1713  0.4501 -0.4973
   50MOL   H53127089   0.198   1.566   3.981 -0.2889  1.7505 -0.4980
   50MOL   H53227090   0.034   1.533   3.932  1.9643  1.2444 -2.9066
   50MOL   H53327091   0.167   1.798   4.019  1.4227 -2.4171  0.4971
   50MOL   H53427092   0.000   1.788   4.035  1.6538  1.0451  1.4716
   50MOL   H53527093   0.179   1.745   3.785  0.3733  0.5656 -0.7579
   50MOL   H53627094   0.009   1.722   3.781 -0.0836 -1.8078  2.3392
   50MOL   H53727095   0.110   2.291   3.691 -1.0302 -1.0976  0.0834
   50MOL   H53827096   0.224   2.151   3.633 -1.2085 -1.1635 -0.4394
   50MOL   H53927097   0.172   2.178   3.799  2.8419 -3.9587  0.5077
   50MOL   H54027098   7.734   2.226   3.491 -0.3234 -0.4730 -4.0537
   50MOL   H54127099   7.717   2.047   3.493 -2.7399  1.3063  2.2459
   50MOL   H54227100   0.053   2.127   3.448 -1.3678 -0.8733 -1.5208
   51MOL     C127101   2.473   1.416   4.277 -0.4114  0.5168  0.0557
   51MOL     C227102   2.367   1.338   4.186  0.1873 -0.3377 -0.0272
   51MOL     C327103   2.211   1.364   4.222  0.6014  0.5594 -0.7494
   51MOL     C427104   2.176   1.343   4.372  1.3939 -0.1295  0.2832
   51MOL     C527105   2.035   1.300   4.400  0.0423 -0.7487 -0.6005
   51MOL     O627106   1.936   1.388   4.350 -0.1082 -0.3284  0.5599
   51MOL     C727107   1.895   1.492   4.427  0.3414  0.3447 -0.1520
   51MOL     O827108   1.938   1.506   4.541  0.0757 -0.4712 -0.2403
   51MOL     C927109   1.812   1.598   4.347  0.2395 -0.6632 -0.1385
   51MOL    C1027110   1.666   1.549   4.336  0.3088  0.0305  0.2102
   51MOL    C1127111   1.880   1.630   4.205  0.5012  0.1809  0.1597
   51MOL    H1227112   2.573   1.375   4.265 -1.3761 -1.2360 -2.3978
   51MOL    H1327113   2.439   1.405   4.381  0.9541  1.7072  0.6418
   51MOL    H1427114   2.471   1.524   4.269  0.1006  0.6103  1.0647
   51MOL    H1527115   2.397   1.367   4.085 -0.2947 -0.7977 -0.3006
   51MOL    H1627116   2.377   1.233   4.210 -1.6306 -0.3891  0.5970
   51MOL    H1727117   2.188   1.463   4.183 -1.3165  0.8469  1.0261
   51MOL    H1827118   2.148   1.298   4.163 -0.8049  0.4015  0.8936
   51MOL    H1927119   2.201   1.425   4.440  0.0811  1.4639 -1.1021
   51MOL    H2027120   2.231   1.256   4.407 -0.4220 -1.1612  0.6633
   51MOL    H2127121   2.020   1.201   4.357 -1.7144 -0.7906  0.0966
   51MOL    H2227122   2.017   1.279   4.505  1.1641 -1.7326 -0.5868
   51MOL    H2327123   1.598   1.631   4.309 -0.0849 -0.0007  1.0870
   51MOL    H2427124   1.622   1.521   4.433 -3.7144  1.0706 -1.1936
   51MOL    H2527125   1.652   1.481   4.252 -1.2667 -1.3024  1.5077
   51MOL    H2627126   1.801   1.653   4.133 -0.1781 -1.1249  0.4633
   51MOL    H2727127   1.938   1.544   4.172 -2.2052 -1.4837 -0.4477
   51MOL    H2827128   1.819   1.684   4.414 -0.0139 -0.1299 -0.7878
   51MOL    C2927129   2.730   1.866   3.822 -0.3688  0.1679  0.0693
   51MOL    C3027130   2.629   1.858   3.933 -0.1480 -0.0805 -0.3473
   51MOL    C3127131   2.495   1.792   3.898  0.7695 -0.4514 -0.0567
   51MOL    C3227132   2.405   1.775   4.026 -0.6443 -0.6108  0.1828
   51MOL    C3327133   2.274   1.699   3.990 -0.6502 -0.1854 -0.6565
   51MOL    O3427134   2.176   1.691   4.099  0.1064 -0.1274 -0.0814
   51MOL    C3527135   2.057   1.750   4.081  0.8937 -0.4669 -0.6616
   51MOL    O3627136   2.021   1.802   3.972 -0.6766 -0.1078 -0.7187
   51MOL    C3727137   1.969   1.758   4.205 -0.3924  0.4413 -0.3474
   51MOL    C3827138   2.066   1.761   4.335  0.3992  0.8023  0.3713
   51MOL    C3927139   1.861   1.877   4.194 -0.5070  0.2234  0.6084
   51MOL    H4027140   2.697   1.923   3.736 -0.9956 -0.9068 -0.4013
   51MOL    H4127141   2.825   1.905   3.860 -1.7869  1.3937  2.5239
   51MOL    H4227142   2.748   1.765   3.785  0.3496 -0.3378  1.7148
   51MOL    H4327143   2.617   1.958   3.973  0.9242 -0.3469  0.6601
   51MOL    H4427144   2.686   1.806   4.010 -1.3092 -0.7200  0.0970
   51MOL    H4527145   2.516   1.698   3.847 -0.2866  0.5323 -2.3692
   51MOL    H4627146   2.443   1.845   3.818  1.0796  0.7101  0.5043
   51MOL    H4727147   2.453   1.727   4.111  0.2563  1.1414  0.7091
   51MOL    H4827148   2.395   1.876   4.066  0.4106 -0.6599  0.5828
   51MOL    H4927149   2.297   1.597   3.960 -2.0740  0.0338 -2.6032
   51MOL    H5027150   2.234   1.742   3.898  0.0961  1.3012 -0.3044
   51MOL    H5127151   2.142   1.684   4.346  0.2237  0.5914  0.0930
   51MOL    H5227152   2.013   1.780   4.429  0.1547  0.5198  0.2912
   51MOL    H5327153   2.135   1.845   4.327 -1.1122  2.2558  1.9667
   51MOL    H5427154   1.772   1.859   4.255 -0.2120  0.7049  1.1884
   51MOL    H5527155   1.820   1.863   4.094  1.7004  0.0449 -0.2994
   51MOL    C5627156   1.457   1.686   4.645 -0.9008  0.4389 -0.2141
   51MOL    C5727157   1.619   1.714   4.652  0.7184 -0.2796  0.2099
   51MOL    C5827158   1.655   1.854   4.594 -0.1816 -0.6021  0.1157
   51MOL    C5927159   1.800   1.881   4.641  0.1158 -0.3086  0.0714
   51MOL    C6027160   1.862   2.012   4.584  0.7648 -0.2930  0.1475
   51MOL    O6127161   1.847   2.017   4.446 -0.1763  0.4013 -0.1635
   51MOL    C6227162   1.953   2.048   4.363 -0.5261  0.0816  0.1976
   51MOL    O6327163   2.068   2.073   4.400  0.6482  0.0795 -0.8965
   51MOL    C6427164   1.912   2.028   4.211 -0.3913  0.8301 -0.1492
   51MOL    C6527165   1.786   2.108   4.182  0.3959  0.6233  0.0755
   51MOL    C6627166   2.021   2.063   4.103 -0.3540  0.1937  0.0631
   51MOL    H6727167   1.411   1.752   4.719 -1.7539 -0.3673 -0.0266
   51MOL    H6827168   1.424   1.586   4.673  0.2107  0.3517  0.8337
   51MOL    H6927169   1.416   1.707   4.546 -0.9475  1.4298  0.0075
   51MOL    H7027170   1.654   1.693   4.753  0.3841  0.2042  0.4313
   51MOL    H7127171   1.664   1.636   4.591 -0.2378  0.3049 -1.2872
   51MOL    H7227172   1.655   1.846   4.485  1.7218  1.8573 -0.1120
   51MOL    H7327173   1.603   1.944   4.627  2.2403  1.2505 -0.9267
   51MOL    H7427174   1.860   1.794   4.613  0.3284  0.6279 -2.5616
   51MOL    H7527175   1.809   1.884   4.749  0.0644  1.2454  0.0430
   51MOL    H7627176   1.785   2.083   4.613  1.4098  0.2516  0.5533
   51MOL    H7727177   1.949   2.059   4.630  1.1990  0.0846 -1.0537
   51MOL    H7827178   1.706   2.072   4.245  0.8522  0.4677  0.5699
   51MOL    H7927179   1.757   2.094   4.078 -0.4251 -0.7606  0.4946
   51MOL    H8027180   1.798   2.216   4.196  0.3929  0.6981 -0.4665
   51MOL    H8127181   2.002   2.023   4.004  0.2331 -0.3673  0.1723
   51MOL    H8227182   2.106   2.005   4.139 -0.2205 -0.5567 -1.4312
   51MOL    C8327183   1.631   2.000   3.519 -0.0151 -0.3703  0.3276
   51MOL    C8427184   1.711   1.953   3.645 -0.3536 -0.1522 -0.7969
   51MOL    C8527185   1.757   2.067   3.744  0.2830  0.3221  0.5325
   51MOL    C8627186   1.835   2.180   3.675 -0.8409 -0.3061  0.3855
   51MOL    C8727187   1.895   2.282   3.768 -0.3247 -0.4198 -1.1193
   51MOL    O8827188   1.967   2.224   3.872  0.0902 -0.5203 -0.3527
   51MOL    C8927189   1.981   2.282   3.983 -0.6835 -0.4619 -1.0963
   51MOL    O9027190   1.911   2.376   4.016  0.2211  0.6235 -0.2393
   51MOL    C9127191   2.082   2.211   4.075 -0.1158  0.3276 -0.2547
   51MOL    C9227192   2.105   2.291   4.203  0.0125  0.8412 -0.2184
   51MOL    C9327193   2.211   2.183   3.996  0.4113 -0.0143  0.3685
   51MOL    H9427194   1.524   2.013   3.540 -0.0801 -0.6333  0.1583
   51MOL    H9527195   1.663   2.094   3.474 -0.5009  0.7425  2.1992
   51MOL    H9627196   1.626   1.923   3.442 -0.2071  1.3634 -1.4213
   51MOL    H9727197   1.800   1.904   3.607 -0.2344 -0.1186 -0.5603
   51MOL    H9827198   1.656   1.878   3.703  0.6278 -0.3965 -0.1779
   51MOL    H9927199   1.812   2.014   3.822 -4.1578  0.4348  3.9198
   51MOL   H10027200   1.670   2.120   3.783  0.6348  1.6073 -0.3912
   51MOL   H10127201   1.769   2.226   3.602 -1.8587 -0.2732  1.3137
   51MOL   H10227202   1.906   2.137   3.604  0.0424 -0.5542  1.3969
   51MOL   H10327203   1.804   2.333   3.800  0.3581 -0.0235  0.1971
   51MOL   H10427204   1.960   2.358   3.723 -0.0837 -1.0126 -1.7901
   51MOL   H10527205   2.180   2.240   4.263  1.6332  1.3623 -1.7164
   51MOL   H10627206   2.016   2.317   4.260  1.1359  0.4606  1.7435
   51MOL   H10727207   2.144   2.390   4.176  1.2588  0.1916 -0.8231
   51MOL   H10827208   2.262   2.101   4.047 -1.9946 -1.3895  0.6522
   51MOL   H10927209   2.183   2.124   3.908 -2.1217  2.8070 -0.7963
   51MOL   C11027210   2.660   1.747   4.344 -0.6942  0.0400 -0.2063
   51MOL   C11127211   2.554   1.853   4.372 -0.5330  0.5835  0.4113
   51MOL   C11227212   2.584   1.992   4.309 -0.0547  0.6347  0.1154
   51MOL   C11327213   2.472   2.088   4.330  0.0915 -0.6562 -0.7701
   51MOL   C11427214   2.489   2.225   4.268  0.1209 -0.5949 -0.3094
   51MOL   O11527215   2.462   2.227   4.128 -0.2779  0.3232  0.2978
   51MOL   C11627216   2.407   2.332   4.067 -0.2437 -0.0823 -0.4313
   51MOL   O11727217   2.423   2.445   4.115  0.0977 -0.1750 -0.6449
   51MOL   C11827218   2.317   2.294   3.952 -0.3643 -0.0628  0.5015
   51MOL   C11927219   2.242   2.415   3.890  0.5423  0.0080  0.2368
   51MOL   C12027220   2.407   2.216   3.842  0.1404  0.0504  0.3837
   51MOL   H12127221   2.759   1.775   4.382 -0.7935  0.0987  0.0079
   51MOL   H12227222   2.637   1.650   4.387  1.0846  0.1910  1.1791
   51MOL   H12327223   2.668   1.728   4.237  0.8338 -1.1736  0.1034
   51MOL   H12427224   2.463   1.817   4.324 -0.4403 -1.6917  1.8785
   51MOL   H12527225   2.543   1.877   4.477 -0.2536 -0.9793  0.8061
   51MOL   H12627226   2.681   2.035   4.331 -0.1565 -0.2020  2.2744
   51MOL   H12727227   2.586   1.991   4.200  1.0138  1.3202  0.1259
   51MOL   H12827228   2.455   2.106   4.436  0.1183  2.7773 -1.3007
   51MOL   H12927229   2.376   2.043   4.302 -0.8068  0.9401 -0.3147
   51MOL   H13027230   2.433   2.301   4.323 -0.5362 -0.2774 -1.3981
   51MOL   H13127231   2.594   2.250   4.280  0.4292 -1.4033 -1.2994
   51MOL   H13227232   2.174   2.370   3.816 -0.5561  3.4021 -0.9091
   51MOL   H13327233   2.174   2.464   3.960 -2.0539 -1.8284 -0.8854
   51MOL   H13427234   2.292   2.495   3.836  0.7727 -0.4473 -0.2312
   51MOL   H13527235   2.442   2.127   3.895  0.1528 -0.9403 -1.2601
   51MOL   H13627236   2.333   2.184   3.770 -0.5010 -0.7761  1.3870
   51MOL   C13727237   2.956   1.950   3.061  0.1850 -0.2596 -0.3189
   51MOL   C13827238   2.942   2.039   3.182  0.3559  0.2101 -0.4748
   51MOL   C13927239   2.798   2.049   3.243 -0.4536  0.3816  0.5929
   51MOL   C14027240   2.799   2.119   3.379  0.1914  0.5300  0.6276
   51MOL   C14127241   2.657   2.100   3.443 -0.0436 -0.4685 -0.9361
   51MOL   O14227242   2.641   2.194   3.547  0.3693  0.3224  0.0530
   51MOL   C14327243   2.558   2.154   3.646  0.8509 -0.1197 -0.6894
   51MOL   O14427244   2.491   2.050   3.649  0.0380 -0.9600  0.1594
   51MOL   C14527245   2.533   2.254   3.766  0.1536  0.7036  0.7695
   51MOL   C14627246   2.515   2.399   3.713 -0.1291 -0.5367 -0.0807
   51MOL   C14727247   2.657   2.252   3.866 -0.6019 -0.2271  0.1156
   51MOL   H14827248   3.063   1.933   3.045  0.8711  0.2797  3.2740
   51MOL   H14927249   2.899   1.978   2.972  1.0052 -1.8847 -1.3722
   51MOL   H15027250   2.908   1.856   3.085 -0.4213  0.2526  0.5023
   51MOL   H15127251   2.978   2.140   3.163 -0.4927  0.3017 -1.6805
   51MOL   H15227252   3.015   2.006   3.256 -0.2806  0.0400  0.0781
   51MOL   H15327253   2.733   2.102   3.174  1.4506  1.8056 -0.1463
   51MOL   H15427254   2.765   1.947   3.262 -1.9874  0.7855  0.1422
   51MOL   H15527255   2.875   2.079   3.446 -0.5972 -1.5328  0.3306
   51MOL   H15627256   2.815   2.226   3.369  1.8931  0.2570  0.2060
   51MOL   H15727257   2.640   1.997   3.474 -1.5093 -0.1442 -0.6518
   51MOL   H15827258   2.580   2.110   3.367 -0.0661  1.4915 -0.6790
   51MOL   H15927259   2.424   2.408   3.654 -0.6558 -0.7751  0.6929
   51MOL   H16027260   2.594   2.432   3.644 -0.7108 -1.2728 -1.1091
   51MOL   H16127261   2.518   2.465   3.800 -2.0120  1.6233 -1.5932
   51MOL   H16227262   2.625   2.299   3.959  0.9190 -0.5504  0.8099
   51MOL   H16327263   2.663   2.145   3.884 -0.4703 -0.4104 -0.9930
   51MOL   C16427264   2.682   3.059   4.244 -0.0462 -0.1218 -0.1435
   51MOL   C16527265   2.618   2.944   4.163  0.4610  0.2139  0.5495
   51MOL   C16627266   2.723   2.870   4.077  0.0134  0.2800 -0.5494
   51MOL   C16727267   2.668   2.736   4.028  0.1910  0.3503 -0.6729
   51MOL   C16827268   2.770   2.653   3.953  0.1035  0.6119  0.0010
   51MOL   O16927269   2.745   2.516   3.933  0.2858  0.6390  0.0919
   51MOL   C17027270   2.808   2.455   3.830 -0.5125  0.1970 -0.1276
   51MOL   O17127271   2.873   2.514   3.740 -0.9211 -0.0166  0.2295
   51MOL   C17227272   2.807   2.306   3.839 -0.1481 -0.4438 -0.3667
   51MOL   C17327273   2.871   2.245   3.708  0.3228  0.0978  0.3360
   51MOL   C17427274   2.884   2.249   3.969  0.6247  0.1236  0.7201
   51MOL   H17527275   2.610   3.135   4.275 -0.2743  0.1458 -1.3097
   51MOL   H17627276   2.747   3.122   4.183 -2.4707  1.0399 -1.6100
   51MOL   H17727277   2.739   3.014   4.325  1.0021  0.2631 -0.6592
   51MOL   H17827278   2.544   2.979   4.092  1.9307 -2.2303 -2.3264
   51MOL   H17927279   2.566   2.886   4.239 -0.0113 -1.2353 -0.8481
   51MOL   H18027280   2.755   2.928   3.991  2.0518 -0.4861 -0.3275
   51MOL   H18127281   2.807   2.849   4.143  0.0134  1.2694 -0.2177
   51MOL   H18227282   2.575   2.762   3.977 -0.8833 -1.1740  0.4779
   51MOL   H18327283   2.640   2.676   4.114 -1.1214  2.5549  0.4805
   51MOL   H18427284   2.864   2.665   4.007 -0.1712  1.5882  0.2661
   51MOL   H18527285   2.793   2.707   3.861  0.1572 -2.5050 -1.9038
   51MOL   H18627286   2.842   2.141   3.692 -0.6791  0.3899  0.1773
   51MOL   H18727287   2.975   2.276   3.699 -0.1563  1.3840 -0.9761
   51MOL   H18827288   2.834   2.286   3.614  1.1315  0.6273  0.2475
   51MOL   H18927289   2.809   2.239   4.046  2.0319 -0.1512  2.0726
   51MOL   H19027290   2.908   2.147   3.939  0.0903  0.1153  0.3118
   51MOL   C19127291   2.741   2.818   4.630 -0.3814 -0.8062 -0.6248
   51MOL   C19227292   2.752   2.742   4.494  0.1358  0.4510  0.3367
   51MOL   C19327293   2.711   2.591   4.506 -0.4079 -0.1922 -0.3554
   51MOL   C19427294   2.725   2.513   4.371  0.8493  0.0125 -0.2231
   51MOL   C19527295   2.862   2.525   4.309 -0.4178  0.4289 -1.2976
   51MOL   O19627296   2.886   2.426   4.206  0.0785 -0.4030 -0.8407
   51MOL   C19727297   2.996   2.423   4.134  0.2658 -0.2142 -0.2417
   51MOL   O19827298   3.078   2.510   4.141 -0.3834  0.2634  0.3494
   51MOL   C19927299   3.016   2.305   4.041 -0.0387  0.1393 -0.2237
   51MOL   C20027300   3.108   2.334   3.927 -0.3407  0.1283  0.1152
   51MOL   C20127301   3.065   2.181   4.125  0.6134  0.7308 -0.1890
   51MOL   H20227302   2.786   2.917   4.615 -0.4935 -0.5106  0.9659
   51MOL   H20327303   2.642   2.830   4.672 -0.3735  2.2931 -1.3651
   51MOL   H20427304   2.796   2.761   4.704 -1.7840 -0.9099  0.3478
   51MOL   H20527305   2.856   2.745   4.462 -0.3506  0.0736 -1.3644
   51MOL   H20627306   2.700   2.793   4.412 -2.7506  1.4656  2.6990
   51MOL   H20727307   2.611   2.590   4.550  0.5442  0.6557  1.9454
   51MOL   H20827308   2.777   2.534   4.571 -0.8600 -1.1712 -0.7506
   51MOL   H20927309   2.707   2.409   4.397 -0.5558 -0.0147 -1.2624
   51MOL   H21027310   2.654   2.553   4.299 -1.0996 -3.8684 -0.5754
   51MOL   H21127311   2.878   2.628   4.276 -1.2340  0.9827  0.0347
   51MOL   H21227312   2.938   2.500   4.383 -0.5054  0.2223 -1.2757
   51MOL   H21327313   3.077   2.408   3.852 -2.2801 -0.9905 -0.2287
   51MOL   H21427314   3.130   2.246   3.867 -2.6238 -0.7046  0.4321
   51MOL   H21527315   3.194   2.389   3.966  0.5905 -0.6898 -0.7558
   51MOL   H21627316   3.090   2.104   4.052  1.1700 -0.8982  1.6757
   51MOL   H21727317   2.974   2.136   4.165  1.4559  0.1641  1.1543
   51MOL   C21827318   3.747   2.425   4.672 -0.3005  0.5639  0.3083
   51MOL   C21927319   3.604   2.489   4.673  0.0298  0.3248 -0.3447
   51MOL   C22027320   3.508   2.402   4.592  0.5162 -0.3673  0.3877
   51MOL   C22127321   3.364   2.455   4.584  0.5205  0.3706 -0.5637
   51MOL   C22227322   3.251   2.353   4.555  0.0422  0.3595  0.2573
   51MOL   O22327323   3.264   2.289   4.436 -0.0124 -0.0377  0.2068
   51MOL   C22427324   3.153   2.255   4.366 -0.2807 -0.6235  0.3056
   51MOL   O22527325   3.031   2.279   4.395 -0.0689  0.6853  0.1317
   51MOL   C22627326   3.187   2.193   4.226  0.3158  0.3321 -0.5497
   51MOL   C22727327   3.298   2.266   4.149  0.9624  0.5813 -0.5908
   51MOL   C22827328   3.246   2.046   4.250  0.0624 -0.1597 -0.1231
   51MOL   H22927329   3.739   2.339   4.738  0.3172  0.9571  0.9058
   51MOL   H23027330   3.794   2.397   4.578 -1.0760  0.7259 -0.1282
   51MOL   H23127331   3.820   2.484   4.727  1.2561 -0.7489 -0.3293
   51MOL   H23227332   3.620   2.575   4.608 -2.6649  0.6401 -0.6207
   51MOL   H23327333   3.575   2.522   4.772  1.0387 -0.3689  0.1969
   51MOL   H23427334   3.516   2.301   4.632  0.2138 -2.0041 -3.5198
   51MOL   H23527335   3.557   2.385   4.496 -0.5041  0.1389 -0.2279
   51MOL   H23627336   3.349   2.486   4.687  1.7075  2.2130 -0.9213
   51MOL   H23727337   3.345   2.548   4.529  0.7028  0.4982 -0.4082
   51MOL   H23827338   3.158   2.406   4.575 -0.5837 -0.8695  0.6708
   51MOL   H23927339   3.257   2.272   4.629  1.0579 -0.1047 -0.3237
   51MOL   H24027340   3.288   2.375   4.154  0.9781  0.4992  2.0950
   51MOL   H24127341   3.326   2.241   4.046  0.6223  2.9139 -1.2865
   51MOL   H24227342   3.383   2.235   4.210  1.0243 -0.3293 -1.1462
   51MOL   H24327343   3.314   2.057   4.335 -0.6471  1.5271  0.2541
   51MOL   H24427344   3.313   2.025   4.167  0.5476 -0.1980  0.2787
   51MOL   C24527345   3.287   1.948   3.545  0.2906  0.1573  0.4589
   51MOL   C24627346   3.138   1.950   3.567 -0.5523 -0.6260 -0.3668
   51MOL   C24727347   3.091   1.859   3.682 -0.1033 -0.3611  0.1308
   51MOL   C24827348   3.151   1.894   3.821  0.1113 -0.2502  0.0689
   51MOL   C24927349   3.123   1.793   3.932  0.3748  0.5750 -0.1447
   51MOL   O25027350   3.163   1.850   4.051  0.3071  0.1821 -0.2995
   51MOL   C25127351   3.080   1.866   4.154 -0.1165 -0.1998 -0.3662
   51MOL   O25227352   2.957   1.838   4.156 -0.1979 -0.2751 -0.4442
   51MOL   C25327353   3.150   1.922   4.284  0.6164  0.2400  0.1317
   51MOL   C25427354   3.034   1.956   4.391  0.1118  0.0233 -0.2657
   51MOL   C25527355   3.245   1.805   4.327  0.4301 -0.2267 -0.4058
   51MOL   H25627356   3.327   1.848   3.535  0.6404  0.5504 -2.3298
   51MOL   H25727357   3.298   2.006   3.453  0.6780  0.2247  0.5446
   51MOL   H25827358   3.338   2.007   3.621 -1.2948  2.6094 -0.3125
   51MOL   H25927359   3.099   2.051   3.573 -1.4109 -0.9909  0.2907
   51MOL   H26027360   3.085   1.914   3.478  3.5060 -2.5452 -2.1735
   51MOL   H26127361   3.110   1.755   3.654  1.2359 -0.1003  0.0375
   51MOL   H26227362   2.984   1.869   3.695  0.0888  1.5075  0.4742
   51MOL   H26327363   3.258   1.913   3.819  0.8248 -3.7600  0.7699
   51MOL   H26427364   3.102   1.988   3.847  0.3941 -0.5053  1.5595
   51MOL   H26527365   3.020   1.759   3.943  0.9391 -1.0449  0.3279
   51MOL   H26627366   3.188   1.706   3.934  1.7760  1.6246  0.7552
   51MOL   H26727367   2.989   1.872   4.446  0.5747  1.0595  1.7536
   51MOL   H26827368   3.077   2.021   4.467 -0.7891  0.0495  0.2305
   51MOL   H26927369   2.946   2.006   4.352 -1.6109 -1.0818  2.0217
   51MOL   H27027370   3.283   1.752   4.239 -0.3842 -0.0051 -0.9005
   51MOL   H27127371   3.339   1.856   4.348 -0.6065  1.5931 -0.1111
   51MOL   C27227372   2.951   1.414   3.800  0.2233 -0.5371 -0.4778
   51MOL   C27327373   2.924   1.307   3.908  0.7544  0.4004 -0.2978
   51MOL   C27427374   2.880   1.362   4.040  0.1036 -0.3261 -0.4252
   51MOL   C27527375   2.996   1.442   4.095 -0.3170  0.1867  0.1014
   51MOL   C27627376   2.969   1.507   4.235 -0.4952 -0.1811  0.2186
   51MOL   O27727377   3.087   1.569   4.279 -0.3226  0.1422 -0.2517
   51MOL   C27827378   3.084   1.627   4.397 -0.8698  0.7714 -0.1174
   51MOL   O27927379   2.986   1.625   4.477 -0.2242 -0.1558  0.3311
   51MOL   C28027380   3.215   1.696   4.434 -0.1263 -0.4234  0.5766
   51MOL   C28127381   3.329   1.591   4.424  0.0669 -0.5958  0.2043
   51MOL   C28227382   3.213   1.750   4.582  0.0601 -0.3469 -0.4525
   51MOL   H28327383   3.053   1.452   3.800  0.5095 -1.3034  0.9081
   51MOL   H28427384   2.925   1.365   3.706  0.6486  0.3423 -1.0625
   51MOL   H28527385   2.884   1.498   3.819 -0.3176 -0.9848 -0.3893
   51MOL   H28627386   2.846   1.239   3.876  0.1102  0.8731  0.2620
   51MOL   H28727387   3.003   1.232   3.921  0.6971  0.4925  0.5869
   51MOL   H28827388   2.794   1.427   4.026  1.3932  1.0912 -1.8923
   51MOL   H28927389   2.850   1.277   4.102 -3.8260 -0.3185 -2.1727
   51MOL   H29027390   3.083   1.376   4.105 -0.8193 -0.6054 -0.7196
   51MOL   H29127391   3.031   1.523   4.031 -2.6811  0.1084 -1.3332
   51MOL   H29227392   2.951   1.424   4.304  0.2556 -1.1392 -0.7349
   51MOL   H29327393   2.884   1.576   4.239 -1.2854 -1.0805 -0.7530
   51MOL   H29427394   3.309   1.510   4.353 -0.1809 -0.1618 -0.2218
   51MOL   H29527395   3.428   1.629   4.399 -0.4134 -1.1294 -2.6742
   51MOL   H29627396   3.346   1.537   4.517 -1.5290 -1.5662 -0.0478
   51MOL   H29727397   3.114   1.789   4.606 -0.1917 -0.9155 -0.5525
   51MOL   H29827398   3.219   1.658   4.640  1.6055 -0.4852 -0.8015
   51MOL   C29927399   4.108   1.617   4.651  0.8592  0.4596 -0.4235
   51MOL   C30027400   3.972   1.659   4.710 -0.0950  0.5380  0.5797
   51MOL   C30127401   3.863   1.548   4.684  0.3937 -0.0027  0.2707
   51MOL   C30227402   3.719   1.602   4.716 -0.8174  0.0371  0.4259
   51MOL   C30327403   3.654   1.707   4.630 -0.2981  0.8423 -0.5461
   51MOL   O30427404   3.518   1.724   4.653  0.0262 -0.3518 -0.0600
   51MOL   C30527405   3.452   1.828   4.604  0.1806 -0.1036 -0.0258
   51MOL   O30627406   3.497   1.909   4.523  0.0009  0.5394  0.1821
   51MOL   C30727407   3.312   1.839   4.663 -0.1139 -0.4281  0.1526
   51MOL   C30827408   3.268   1.986   4.643 -0.4285  0.0848  0.6425
   51MOL   C30927409   3.308   1.788   4.813  0.1173  0.3856  0.1009
   51MOL   H31027410   4.098   1.601   4.544  0.7241  0.2495 -0.3796
   51MOL   H31127411   4.148   1.524   4.691  0.8473 -0.1074 -1.6993
   51MOL   H31227412   4.181   1.697   4.663 -1.3794  2.2416  1.8849
   51MOL   H31327413   3.948   1.757   4.670  2.1553 -0.4167 -3.3336
   51MOL   H31427414   3.976   1.656   4.819  1.6075 -1.4874  0.4945
   51MOL   H31527415   3.887   1.464   4.749  1.2924 -0.2249 -0.3289
   51MOL   H31627416   3.853   1.520   4.579  0.2817  1.5090 -0.1336
   51MOL   H31727417   3.713   1.625   4.822 -0.0596  0.2428  0.4288
   51MOL   H31827418   3.663   1.509   4.710  0.5694 -0.7748 -0.3654
   51MOL   H31927419   3.703   1.804   4.637 -2.3793  1.8487  0.4900
   51MOL   H32027420   3.668   1.689   4.524 -0.1627 -2.3790 -0.0306
   51MOL   H32127421   3.355   2.032   4.691  0.2575  0.7601 -1.1992
   51MOL   H32227422   3.275   2.029   4.543 -2.7784  0.6553  0.6941
   51MOL   H32327423   3.177   2.011   4.697  0.7623  1.3610  2.1008
   51MOL   H32427424   3.358   1.693   4.832  0.6271  0.5778 -0.3035
   51MOL   H32527425   3.202   1.766   4.827 -0.1493  0.4598 -1.6814
   51MOL   C32627426   2.906   2.199   5.397 -0.2310 -0.4150  0.2346
   51MOL   C32727427   2.985   2.073   5.369  0.0068 -0.4455  0.3341
   51MOL   C32827428   3.043   2.086   5.220 -0.3099  0.4000 -0.0438
   51MOL   C32927429   2.950   2.042   5.102 -0.2983  0.6263 -0.7180
   51MOL   C33027430   3.028   2.055   4.968  0.5872  0.4486  0.3190
   51MOL   O33127431   3.127   1.957   4.976  0.2337 -0.1011  0.0425
   51MOL   C33227432   3.257   1.990   4.954  0.4449 -0.3791 -0.0114
   51MOL   O33327433   3.292   2.099   4.920 -0.2573 -0.1371 -0.0613
   51MOL   C33427434   3.355   1.868   4.945 -0.4245 -0.6673 -0.7317
   51MOL   C33527435   3.338   1.763   5.063  0.7077  0.4528  0.3154
   51MOL   C33627436   3.506   1.911   4.931 -0.7527  0.1275  0.2859
   51MOL   H33727437   2.963   2.293   5.398  0.3731 -0.7534 -1.1710
   51MOL   H33827438   2.864   2.191   5.498 -1.2998  1.0054 -0.0911
   51MOL   H33927439   2.822   2.223   5.333  0.5084  1.6510 -0.0127
   51MOL   H34027440   2.928   1.980   5.376 -1.1240  0.3827  2.3478
   51MOL   H34127441   3.074   2.072   5.431 -0.0238  0.3007  0.3889
   51MOL   H34227442   3.120   2.009   5.225  0.3985  1.0917 -0.3088
   51MOL   H34327443   3.102   2.177   5.207  1.6843 -0.8494  0.1440
   51MOL   H34427444   2.848   2.081   5.105 -0.6639 -0.4393  4.6152
   51MOL   H34527445   2.928   1.939   5.131  2.4681  1.1164  3.5337
   51MOL   H34627446   3.069   2.156   4.967  1.3402  0.1590  0.9436
   51MOL   H34727447   2.971   2.039   4.877  0.9976 -0.5158  0.2252
   51MOL   H34827448   3.356   1.807   5.162  3.0867 -0.4688  0.3363
   51MOL   H34927449   3.397   1.672   5.052 -0.1320 -0.1111  0.4601
   51MOL   H35027450   3.236   1.726   5.069  1.3457 -1.4896 -0.5874
   51MOL   H35127451   3.508   1.997   4.864 -0.5003  2.1972  2.8967
   51MOL   H35227452   3.550   1.826   4.879 -1.1808 -0.4048  0.7968
   51MOL   C35327453   4.012   1.562   5.179  0.2676  0.7169 -0.2266
   51MOL   C35427454   3.908   1.523   5.292 -0.6228 -0.0428 -0.0593
   51MOL   C35527455   3.910   1.621   5.417  0.4918 -0.6292  0.0646
   51MOL   C35627456   3.844   1.758   5.394  0.3870 -0.0971  0.0752
   51MOL   C35727457   3.695   1.753   5.365  0.8368  1.1558 -0.0340
   51MOL   O35827458   3.673   1.860   5.272  0.6943  0.3197 -0.1066
   51MOL   C35927459   3.645   1.835   5.135 -0.0103  0.1506  0.1103
   51MOL   O36027460   3.664   1.728   5.091  0.2053 -0.2626 -0.0949
   51MOL   C36127461   3.599   1.952   5.053  0.2618 -0.1634 -0.8745
   51MOL   C36227462   3.535   2.067   5.134 -0.0574  0.0492 -0.2677
   51MOL   C36327463   3.719   2.018   4.963 -0.0160 -0.0821 -0.0580
   51MOL   H36427464   4.112   1.574   5.220  0.5874  0.3622 -0.9079
   51MOL   H36527465   3.984   1.657   5.132  1.6607  0.9452 -0.6064
   51MOL   H36627466   4.004   1.475   5.115 -0.7552  0.4858  0.2027
   51MOL   H36727467   3.810   1.509   5.247 -0.1453 -3.1788 -0.2077
   51MOL   H36827468   3.936   1.424   5.326  0.4391  0.3471  0.2220
   51MOL   H36927469   4.011   1.625   5.457  0.7754  2.4301 -0.8394
   51MOL   H37027470   3.837   1.584   5.490 -3.1002  2.7132 -1.6232
   51MOL   H37127471   3.905   1.811   5.321 -0.9366  3.9176  1.7857
   51MOL   H37227472   3.854   1.823   5.480 -2.2386  0.2858  0.1342
   51MOL   H37327473   3.662   1.659   5.322  1.9279  1.1899 -0.9602
   51MOL   H37427474   3.648   1.776   5.461  0.9773  0.3723  0.2261
   51MOL   H37527475   3.595   2.107   5.216 -2.2380  0.7395  1.0422
   51MOL   H37627476   3.510   2.144   5.061  0.2536  0.3764 -0.0307
   51MOL   H37727477   3.445   2.036   5.187  0.2117  0.1919  0.2741
   51MOL   H37827478   3.730   1.966   4.868 -1.2347  0.7463 -0.6716
   51MOL   H37927479   3.677   2.108   4.916  1.4213  1.1149  0.9121
   51MOL   C38027480   3.537   2.735   4.963  0.3654  0.7792  0.0984
   51MOL   C38127481   3.528   2.614   5.063 -0.0883  0.3784  0.1198
   51MOL   C38227482   3.656   2.554   5.109 -1.2232  0.0183 -0.2159
   51MOL   C38327483   3.643   2.441   5.203  0.4441  0.2245 -0.6380
   51MOL   C38427484   3.778   2.366   5.222  0.0654  0.2760  0.0224
   51MOL   O38527485   3.797   2.270   5.109  0.9423 -0.4126 -0.3866
   51MOL   C38627486   3.855   2.145   5.137 -0.0717  0.1189 -0.7151
   51MOL   O38727487   3.911   2.119   5.242  0.3657 -0.7588 -0.2434
   51MOL   C38827488   3.865   2.045   5.015 -0.3348 -0.7794 -0.4077
   51MOL   C38927489   3.943   1.920   5.054 -0.0586 -0.2186  0.5313
   51MOL   C39027490   3.936   2.117   4.889  0.2882  0.0176  0.5254
   51MOL   H39127491   3.444   2.737   4.907 -0.1032  0.2861  0.8461
   51MOL   H39227492   3.550   2.833   5.010 -4.2078  0.3750  2.5220
   51MOL   H39327493   3.608   2.726   4.881 -1.9256  0.6609 -1.9213
   51MOL   H39427494   3.486   2.541   4.994 -1.6868 -1.0004  2.4865
   51MOL   H39527495   3.455   2.624   5.143  1.1803 -0.2979  1.3750
   51MOL   H39627496   3.714   2.528   5.020 -0.4726  0.1810  0.2228
   51MOL   H39727497   3.711   2.633   5.160 -0.3772 -1.6008  1.4592
   51MOL   H39827498   3.603   2.485   5.295  2.7391  1.2626 -0.1108
   51MOL   H39927499   3.575   2.362   5.172  0.7338 -0.1976 -0.1990
   51MOL   H40027500   3.776   2.317   5.319 -1.1786 -0.8464 -0.5435
   51MOL   H40127501   3.852   2.445   5.232  1.1552 -0.6731 -0.4946
   51MOL   H40227502   4.045   1.934   5.090  0.2924 -1.0446 -0.1220
   51MOL   H40327503   3.939   1.844   4.976 -0.7435  0.4655 -0.1035
   51MOL   H40427504   3.888   1.886   5.141 -0.9179 -1.5835 -0.5398
   51MOL   H40527505   3.891   2.216   4.881 -1.1709 -0.7650 -1.6519
   51MOL   H40627506   3.911   2.066   4.796  0.4729 -0.4699  0.7421
   51MOL   C40727507   3.950   2.738   5.334 -0.1242 -0.1611  0.0874
   51MOL   C40827508   4.101   2.714   5.344 -0.1139  0.3500 -0.6267
   51MOL   C40927509   4.146   2.564   5.313 -0.3745  0.0224 -0.9513
   51MOL   C41027510   4.138   2.517   5.165  0.6821  0.4220  0.7723
   51MOL   C41127511   4.158   2.364   5.160 -0.5454 -0.0660  0.0037
   51MOL   O41227512   4.129   2.315   5.035 -0.3230  0.2973  0.5393
   51MOL   C41327513   4.151   2.185   5.000  0.5618 -0.8620 -0.1352
   51MOL   O41427514   4.214   2.109   5.072 -0.6991 -0.0698  0.2648
   51MOL   C41527515   4.086   2.141   4.870  0.8011 -0.1819  0.1601
   51MOL   C41627516   4.160   2.008   4.820 -0.0458 -0.2556 -0.5528
   51MOL   C41727517   4.090   2.256   4.751 -0.1356  0.5337 -0.4402
   51MOL   H41827518   3.900   2.664   5.397 -2.0058  1.7803  0.9576
   51MOL   H41927519   3.936   2.835   5.382 -1.7907 -0.2728 -0.1178
   51MOL   H42027520   3.913   2.739   5.232 -1.0521  0.2626  0.4113
   51MOL   H42127521   4.151   2.755   5.432 -0.8544 -1.5139  0.6836
   51MOL   H42227522   4.138   2.782   5.267  0.8094  2.3774  1.5369
   51MOL   H42327523   4.246   2.539   5.350 -1.4897 -0.8711  1.5516
   51MOL   H42427524   4.083   2.504   5.378 -0.5065 -0.0046 -1.1065
   51MOL   H42527525   4.219   2.569   5.114 -0.0935  3.4246  2.4704
   51MOL   H42627526   4.042   2.551   5.128  1.6756  1.8024 -0.5836
   51MOL   H42727527   4.264   2.337   5.169 -0.5019 -0.1751 -0.8141
   51MOL   H42827528   4.102   2.312   5.238 -1.2101 -1.4679 -1.3714
   51MOL   H42927529   4.268   2.020   4.827 -0.4677  2.4999  2.5063
   51MOL   H43027530   4.138   1.975   4.718  1.2516  0.9306 -1.2268
   51MOL   H43127531   4.134   1.921   4.880  0.6600  0.4858  0.8729
   51MOL   H43227532   4.052   2.349   4.794  0.7039  0.7043 -0.0650
   51MOL   H43327533   4.012   2.219   4.685 -0.9719 -0.4271  1.0452
   51MOL   C43427534   3.825   1.673   4.277  0.3520 -0.6708  1.1469
   51MOL   C43527535   3.861   1.800   4.357  0.3317 -0.1953  0.3068
   51MOL   C43627536   4.000   1.856   4.320 -1.1362 -0.0775  0.1579
   51MOL   C43727537   4.040   1.967   4.418 -0.4734  0.5661  0.3374
   51MOL   C43827538   4.140   2.074   4.364 -0.0302  0.3632 -0.3797
   51MOL   O43927539   4.136   2.169   4.472 -0.1498  0.4184  0.0407
   51MOL   C44027540   4.237   2.176   4.560 -0.0710 -0.5882  0.3030
   51MOL   O44127541   4.339   2.104   4.569 -0.1098  0.1570  0.4341
   51MOL   C44227542   4.210   2.289   4.666 -0.1878  0.3351  0.0420
   51MOL   C44327543   4.339   2.302   4.755 -0.8236 -0.3298  0.2435
   51MOL   C44427544   4.177   2.421   4.592  0.0939  0.2241  0.2748
   51MOL   H44527545   3.870   1.576   4.297  3.3589  0.7154  1.3241
   51MOL   H44627546   3.716   1.661   4.270  0.2867  0.3106  0.4423
   51MOL   H44727547   3.854   1.691   4.173 -2.2368  0.8497  0.6262
   51MOL   H44827548   3.798   1.884   4.330  1.2074 -0.3964 -2.6005
   51MOL   H44927549   3.855   1.767   4.461  1.3669 -0.5811  0.2618
   51MOL   H45027550   4.074   1.776   4.311  3.7339  4.0128  1.2151
   51MOL   H45127551   4.008   1.897   4.219  0.2363 -1.0696 -0.1488
   51MOL   H45227552   4.090   1.919   4.502 -1.1250  0.0896  0.4595
   51MOL   H45327553   3.945   2.017   4.437 -0.5120  1.3988 -1.9617
   51MOL   H45427554   4.106   2.126   4.275 -1.0113 -0.2944 -0.4040
   51MOL   H45527555   4.234   2.022   4.347 -1.5189 -2.3515 -0.6189
   51MOL   H45627556   4.351   2.404   4.792 -1.6560  0.2089 -0.9759
   51MOL   H45727557   4.341   2.227   4.835  1.2907  0.5241  1.0357
   51MOL   H45827558   4.435   2.282   4.707 -0.8298  0.7660 -0.2411
   51MOL   H45927559   4.175   2.493   4.674  1.9092  0.8348 -0.1827
   51MOL   H46027560   4.072   2.424   4.563 -0.1816  1.9710  1.3544
   51MOL   C46127561   3.637   2.208   4.135  0.1558  0.2313 -0.1580
   51MOL   C46227562   3.773   2.153   4.094 -0.1003  0.0124  0.1946
   51MOL   C46327563   3.886   2.256   4.084 -0.0800 -0.2345  0.4741
   51MOL   C46427564   3.912   2.330   4.216 -0.2175  0.2218  0.5465
   51MOL   C46527565   4.015   2.438   4.188  0.2750 -0.4755 -0.7556
   51MOL   O46627566   4.079   2.479   4.311  0.1589 -0.1120 -0.5421
   51MOL   C46727567   4.204   2.432   4.339 -0.5390  0.0278 -0.4052
   51MOL   O46827568   4.263   2.355   4.263  0.4881  0.7591  0.1150
   51MOL   C46927569   4.267   2.485   4.470  0.2696  0.2188 -0.0781
   51MOL   C47027570   4.415   2.447   4.473 -0.2559 -0.3625  0.2751
   51MOL   C47127571   4.258   2.640   4.483 -0.0639  0.1184 -1.1294
   51MOL   H47227572   3.632   2.212   4.243 -0.2942 -1.5046 -0.0947
   51MOL   H47327573   3.566   2.134   4.098 -1.5480  1.9951 -0.5411
   51MOL   H47427574   3.615   2.305   4.091 -0.4946  0.7266  1.2353
   51MOL   H47527575   3.756   2.112   3.995 -0.6042 -0.6424  0.5497
   51MOL   H47627576   3.807   2.072   4.159 -1.7572 -0.9064 -0.0604
   51MOL   H47727577   3.861   2.326   4.004 -0.1712 -0.6828  0.1109
   51MOL   H47827578   3.980   2.211   4.054  0.9328  1.5664  0.8687
   51MOL   H47927579   3.948   2.261   4.292  2.5816  1.6725  0.6041
   51MOL   H48027580   3.826   2.377   4.264  0.2028 -0.8126  2.3053
   51MOL   H48127581   4.077   2.399   4.107  1.0706 -0.7646 -0.0173
   51MOL   H48227582   3.958   2.514   4.135 -1.2043 -0.1269  1.2772
   51MOL   H48327583   4.432   2.340   4.484  1.0824 -0.1445  0.3478
   51MOL   H48427584   4.462   2.488   4.562  0.5335  0.6878 -0.6223
   51MOL   H48527585   4.474   2.475   4.386 -1.1538  0.7825  0.0233
   51MOL   H48627586   4.331   2.641   4.564 -0.5462  0.4312 -0.6953
   51MOL   H48727587   4.161   2.660   4.528  0.7121  3.8998 -0.9073
   51MOL   C48827588   3.466   2.692   4.271 -0.2267  0.4375  0.1723
   51MOL   C48927589   3.617   2.666   4.284 -0.7979  0.6221 -0.1626
   51MOL   C49027590   3.684   2.776   4.367 -0.8200 -0.2452 -0.0811
   51MOL   C49127591   3.833   2.758   4.407  0.6170  0.5180  0.3571
   51MOL   C49227592   3.935   2.784   4.298  0.7469 -0.1066  0.7218
   51MOL   O49327593   4.060   2.792   4.358  0.0950 -0.1194 -0.1260
   51MOL   C49427594   4.165   2.764   4.285  0.8329 -0.4437  0.1975
   51MOL   O49527595   4.166   2.746   4.166 -0.3231 -0.5648 -0.4236
   51MOL   C49627596   4.291   2.749   4.373  0.9645 -0.2186  0.3289
   51MOL   C49727597   4.417   2.713   4.282 -0.3212 -0.7560 -0.2891
   51MOL   C49827598   4.302   2.889   4.443  0.0376 -0.0455  0.2145
   51MOL   H49927599   3.447   2.775   4.203  2.9763 -0.4466 -1.9462
   51MOL   H50027600   3.408   2.613   4.223  0.7477  0.0710 -0.4213
   51MOL   H50127601   3.423   2.711   4.369 -1.3636  1.3956 -0.5017
   51MOL   H50227602   3.658   2.641   4.186  0.1485  0.4974  0.2511
   51MOL   H50327603   3.624   2.573   4.340 -1.6057  0.2961 -0.6000
   51MOL   H50427604   3.674   2.869   4.312  2.3208 -1.3811 -2.7523
   51MOL   H50527605   3.623   2.797   4.455  1.3171  1.1654  1.0972
   51MOL   H50627606   3.844   2.652   4.427  2.0714 -0.1780 -3.6972
   51MOL   H50727607   3.848   2.812   4.501  0.2353  1.4239 -0.0964
   51MOL   H50827608   3.932   2.702   4.226  1.5399  0.4539  0.0380
   51MOL   H50927609   3.922   2.883   4.254  3.2603 -0.6183 -1.3079
   51MOL   H51027610   4.393   2.615   4.241 -2.6384 -1.2671  2.1376
   51MOL   H51127611   4.502   2.697   4.349 -0.3387  2.7317  0.6730
   51MOL   H51227612   4.432   2.797   4.214 -0.2638  0.3213  1.0324
   51MOL   H51327613   4.227   2.891   4.522  0.3614  0.1596  0.5160
   51MOL   H51427614   4.263   2.964   4.373  0.2708  1.1172  1.3086
   51MOL   C51527615   4.542   2.970   3.757 -0.2553 -0.1989 -0.3888
   51MOL   C51627616   4.633   3.085   3.811 -0.0141  0.4615  0.3167
   51MOL   C51727617   4.688   3.059   3.952 -0.1260  0.7908 -0.0964
   51MOL   C51827618   4.571   3.054   4.053  0.0058 -0.1769 -0.3721
   51MOL   C51927619   4.619   3.060   4.206  0.4727  0.2167  0.5096
   51MOL   O52027620   4.514   3.036   4.300  0.7122 -0.2411  0.0896
   51MOL   C52127621   4.550   2.964   4.407 -0.4699  0.1573 -0.0942
   51MOL   O52227622   4.663   2.942   4.434 -0.4720  0.2934  0.2730
   51MOL   C52327623   4.439   2.937   4.509  0.4389  0.5697 -0.2110
   51MOL   C52427624   4.488   2.839   4.617 -0.3333 -0.0285  0.2924
   51MOL   C52527625   4.405   3.063   4.599  0.1384 -0.6924 -0.4838
   51MOL   H52627626   4.566   2.878   3.810 -0.9602 -1.2547 -1.8851
   51MOL   H52727627   4.436   2.989   3.775 -0.4254  0.6374 -2.1856
   51MOL   H52827628   4.567   2.946   3.654 -2.4186  1.3591 -1.2915
   51MOL   H52927629   4.715   3.117   3.747  2.2170 -4.2969  0.6012
   51MOL   H53027630   4.571   3.176   3.816 -0.2836  0.2907  0.0999
   51MOL   H53127631   4.744   2.965   3.954  0.5548  1.1197 -2.1109
   51MOL   H53227632   4.763   3.134   3.978 -0.2935  0.8129  0.3261
   51MOL   H53327633   4.513   2.964   4.034 -0.1239 -0.2048  0.1357
   51MOL   H53427634   4.504   3.140   4.043  0.9560  0.6497  0.3496
   51MOL   H53527635   4.701   2.988   4.219  2.7334  2.3782 -1.3502
   51MOL   H53627636   4.658   3.158   4.233  1.5571 -0.3164  0.9205
   51MOL   H53727637   4.406   2.805   4.681  0.7017 -0.2419  1.5179
   51MOL   H53827638   4.575   2.873   4.672  0.5875  0.8228 -1.6622
   51MOL   H53927639   4.521   2.753   4.558  2.7698  1.5105 -0.2877
   51MOL   H54027640   4.354   3.138   4.538 -2.1916 -1.0431  0.9655
   51MOL   H54127641   4.500   3.101   4.636 -0.8496  0.6139  0.7607
   51MOL   H54227642   4.340   3.039   4.683 -2.4822  0.0205 -2.2369
   52MOL     C127643   5.039   3.984   1.312 -0.2204  0.4242 -0.9504
   52MOL     C227644   5.144   4.086   1.270 -0.4217  0.2719 -0.3388
   52MOL     C327645   5.081   4.188   1.179 -0.0954 -0.7783  0.1886
   52MOL     C427646   5.151   4.315   1.147  0.3954 -0.0744 -0.0511
   52MOL     C527647   5.059   4.411   1.068 -0.9099  0.5254  0.5176
   52MOL     O627648   5.115   4.537   1.080  0.3517 -0.0301 -0.3054
   52MOL     C727649   5.039   4.646   1.092 -1.0838  0.3084 -0.5709
   52MOL     O827650   4.923   4.653   1.075  0.2492  0.0842 -0.2898
   52MOL     C927651   5.126   4.770   1.118 -0.4849 -0.4317  0.0071
   52MOL    C1027652   5.215   4.811   0.997  0.1885 -0.2967  0.0649
   52MOL    C1127653   5.222   4.744   1.246  0.2728  0.3883  0.5805
   52MOL    H1227654   4.993   3.945   1.221 -0.1034 -0.8880 -0.4542
   52MOL    H1327655   4.960   4.033   1.369 -0.6267  1.1869 -2.1528
   52MOL    H1427656   5.082   3.912   1.381 -0.7446  0.2089 -0.8508
   52MOL    H1527657   5.186   4.134   1.358 -1.6780  0.0294  0.4148
   52MOL    H1627658   5.236   4.042   1.233 -0.5500 -1.0327  0.8110
   52MOL    H1727659   5.060   4.136   1.086 -1.7343 -1.6724  1.0412
   52MOL    H1827660   4.993   4.220   1.235 -0.2047 -1.0162  0.1497
   52MOL    H1927661   5.240   4.300   1.085  1.6259  1.1972  1.3456
   52MOL    H2027662   5.202   4.350   1.237 -1.3752 -0.5197  1.1412
   52MOL    H2127663   5.054   4.377   0.965  0.9969 -2.3060  1.3094
   52MOL    H2227664   4.960   4.418   1.114 -1.5198  0.4418 -0.7387
   52MOL    H2327665   5.275   4.724   0.971  1.9848  1.3861 -1.5377
   52MOL    H2427666   5.292   4.883   1.023 -0.3783  0.1069  0.6440
   52MOL    H2527667   5.151   4.838   0.912  0.6420  1.5884  0.3030
   52MOL    H2627668   5.321   4.729   1.202 -0.8698  0.3723 -2.0846
   52MOL    H2727669   5.190   4.652   1.296 -2.0961  0.8723 -0.0336
   52MOL    H2827670   5.053   4.849   1.131  0.7940  0.9645 -1.1668
   52MOL    C2927671   5.172   5.021   2.059 -0.4391  0.4421  0.1937
   52MOL    C3027672   5.265   5.028   1.939 -0.0671  0.2872 -0.3287
   52MOL    C3127673   5.195   5.038   1.803 -0.6930 -0.2249  0.0554
   52MOL    C3227674   5.074   4.948   1.775  0.3223 -0.2342 -0.7113
   52MOL    C3327675   5.022   4.963   1.636  0.9324  0.0652  0.4117
   52MOL    O3427676   5.114   4.948   1.532 -0.1984  0.1946  0.1899
   52MOL    C3527677   5.110   4.847   1.451 -0.7502 -0.5314 -0.0531
   52MOL    O3627678   5.021   4.761   1.443  0.3463  0.2120  0.1534
   52MOL    C3727679   5.235   4.853   1.357  0.3258 -0.0242  0.1932
   52MOL    C3827680   5.251   5.001   1.292  0.5115  0.3351 -0.3474
   52MOL    C3927681   5.368   4.841   1.433 -0.3150  0.4615  0.2174
   52MOL    H4027682   5.234   5.022   2.149  1.1332 -0.7607 -0.8522
   52MOL    H4127683   5.102   5.105   2.060  0.2858  1.0609 -0.7135
   52MOL    H4227684   5.129   4.921   2.063  1.4921 -0.3883  0.8192
   52MOL    H4327685   5.326   4.938   1.936  0.8059  0.8604  0.0112
   52MOL    H4427686   5.337   5.109   1.943 -0.4315  0.6695 -1.2738
   52MOL    H4527687   5.265   5.014   1.723 -2.6237 -0.7199 -1.5633
   52MOL    H4627688   5.182   5.146   1.792 -0.3231 -0.1245  0.6124
   52MOL    H4727689   5.093   4.843   1.800  0.0817  0.2845  1.8111
   52MOL    H4827690   5.004   4.995   1.845 -0.3106 -0.7474 -0.9988
   52MOL    H4927691   4.984   5.065   1.634  0.9556  0.0523 -0.9066
   52MOL    H5027692   4.934   4.900   1.625 -0.1668  1.4036  1.3549
   52MOL    H5127693   5.327   4.996   1.215  0.7752  0.8852 -0.1215
   52MOL    H5227694   5.304   5.073   1.355 -1.3485 -0.3736  2.1135
   52MOL    H5327695   5.169   5.043   1.234 -0.5929  0.4015  1.2251
   52MOL    H5427696   5.366   4.923   1.505  0.1299  1.2457 -0.6602
   52MOL    H5527697   5.445   4.868   1.360  0.8655  0.6591  1.5073
   52MOL    C5627698   5.531   4.422   0.738  0.1082 -0.6317 -0.3008
   52MOL    C5727699   5.454   4.447   0.867  0.0326 -0.1293  0.2250
   52MOL    C5827700   5.530   4.432   1.000  0.3828 -0.6136 -0.9435
   52MOL    C5927701   5.479   4.528   1.100  0.7942 -1.0039 -0.1798
   52MOL    C6027702   5.558   4.519   1.234  0.2729  0.0021 -0.3288
   52MOL    O6127703   5.519   4.621   1.323 -0.6332  0.1376  0.7049
   52MOL    C6227704   5.440   4.593   1.430  0.5042 -0.0269  0.2396
   52MOL    O6327705   5.394   4.483   1.463  0.4304  0.2690 -0.5700
   52MOL    C6427706   5.423   4.720   1.519 -0.1627  0.0704  0.2482
   52MOL    C6527707   5.332   4.688   1.634  0.5339 -0.5175  0.2242
   52MOL    C6627708   5.561   4.776   1.589 -0.0281  0.3820  0.0420
   52MOL    H6727709   5.595   4.509   0.725 -0.4153 -0.1836  0.0557
   52MOL    H6827710   5.467   4.405   0.652  1.0073  1.7174 -1.4934
   52MOL    H6927711   5.586   4.328   0.744  0.7153 -0.1036  3.8357
   52MOL    H7027712   5.403   4.542   0.855  1.8203  0.8502  0.1311
   52MOL    H7127713   5.376   4.371   0.862 -1.1869  1.1378 -0.4789
   52MOL    H7227714   5.519   4.330   1.038 -0.4861  0.2233  1.1419
   52MOL    H7327715   5.635   4.440   0.972  0.7421 -1.0788  0.2457
   52MOL    H7427716   5.372   4.518   1.115  0.8547  0.2597  1.2408
   52MOL    H7527717   5.491   4.633   1.075 -1.2585 -0.8461 -0.5473
   52MOL    H7627718   5.544   4.423   1.283 -2.2751  0.4335 -0.1448
   52MOL    H7727719   5.666   4.534   1.233  0.1218  1.2840  0.7836
   52MOL    H7827720   5.322   4.765   1.710  0.9731 -2.7765  2.6282
   52MOL    H7927721   5.351   4.594   1.686 -1.7175 -1.8026 -1.1717
   52MOL    H8027722   5.230   4.674   1.597  0.2322  0.8325  0.5286
   52MOL    H8127723   5.535   4.856   1.658 -1.2863  0.4353 -0.4899
   52MOL    H8227724   5.612   4.834   1.513 -0.6814  1.7505  0.6265
   52MOL    C8327725   5.205   4.748   2.276 -0.1276 -0.4132 -0.3109
   52MOL    C8427726   5.154   4.645   2.175  0.4752 -0.5680 -0.0797
   52MOL    C8527727   5.270   4.559   2.115  0.1259 -0.3040  0.0553
   52MOL    C8627728   5.374   4.638   2.031  0.6999  0.7939  0.4897
   52MOL    C8727729   5.486   4.567   1.959  0.4582  0.9589 -1.2855
   52MOL    O8827730   5.553   4.647   1.858 -0.8204 -0.7723 -0.0607
   52MOL    C8927731   5.621   4.592   1.760 -0.2192  0.4763 -0.4872
   52MOL    O9027732   5.625   4.468   1.745  0.2291  0.0422 -0.3897
   52MOL    C9127733   5.680   4.694   1.657  0.3903  0.1785  0.4610
   52MOL    C9227734   5.757   4.612   1.548  0.3437 -0.5256  0.2025
   52MOL    C9327735   5.773   4.791   1.736  0.2968  0.0398  0.2815
   52MOL    H9427736   5.265   4.829   2.235  0.8871 -0.2821  1.3822
   52MOL    H9527737   5.122   4.800   2.324 -0.8057 -1.0183 -0.8229
   52MOL    H9627738   5.255   4.712   2.366  0.7434 -0.1500 -0.6811
   52MOL    H9727739   5.098   4.696   2.097  0.0929 -1.2359 -0.2447
   52MOL    H9827740   5.080   4.576   2.219 -0.5722  0.1220 -0.7443
   52MOL    H9927741   5.219   4.479   2.062 -0.0454 -1.1861  1.5209
   52MOL   H10027742   5.328   4.497   2.184  0.0320 -0.4352  0.0161
   52MOL   H10127743   5.420   4.707   2.102 -1.6309  0.1811  2.6763
   52MOL   H10227744   5.317   4.702   1.963  1.6016  2.0880  0.9352
   52MOL   H10327745   5.445   4.478   1.912  2.6703 -0.7232 -0.1082
   52MOL   H10427746   5.559   4.528   2.029 -1.7405 -0.7903  0.0890
   52MOL   H10527747   5.704   4.525   1.509 -1.6566  0.4688  0.6278
   52MOL   H10627748   5.844   4.570   1.599  1.5066  2.7663  1.1095
   52MOL   H10727749   5.780   4.667   1.457  0.4565 -0.4561  0.2723
   52MOL   H10827750   5.719   4.862   1.799 -0.9920  1.2837 -2.1071
   52MOL   H10927751   5.820   4.725   1.808 -0.3747  0.4711  1.1176
   52MOL   C11027752   5.473   5.520   1.699 -0.4079 -0.4554 -0.0749
   52MOL   C11127753   5.406   5.411   1.614 -0.5061 -0.0690 -0.3746
   52MOL   C11227754   5.495   5.321   1.532  0.0245  0.7941  0.2364
   52MOL   C11327755   5.577   5.220   1.618  0.4152  0.8173 -0.0487
   52MOL   C11427756   5.679   5.135   1.530  0.1037  0.8464  0.5909
   52MOL   O11527757   5.752   5.047   1.607  0.3139  0.0530  0.2697
   52MOL   C11627758   5.845   4.968   1.559  0.8857 -0.4637 -0.5099
   52MOL   O11727759   5.876   4.964   1.440  0.1420  0.5500 -0.1769
   52MOL   C11827760   5.898   4.875   1.674  0.2639  0.4348 -0.6617
   52MOL   C11927761   6.001   4.780   1.608  0.5934 -0.4856 -0.7940
   52MOL   C12027762   5.967   4.972   1.780 -0.5343 -0.4134 -0.8911
   52MOL   H12127763   5.564   5.482   1.746  0.5720  0.9496 -0.8003
   52MOL   H12227764   5.502   5.606   1.638  0.6104 -0.7606 -0.0279
   52MOL   H12327765   5.407   5.553   1.779 -1.9660 -2.6889 -0.3970
   52MOL   H12427766   5.342   5.347   1.675 -0.5781 -0.7648 -1.1784
   52MOL   H12527767   5.339   5.470   1.551 -0.4001  0.1039 -0.3259
   52MOL   H12627768   5.446   5.264   1.453  0.2108  2.7011 -1.2827
   52MOL   H12727769   5.561   5.380   1.468 -0.5336  0.9273 -0.2156
   52MOL   H12827770   5.511   5.157   1.678  1.5975 -0.0105  0.3876
   52MOL   H12927771   5.630   5.271   1.698 -0.7578  1.5266  0.2878
   52MOL   H13027772   5.627   5.068   1.461  0.8404 -0.4049  1.2396
   52MOL   H13127773   5.744   5.206   1.478 -1.0915  1.2932 -0.3263
   52MOL   H13227774   6.004   4.685   1.661 -0.1341 -0.3290 -0.4646
   52MOL   H13327775   5.975   4.749   1.507  1.5235  1.0946 -1.5345
   52MOL   H13427776   6.099   4.827   1.603  0.8125 -0.8884 -0.3048
   52MOL   H13527777   6.051   5.017   1.726 -0.9367  0.0182 -1.1681
   52MOL   H13627778   5.907   5.060   1.804  0.4086  0.2393 -0.9036
   52MOL   C13727779   5.652   5.255   2.001 -0.2077  0.4610 -0.2569
   52MOL   C13827780   5.578   5.221   2.131  0.3345 -0.0128 -0.4966
   52MOL   C13927781   5.623   5.093   2.188 -0.6420  0.0969  0.0326
   52MOL   C14027782   5.605   4.973   2.095 -0.0565  0.2912  0.3017
   52MOL   C14127783   5.718   4.866   2.106  0.1511 -0.0789  0.2984
   52MOL   O14227784   5.823   4.924   2.022  0.1455  0.0858  0.1347
   52MOL   C14327785   5.932   4.850   1.998 -0.2692 -0.0982 -0.5118
   52MOL   O14427786   5.954   4.736   2.045 -0.4290 -0.2310  0.2052
   52MOL   C14527787   6.037   4.927   1.915  0.5906 -0.1664 -1.1428
   52MOL   C14627788   6.148   4.821   1.882 -0.5700  0.5598  0.4066
   52MOL   C14727789   6.092   5.052   1.990  0.3023  0.2450 -0.4146
   52MOL   H14827790   5.639   5.363   1.991  0.0065  0.4810 -0.3116
   52MOL   H14927791   5.606   5.214   1.911 -4.0310  1.3131  1.2079
   52MOL   H15027792   5.758   5.230   2.004 -0.4642 -0.5303  0.8049
   52MOL   H15127793   5.471   5.215   2.114 -0.0829 -1.3937  2.3040
   52MOL   H15227794   5.587   5.290   2.215  1.1727 -1.0554  0.2888
   52MOL   H15327795   5.728   5.111   2.213 -0.3636  0.7033 -1.5535
   52MOL   H15427796   5.560   5.079   2.276 -0.6384  0.8705  0.1627
   52MOL   H15527797   5.508   4.933   2.125 -0.0430 -0.2326 -0.3398
   52MOL   H15627798   5.594   4.992   1.988  1.2954  1.8846  0.4194
   52MOL   H15727799   5.690   4.772   2.057  1.4635  0.1581 -0.9352
   52MOL   H15827800   5.753   4.837   2.205 -1.7615 -0.9144  0.7550
   52MOL   H15927801   6.095   4.740   1.831  0.5753  0.3518 -0.4762
   52MOL   H16027802   6.196   4.782   1.972 -0.5270 -0.6444 -0.1167
   52MOL   H16127803   6.226   4.870   1.824  1.1759  0.4152  2.5772
   52MOL   H16227804   6.133   5.122   1.917  1.3043  0.9040  0.7712
   52MOL   H16327805   6.010   5.112   2.029  0.1823 -1.3019  1.8380
   52MOL   C16427806   6.927   5.183   2.045 -0.2708 -0.0153  0.4230
   52MOL   C16527807   6.860   5.104   1.929  0.0207  0.2777 -0.4049
   52MOL   C16627808   6.760   4.999   1.974  0.2077 -0.0354 -0.1148
   52MOL   C16727809   6.651   5.049   2.085  0.1097 -0.0846  0.4730
   52MOL   C16827810   6.554   4.936   2.115  0.6227  0.1333 -1.0841
   52MOL   O16927811   6.423   4.978   2.155 -0.5433  0.0332 -0.3147
   52MOL   C17027812   6.340   5.023   2.057 -0.5506  0.0073  0.1282
   52MOL   O17127813   6.377   5.033   1.943 -0.3031  0.3629  0.4168
   52MOL   C17227814   6.194   5.057   2.106  0.3111  0.1167 -0.4822
   52MOL   C17327815   6.151   4.960   2.217 -0.3260  0.3507 -0.1473
   52MOL   C17427816   6.199   5.199   2.181  0.9624 -0.0361  0.1126
   52MOL   H17527817   7.006   5.249   2.010  0.3789 -0.8021  0.3734
   52MOL   H17627818   6.982   5.118   2.115  0.4630 -0.9642 -1.0052
   52MOL   H17727819   6.853   5.241   2.100 -1.4455 -0.1410 -1.0174
   52MOL   H17827820   6.938   5.056   1.871 -0.5208 -1.0101 -0.0939
   52MOL   H17927821   6.803   5.170   1.863  0.0897 -0.2904 -1.0324
   52MOL   H18027822   6.707   4.953   1.890  0.2061 -1.4336  0.6307
   52MOL   H18127823   6.818   4.914   2.010 -1.5391 -2.0314 -1.8668
   52MOL   H18227824   6.588   5.134   2.059  1.5085  0.5699 -0.8276
   52MOL   H18327825   6.693   5.090   2.177 -1.1096  0.4244  0.8215
   52MOL   H18427826   6.590   4.868   2.192 -0.4073  0.1928 -0.5429
   52MOL   H18527827   6.548   4.867   2.032  2.5662 -0.6928 -0.5717
   52MOL   H18627828   6.164   4.856   2.189  3.4469  0.7558 -0.1724
   52MOL   H18727829   6.060   4.991   2.269  0.0162  2.5242 -0.8151
   52MOL   H18827830   6.222   4.971   2.299  0.6635 -0.0812 -0.9378
   52MOL   H18927831   6.107   5.215   2.238  0.7647  0.0322 -0.2220
   52MOL   H19027832   6.278   5.203   2.256 -1.1428 -0.5638  2.4239
   52MOL   C19127833   5.892   5.778   1.591  0.2959  0.4293 -0.3191
   52MOL   C19227834   5.803   5.666   1.628 -0.4438  0.3495 -0.3830
   52MOL   C19327835   5.864   5.524   1.652  0.6115 -0.1941  0.3922
   52MOL   C19427836   5.976   5.517   1.750 -0.1221 -0.4766  0.0897
   52MOL   C19527837   6.022   5.371   1.790 -0.7994  0.0552 -0.2609
   52MOL   O19627838   6.124   5.382   1.893 -0.1174 -0.5563 -0.0746
   52MOL   C19727839   6.093   5.365   2.027 -0.0862  0.0805  0.9771
   52MOL   O19827840   5.982   5.367   2.072 -0.5180  0.0652  0.1027
   52MOL   C19927841   6.218   5.343   2.118 -0.4636 -0.1650 -0.3875
   52MOL   C20027842   6.345   5.343   2.031 -0.3441 -0.8451 -0.1749
   52MOL   C20127843   6.213   5.442   2.231 -0.1365 -0.5001 -0.3543
   52MOL   H20227844   5.929   5.765   1.489  3.1224  3.0509  0.2928
   52MOL   H20327845   5.843   5.875   1.579 -0.9966  0.0158  1.4078
   52MOL   H20427846   5.978   5.795   1.656 -1.9364  3.0717  2.0986
   52MOL   H20527847   5.724   5.662   1.553 -0.7729  0.5720 -0.0568
   52MOL   H20627848   5.743   5.684   1.718 -1.7832  0.2211 -1.2402
   52MOL   H20727849   5.886   5.488   1.552  1.7834 -0.2897  0.6805
   52MOL   H20827850   5.781   5.466   1.692 -0.7919  1.2985 -0.3081
   52MOL   H20927851   6.071   5.556   1.713  0.6612 -2.5004 -0.0892
   52MOL   H21027852   5.943   5.577   1.834  1.0202  1.6650 -0.9445
   52MOL   H21127853   5.938   5.319   1.836  1.0214 -1.6274  1.2706
   52MOL   H21227854   6.059   5.304   1.713  0.3166 -1.0497  1.2102
   52MOL   H21327855   6.432   5.314   2.090 -0.4930  0.7850  0.8791
   52MOL   H21427856   6.364   5.441   1.988 -0.3454 -0.8850 -0.2682
   52MOL   H21527857   6.345   5.284   1.939  3.3139 -1.3782  0.1134
   52MOL   H21627858   6.278   5.410   2.313 -0.8571 -1.0808 -0.0099
   52MOL   H21727859   6.112   5.444   2.270 -0.6468 -1.1506 -1.6335
   52MOL   C21827860   6.509   5.110   2.610  0.2717  0.5067  0.7423
   52MOL   C21927861   6.571   5.162   2.479  0.2888 -0.2843  0.0127
   52MOL   C22027862   6.561   5.317   2.472 -0.5766 -0.5457  0.0049
   52MOL   C22127863   6.622   5.381   2.334 -0.0375 -0.3249 -0.4038
   52MOL   C22227864   6.610   5.528   2.341  0.6972  1.1158 -0.3249
   52MOL   O22327865   6.476   5.566   2.339  0.1443  0.2292 -0.0325
   52MOL   C22427866   6.419   5.591   2.216  0.2829  0.1931  0.0627
   52MOL   O22527867   6.483   5.601   2.107  0.2003  0.0376 -0.3771
   52MOL   C22627868   6.267   5.592   2.215 -0.0245  0.4470  0.6511
   52MOL   C22727869   6.223   5.655   2.350  0.3901  0.8028  0.7542
   52MOL   C22827870   6.192   5.662   2.091 -0.8167  0.3010 -0.3384
   52MOL   H22927871   6.490   5.004   2.591 -0.1651  0.2526  2.5573
   52MOL   H23027872   6.583   5.115   2.690 -0.1693 -2.4855  1.3976
   52MOL   H23127873   6.411   5.148   2.638 -0.4077  0.6438 -1.6639
   52MOL   H23227874   6.532   5.120   2.387 -0.3513  0.6414 -0.1484
   52MOL   H23327875   6.677   5.136   2.485 -0.2244 -2.2708  1.1308
   52MOL   H23427876   6.596   5.363   2.564 -0.1979  0.5089 -0.6538
   52MOL   H23527877   6.453   5.337   2.468 -0.1436  1.8235 -0.7273
   52MOL   H23627878   6.729   5.375   2.314  0.0461  2.5379 -1.0810
   52MOL   H23727879   6.572   5.327   2.253 -0.1676 -0.4006 -0.2723
   52MOL   H23827880   6.671   5.580   2.266  0.3226  1.0669 -0.6687
   52MOL   H23927881   6.654   5.563   2.434 -0.8836 -0.4446  1.0555
   52MOL   H24027882   6.268   5.746   2.389 -0.1840  0.8462  1.3253
   52MOL   H24127883   6.235   5.583   2.432  0.1377 -1.5401 -1.2062
   52MOL   H24227884   6.115   5.664   2.348  0.0675 -2.6091 -1.3178
   52MOL   H24327885   6.086   5.648   2.113 -0.7610 -0.4956 -0.5703
   52MOL   H24427886   6.211   5.598   2.005  0.2333 -1.4393  1.1540
   52MOL   C24527887   6.647   6.022   2.552 -0.1240  0.0554 -0.6725
   52MOL   C24627888   6.536   6.118   2.495  0.2780  0.1348 -0.0567
   52MOL   C24727889   6.414   6.039   2.458  0.2022 -0.1307 -0.0039
   52MOL   C24827890   6.291   6.123   2.419  0.0749 -0.3754 -0.0496
   52MOL   C24927891   6.169   6.046   2.357  0.0995 -0.2091 -0.8299
   52MOL   O25027892   6.212   5.962   2.247  0.6072 -0.3690  0.0482
   52MOL   C25127893   6.125   5.915   2.157 -0.1971  0.3502 -0.8811
   52MOL   O25227894   6.006   5.940   2.154 -0.4903  0.4011  0.5000
   52MOL   C25327895   6.192   5.820   2.050  0.6525  0.3740 -0.1205
   52MOL   C25427896   6.106   5.828   1.921  0.4424  0.0229 -0.1892
   52MOL   C25527897   6.343   5.857   2.019 -0.4466  0.2406 -0.2837
   52MOL   H25627898   6.743   6.073   2.560  0.2273 -0.5871 -0.7106
   52MOL   H25727899   6.621   5.996   2.655 -3.0053  0.6481 -1.2108
   52MOL   H25827900   6.656   5.935   2.487  1.0232 -0.2846 -0.0692
   52MOL   H25927901   6.527   6.196   2.570  0.6176  0.5506 -0.4418
   52MOL   H26027902   6.582   6.173   2.412  1.5115  1.1793  1.2977
   52MOL   H26127903   6.370   5.975   2.535 -1.5041  1.0397  0.0247
   52MOL   H26227904   6.431   5.967   2.379 -0.8768 -1.0256  0.5545
   52MOL   H26327905   6.262   6.184   2.504  1.3802  0.4229 -0.1665
   52MOL   H26427906   6.324   6.202   2.351 -0.9743 -0.2236 -0.3935
   52MOL   H26527907   6.116   5.990   2.434 -1.3233 -1.7669 -2.8729
   52MOL   H26627908   6.099   6.119   2.316 -1.1364 -1.6607 -1.3559
   52MOL   H26727909   6.087   5.930   1.888  1.1840  0.1373 -0.2829
   52MOL   H26827910   6.139   5.769   1.835 -2.1013 -0.6618 -0.7211
   52MOL   H26927911   6.008   5.785   1.940  0.4507  0.0336 -0.1199
   52MOL   H27027912   6.396   5.842   2.113  1.8594  1.2233 -1.3897
   52MOL   H27127913   6.379   5.769   1.965 -1.1103  0.2125 -0.6952
   52MOL   C27227914   6.662   5.875   1.272 -0.3394 -0.5147  0.1474
   52MOL   C27327915   6.529   5.889   1.340  0.0844 -0.3762 -0.0688
   52MOL   C27427916   6.516   5.804   1.464  0.2308 -0.2085  0.2282
   52MOL   C27527917   6.371   5.784   1.495 -0.2247  0.3652 -0.4484
   52MOL   C27627918   6.305   5.893   1.578  0.2361 -0.1684 -0.0009
   52MOL   O27727919   6.347   5.884   1.712  0.0744 -0.4899 -0.9712
   52MOL   C27827920   6.343   5.998   1.792 -0.1756 -0.8945 -0.1926
   52MOL   O27927921   6.308   6.101   1.740 -0.7110 -0.2839 -0.5827
   52MOL   C28027922   6.398   5.988   1.937  0.1749 -0.3383  0.2133
   52MOL   C28127923   6.351   6.110   2.021 -0.2257 -0.0697  0.4301
   52MOL   C28227924   6.556   5.985   1.916  0.3080 -0.2927  0.0914
   52MOL   H28327925   6.743   5.884   1.344  1.1080 -0.3824 -1.4915
   52MOL   H28427926   6.671   5.783   1.215  0.3101 -1.3996  1.6624
   52MOL   H28527927   6.680   5.964   1.212  0.3530  0.9146  2.3963
   52MOL   H28627928   6.497   5.986   1.378 -0.6657 -0.2504 -1.0224
   52MOL   H28727929   6.451   5.872   1.266  2.1167  1.7743 -2.7848
   52MOL   H28827930   6.563   5.707   1.446  0.4253 -0.0390 -0.1705
   52MOL   H28927931   6.564   5.844   1.553 -0.7355  1.4471  0.0225
   52MOL   H29027932   6.310   5.759   1.407  0.6770 -1.1999 -0.6511
   52MOL   H29127933   6.356   5.690   1.548 -0.5479  0.0174 -1.1352
   52MOL   H29227934   6.197   5.879   1.581  0.4695 -1.6393  2.8161
   52MOL   H29327935   6.319   5.990   1.530 -0.0697  1.2059  2.5983
   52MOL   H29427936   6.395   6.111   2.121 -2.4907 -0.3813  1.4453
   52MOL   H29527937   6.371   6.212   1.989 -0.7728  0.3674  1.4702
   52MOL   H29627938   6.242   6.110   2.025 -0.2007 -1.1585  1.2467
   52MOL   H29727939   6.577   5.881   1.888  1.8206  0.4608 -1.6792
   52MOL   H29827940   6.586   6.028   1.821  1.7711  2.8758  1.9346
   52MOL   C29927941   6.430   6.859   1.918 -0.0787  0.4897  0.1162
   52MOL   C30027942   6.403   6.700   1.932  0.3686  0.7090  0.6370
   52MOL   C30127943   6.539   6.624   1.941  0.5259  0.3629 -0.5131
   52MOL   C30227944   6.518   6.466   1.965  0.0916 -0.7071 -0.1882
   52MOL   C30327945   6.642   6.392   1.916  0.4435 -0.8832  0.5183
   52MOL   O30427946   6.624   6.254   1.937 -0.2942  0.8307  0.5093
   52MOL   C30527947   6.667   6.191   2.042  1.0989  0.0466  0.1670
   52MOL   O30627948   6.692   6.247   2.147 -0.2555 -0.4860  0.0288
   52MOL   C30727949   6.671   6.036   2.019 -0.4020  0.0226 -0.1778
   52MOL   C30827950   6.647   5.966   2.158  0.6539 -0.1619 -0.1121
   52MOL   C30927951   6.811   5.994   1.955 -0.2003 -0.2282 -0.6288
   52MOL   H31027952   6.345   6.923   1.942  0.6149  2.4733 -2.5126
   52MOL   H31127953   6.473   6.884   1.821  2.0481  0.5534  1.0483
   52MOL   H31227954   6.507   6.892   1.988 -0.2325  3.0679 -0.8565
   52MOL   H31327955   6.334   6.663   1.856  0.6062  1.1925  0.1871
   52MOL   H31427956   6.354   6.677   2.027  0.6071 -2.1036  0.1245
   52MOL   H31527957   6.597   6.662   2.025 -0.6367  1.8372 -0.3519
   52MOL   H31627958   6.613   6.646   1.864  1.2804 -0.8745 -0.1546
   52MOL   H31727959   6.427   6.438   1.912 -0.1080  0.1128 -0.2844
   52MOL   H31827960   6.503   6.447   2.071 -1.2061 -3.4913 -0.8111
   52MOL   H31927961   6.661   6.414   1.811 -2.1546  0.2695  0.2625
   52MOL   H32027962   6.728   6.437   1.968 -1.9724  3.5484  0.9258
   52MOL   H32127963   6.547   5.957   2.201 -0.0780 -1.8504 -2.1005
   52MOL   H32227964   6.690   5.867   2.171  0.5136  0.0125  1.9798
   52MOL   H32327965   6.693   6.015   2.245  1.5745 -0.2999 -0.5152
   52MOL   H32427966   6.791   6.027   1.853  0.2438 -1.5834 -1.1699
   52MOL   H32527967   6.797   5.885   1.953 -0.8556 -0.1394 -1.1268
   52MOL   C32627968   7.268   6.647   2.348  0.2641 -0.2183  0.6766
   52MOL   C32727969   7.122   6.657   2.302 -0.0708  0.0609 -0.0276
   52MOL   C32827970   7.076   6.611   2.157 -0.1150  0.6131 -0.0460
   52MOL   C32927971   7.056   6.457   2.162 -0.3739  0.2348  1.0323
   52MOL   C33027972   7.118   6.370   2.055 -0.1942 -0.5641  0.1896
   52MOL   O33127973   7.068   6.237   2.066 -0.5197 -0.3218  0.6882
   52MOL   C33227974   6.980   6.189   1.983 -0.1083  1.3962  0.3150
   52MOL   O33327975   6.925   6.244   1.889  0.1599 -0.3840  0.6571
   52MOL   C33427976   6.951   6.038   2.008 -0.0318  0.8422 -0.5581
   52MOL   C33527977   6.955   6.010   2.164 -0.2818  0.2440  0.1550
   52MOL   C33627978   7.066   5.948   1.942  0.2490 -0.0461  0.1091
   52MOL   H33727979   7.328   6.730   2.311  0.6854 -1.6480 -2.0262
   52MOL   H33827980   7.304   6.553   2.305  1.5009  0.9283 -0.8953
   52MOL   H33927981   7.284   6.640   2.455 -1.6820 -1.6571  0.9028
   52MOL   H34027982   7.087   6.760   2.308 -0.4549 -0.0548 -0.3103
   52MOL   H34127983   7.068   6.604   2.380  3.0783  0.7524  2.7574
   52MOL   H34227984   7.155   6.634   2.085 -1.2670 -0.3027 -1.6475
   52MOL   H34327985   6.984   6.661   2.124  0.6334  0.9137 -1.7186
   52MOL   H34427986   6.949   6.436   2.158 -0.0603 -1.1962 -0.9265
   52MOL   H34527987   7.090   6.410   2.254  0.7081 -0.2342  0.4071
   52MOL   H34627988   7.223   6.351   2.035 -0.6556 -0.3820 -2.5785
   52MOL   H34727989   7.091   6.424   1.964 -0.2073  1.9833  1.6728
   52MOL   H34827990   6.901   6.085   2.222 -1.0938 -0.1757 -0.0441
   52MOL   H34927991   7.053   6.001   2.210  0.5503 -1.0195 -1.7692
   52MOL   H35027992   6.902   5.921   2.199  0.4254  0.2717  1.2965
   52MOL   H35127993   7.039   5.843   1.958 -3.1809  0.7177 -0.2700
   52MOL   H35227994   7.156   5.955   2.003 -0.1757  0.0944  0.7210
   52MOL   C35327995   6.429   6.283   1.429 -0.0916  0.7402  0.2015
   52MOL   C35427996   6.522   6.230   1.539  0.1909  0.3101  0.6460
   52MOL   C35527997   6.666   6.204   1.488  0.2442  0.2772 -0.9954
   52MOL   C35627998   6.758   6.146   1.600 -0.1653  0.5004 -0.5340
   52MOL   C35727999   6.901   6.111   1.546 -0.0695 -0.4602  0.2437
   52MOL   O35828000   6.983   6.076   1.645 -0.3028 -0.2492  0.1567
   52MOL   C35928001   7.002   5.953   1.685 -0.2404 -0.0378  0.9193
   52MOL   O36028002   6.922   5.862   1.663 -0.5940  0.3780  0.9840
   52MOL   C36128003   7.124   5.943   1.792 -0.4986 -0.1770  0.1481
   52MOL   C36228004   7.189   5.798   1.773  0.2316  0.0294  0.5301
   52MOL   C36328005   7.222   6.067   1.789 -0.0744 -0.3055  0.0543
   52MOL   H36428006   6.460   6.376   1.382  0.0810  0.8203  0.4757
   52MOL   H36528007   6.333   6.300   1.478 -1.7435 -1.5560 -2.1076
   52MOL   H36628008   6.420   6.215   1.344 -0.1399 -1.8431  2.2040
   52MOL   H36728009   6.516   6.312   1.610  0.9395 -0.1525  1.2629
   52MOL   H36828010   6.482   6.144   1.593 -0.2682  0.3610  0.3881
   52MOL   H36928011   6.713   6.301   1.469  2.5575 -0.1950  1.8872
   52MOL   H37028012   6.652   6.132   1.408  0.0111 -1.7092  0.8070
   52MOL   H37128013   6.713   6.060   1.649  0.7537  0.8736  0.9915
   52MOL   H37228014   6.766   6.221   1.679  1.5672  0.5597 -0.7302
   52MOL   H37328015   6.892   6.043   1.462 -2.7911 -1.9971  1.7039
   52MOL   H37428016   6.939   6.202   1.499 -1.0445 -0.5460 -0.7143
   52MOL   H37528017   7.268   5.760   1.838  1.2152  0.2738 -0.4861
   52MOL   H37628018   7.113   5.721   1.778  3.1622 -3.0805 -0.6519
   52MOL   H37728019   7.229   5.781   1.672 -0.7971  1.2088 -0.0947
   52MOL   H37828020   7.160   6.156   1.781  0.3933  0.0737  0.5912
   52MOL   H37928021   7.271   6.072   1.886  2.6406 -1.1794 -1.2205
   52MOL   C38028022   7.385   5.866   2.385  0.4384  0.5103 -0.3892
   52MOL   C38128023   7.398   5.792   2.259 -0.9504 -0.5603 -0.4672
   52MOL   C38228024   7.479   5.876   2.157 -0.0454 -0.2049 -0.0041
   52MOL   C38328025   7.501   5.797   2.024  0.0842 -0.9498  0.7569
   52MOL   C38428026   7.571   5.876   1.910  0.8868  0.8470  0.5212
   52MOL   O38528027   7.485   5.979   1.861 -0.3614 -0.0199  0.9998
   52MOL   C38628028   7.460   5.989   1.729  0.1617 -0.1970  0.3432
   52MOL   O38728029   7.503   5.912   1.640  0.0239 -0.0538  0.0150
   52MOL   C38828030   7.351   6.095   1.700  0.3547 -0.6479 -0.2837
   52MOL   C38928031   7.301   6.096   1.555 -0.5427  0.4457  0.1766
   52MOL   C39028032   7.397   6.237   1.739 -0.5182 -0.0423 -0.6981
   52MOL   H39128033   7.335   5.802   2.458 -0.7515  2.4415  0.5131
   52MOL   H39228034   7.478   5.892   2.437  0.3300  0.0520  0.0460
   52MOL   H39328035   7.320   5.950   2.363  0.1909  0.8369  1.5288
   52MOL   H39428036   7.304   5.776   2.206 -0.0515 -0.0222 -2.2347
   52MOL   H39528037   7.443   5.694   2.277  0.6146 -0.0060 -1.3381
   52MOL   H39628038   7.426   5.967   2.128 -1.9030 -2.1958 -3.1373
   52MOL   H39728039   7.580   5.906   2.188  0.1410  1.1679 -1.8381
   52MOL   H39828040   7.571   5.715   2.040  0.6202 -0.9790 -1.5993
   52MOL   H39928041   7.405   5.760   1.987 -0.8637  0.8060  1.3793
   52MOL   H40028042   7.609   5.808   1.834 -0.3919  1.1826 -0.4374
   52MOL   H40128043   7.663   5.921   1.948  0.4117  1.7246  0.6370
   52MOL   H40228044   7.228   6.023   1.520 -1.5659  0.8047  1.5176
   52MOL   H40328045   7.379   6.098   1.480 -0.0413 -0.0652  0.6803
   52MOL   H40428046   7.241   6.187   1.549 -1.7020 -0.3941 -1.2346
   52MOL   H40528047   7.457   6.224   1.829 -1.4024  1.9046  0.2060
   52MOL   H40628048   7.309   6.282   1.784  0.5470  0.5688  0.8277
   52MOL   C40728049   0.293   5.988   1.864  0.2798  0.4406 -0.2166
   52MOL   C40828050   0.146   6.042   1.885 -0.7169 -0.1241  0.2661
   52MOL   C40928051   0.081   6.112   1.772 -0.1491 -0.8924  0.6896
   52MOL   C41028052   0.026   6.018   1.652  0.3983 -0.4713 -0.3317
   52MOL   C41128053   7.761   6.100   1.550  0.2382 -0.1177  0.2770
   52MOL   O41228054   7.660   6.177   1.617  0.0553 -0.3808  0.1861
   52MOL   C41328055   7.567   6.260   1.560  0.5225  0.3676 -0.3821
   52MOL   O41428056   7.556   6.280   1.440  0.5160 -0.1435  0.2364
   52MOL   C41528057   7.485   6.340   1.655  0.0013 -0.3923  0.0038
   52MOL   C41628058   7.389   6.439   1.595  0.1400 -0.6942 -0.7700
   52MOL   C41728059   7.580   6.406   1.763 -0.2734 -0.4530 -0.9107
   52MOL   H41828060   0.295   5.911   1.787  1.0659  0.5361 -0.2941
   52MOL   H41928061   0.361   6.066   1.831  0.3564  0.7452  0.6443
   52MOL   H42028062   0.334   5.939   1.953  0.1304 -2.7080 -1.8130
   52MOL   H42128063   0.140   6.109   1.971  1.2509  0.8612 -0.3479
   52MOL   H42228064   0.088   5.954   1.914 -1.7839 -0.8164 -3.6858
   52MOL   H42328065   7.813   6.171   1.812 -0.0123  2.2485 -3.3544
   52MOL   H42428066   0.148   6.190   1.735 -1.8231  1.8188  3.1766
   52MOL   H42528067   7.767   5.947   1.691  0.4685 -0.6328 -0.4955
   52MOL   H42628068   0.104   5.966   1.597 -0.1081 -0.9380 -0.6116
   52MOL   H42728069   0.015   6.172   1.503 -0.5354  0.7172  0.4388
   52MOL   H42828070   7.725   6.032   1.473 -0.9759  1.3728 -0.4803
   52MOL   H42928071   7.435   6.506   1.523  1.4785 -0.9431 -0.1731
   52MOL   H43028072   7.353   6.502   1.676  1.6741  0.9412 -1.3347
   52MOL   H43128073   7.306   6.382   1.554  0.5543 -2.6965  1.0538
   52MOL   H43228074   7.638   6.326   1.809 -0.5543 -1.0816 -1.6202
   52MOL   H43328075   7.514   6.446   1.839 -0.4552 -2.1859 -0.1453
   52MOL   C43428076   0.253   7.182   1.586  0.0165  0.2497 -0.7267
   52MOL   C43528077   0.135   7.143   1.666  0.5184 -0.1905  0.0195
   52MOL   C43628078   0.062   7.020   1.624 -0.0851  0.2818  0.1919
   52MOL   C43728079   7.739   6.997   1.692  0.2425  0.8432 -0.0432
   52MOL   C43828080   7.665   6.881   1.622  0.1166 -0.5194  0.1875
   52MOL   O43928081   7.712   6.751   1.645 -0.0837  0.1502 -0.5373
   52MOL   C44028082   7.623   6.660   1.705  0.1952 -0.8424  0.6455
   52MOL   O44128083   7.508   6.682   1.736 -0.0592 -0.0359 -0.2797
   52MOL   C44228084   7.684   6.517   1.722 -0.3264  0.4215  0.1331
   52MOL   C44328085   7.758   6.477   1.589  0.1993 -0.0479 -0.6266
   52MOL   C44428086   7.803   6.526   1.821 -0.0460 -0.0442 -0.7924
   52MOL   H44528087   0.218   7.230   1.495 -2.0901  1.6593  0.7826
   52MOL   H44628088   0.315   7.256   1.637 -2.2459  0.1278  2.2920
   52MOL   H44728089   0.326   7.101   1.582  0.7514  0.8482  0.1533
   52MOL   H44828090   0.177   7.118   1.764  1.1844 -1.6797 -0.6381
   52MOL   H44928091   0.059   7.221   1.671 -1.6606 -2.1538 -1.5277
   52MOL   H45028092   0.048   7.031   1.516  1.5904 -1.9355 -0.2905
   52MOL   H45128093   0.117   6.927   1.634 -0.9387 -0.4747 -1.8109
   52MOL   H45228094   7.681   7.087   1.678 -0.9648  0.0038 -0.4916
   52MOL   H45328095   7.760   6.991   1.799 -0.5079 -1.0855  0.0104
   52MOL   H45428096   7.680   6.888   1.514  3.3810  1.5126  0.6793
   52MOL   H45528097   7.558   6.885   1.641 -0.0020 -0.1688 -0.5332
   52MOL   H45628098   7.692   6.477   1.502 -0.2390  0.2042 -0.2958
   52MOL   H45728099   0.035   6.530   1.561 -0.9318  1.6033 -1.2148
   52MOL   H45828100   7.806   6.380   1.606  2.3603  1.3993  2.0046
   52MOL   H45928101   0.067   6.588   1.778  0.2842  0.7395  0.9050
   52MOL   H46028102   0.031   6.425   1.821  1.9417  0.7628 -0.4637
   52MOL   C46128103   7.475   6.345   2.581  0.6342  0.6958  0.1298
   52MOL   C46228104   7.472   6.224   2.490 -0.4968 -0.2996 -0.6392
   52MOL   C46328105   7.459   6.253   2.339  0.0689  0.5371 -0.5767
   52MOL   C46428106   7.578   6.329   2.288 -1.1173  0.2152  0.1642
   52MOL   C46528107   7.574   6.341   2.135 -0.6705 -0.1801  0.0352
   52MOL   O46628108   7.687   6.406   2.079  0.3084 -0.1991 -0.7716
   52MOL   C46728109   7.677   6.537   2.052  0.1437 -0.1604 -0.4453
   52MOL   O46828110   7.579   6.611   2.061 -0.1389 -0.4432  0.2862
   52MOL   C46928111   7.797   6.592   1.974 -0.1433 -0.7527  0.4156
   52MOL   C47028112   7.795   6.744   1.950  0.7873  0.1240 -0.0986
   52MOL   C47128113   0.115   6.550   2.043 -0.2990 -0.4455 -1.0697
   52MOL   H47228114   7.576   6.384   2.572  2.6684 -4.3671 -0.4312
   52MOL   H47328115   7.454   6.307   2.681 -0.5453 -0.1934 -0.4277
   52MOL   H47428116   7.408   6.428   2.557  0.0843 -0.1161 -1.2224
   52MOL   H47528117   7.385   6.163   2.514 -0.6515  0.0898 -0.1988
   52MOL   H47628118   7.560   6.161   2.503  0.9580  1.6655 -0.6954
   52MOL   H47728119   7.370   6.312   2.320 -1.8690 -1.2283  2.6561
   52MOL   H47828120   7.458   6.159   2.285  1.0166  1.5592 -2.4372
   52MOL   H47928121   7.672   6.281   2.313 -0.3039  1.1572 -1.0359
   52MOL   H48028122   7.579   6.431   2.326  0.6414  1.1615 -2.2442
   52MOL   H48128123   7.575   6.241   2.092 -0.4415 -0.1992  0.0823
   52MOL   H48228124   7.486   6.385   2.089 -0.1418  0.5819 -0.2655
   52MOL   H48328125   7.811   6.813   2.033 -3.1216  0.4531  0.4813
   52MOL   H48428126   7.700   6.788   1.919  0.1075  0.4494  2.3332
   52MOL   H48528127   0.048   6.783   1.874 -0.4644  2.2221 -0.1777
   52MOL   H48628128   0.192   6.603   1.986 -0.2979  0.5195 -0.1763
   52MOL   H48728129   0.131   6.444   2.022 -0.5917 -0.5685 -0.6592
   52MOL   C48828130   0.606   5.968   2.425 -0.4817  0.3840 -0.4558
   52MOL   C48928131   0.519   5.940   2.308  0.0057  0.8340 -0.6120
   52MOL   C49028132   0.381   6.002   2.326  0.0590  0.1470 -0.7050
   52MOL   C49128133   0.385   6.146   2.276 -0.1520  0.8535 -0.1351
   52MOL   C49228134   0.243   6.204   2.285  0.1924 -0.0217 -0.2232
   52MOL   O49328135   0.240   6.340   2.233 -0.4369 -0.1270  0.4194
   52MOL   C49428136   0.150   6.428   2.269 -0.1821  0.0144 -0.0278
   52MOL   O49528137   0.056   6.413   2.345  0.0531  0.5762 -0.1885
   52MOL   C49628138   0.162   6.565   2.190  0.2639  0.9490  0.3371
   52MOL   C49728139   0.063   6.665   2.266  0.5071  1.1511 -0.0158
   52MOL   C49828140   0.308   6.623   2.181  0.1971 -0.3344  0.5486
   52MOL   H49928141   0.582   5.915   2.517  1.0396  1.0840  0.3523
   52MOL   H50028142   0.713   5.966   2.405 -0.0305 -1.1186  1.9521
   52MOL   H50128143   0.599   6.072   2.457  1.1076  0.4186 -0.1798
   52MOL   H50228144   0.518   5.833   2.290  2.1630  0.9007 -1.2857
   52MOL   H50328145   0.568   5.989   2.223  0.2605  1.8471  0.1105
   52MOL   H50428146   0.314   5.940   2.266 -2.4977  0.2335  1.9780
   52MOL   H50528147   0.345   5.983   2.427 -2.1763  0.6277 -1.3952
   52MOL   H50628148   0.422   6.138   2.174 -0.3427  2.1722 -0.3174
   52MOL   H50728149   0.465   6.203   2.324 -0.2272  0.4250  0.5184
   52MOL   H50828150   0.173   6.152   2.220 -0.0035  1.3154 -1.1088
   52MOL   H50928151   0.209   6.201   2.389 -0.1371  1.1699 -0.2843
   52MOL   H51028152   0.088   6.674   2.372 -1.2201 -1.1372  0.6230
   52MOL   H51128153   7.772   6.636   2.275  0.5173  1.1795  0.1951
   52MOL   H51228154   0.073   6.767   2.230  2.6215  0.4123 -1.6094
   52MOL   H51328155   0.296   6.710   2.116  1.9294 -1.0255 -0.7365
   52MOL   H51428156   0.365   6.546   2.129  0.6328  0.7720 -0.6343
   52MOL   C51528157   0.054   6.200   2.857  0.1614  0.4215 -0.5540
   52MOL   C51628158   0.084   6.286   2.731  0.2375 -0.1324  0.0875
   52MOL   C51728159   0.072   6.433   2.762 -0.4910 -0.5740 -0.3459
   52MOL   C51828160   0.109   6.527   2.646  0.2529  0.0086 -0.2231
   52MOL   C51928161   0.256   6.493   2.595  0.1949 -0.0306 -0.8639
   52MOL   O52028162   0.298   6.588   2.501  0.3530 -0.3765  0.1069
   52MOL   C52128163   0.398   6.567   2.418  1.0760  0.2671 -0.3348
   52MOL   O52228164   0.488   6.485   2.438  0.2200  0.4299 -0.1045
   52MOL   C52328165   0.402   6.664   2.298  0.6925 -0.5246 -0.4617
   52MOL   C52428166   0.381   6.813   2.343  0.0640  0.6644  0.0765
   52MOL   C52528167   0.546   6.669   2.244 -1.3471  0.2928  0.8424
   52MOL   H52628168   7.760   6.189   2.861  0.4437 -2.0032  1.2761
   52MOL   H52728169   0.070   6.098   2.824 -1.0691  0.6624 -1.9584
   52MOL   H52828170   0.099   6.231   2.952 -0.7937  2.4274 -0.7322
   52MOL   H52928171   0.186   6.273   2.695  0.0999 -0.3175 -0.2328
   52MOL   H53028172   0.021   6.251   2.649  0.8938  0.9872 -0.9148
   52MOL   H53128173   7.780   6.446   2.782 -1.0940 -1.2272 -2.9028
   52MOL   H53228174   0.141   6.450   2.844  1.3980  0.0488 -2.0184
   52MOL   H53328175   0.101   6.621   2.700  0.9815 -0.3061  0.4361
   52MOL   H53428176   0.033   6.517   2.568  0.5162  1.9141 -0.7510
   52MOL   H53528177   0.322   6.503   2.680 -1.5674 -0.8969  0.6360
   52MOL   H53628178   0.255   6.395   2.547 -0.4813  0.6199 -2.2189
   52MOL   H53728179   0.390   6.835   2.449  0.4977 -0.2617  0.2306
   52MOL   H53828180   0.279   6.842   2.315  0.1823 -0.2430 -1.3566
   52MOL   H53928181   0.435   6.892   2.290 -0.4945  1.5614  0.8251
   52MOL   H54028182   0.543   6.727   2.151  0.4515 -0.1610  0.4869
   52MOL   H54128183   0.583   6.569   2.223 -1.5988 -0.2098  2.7354
   52MOL   H54228184   0.620   6.722   2.305 -1.9221  0.5791  1.2903
   53MOL     C128185   1.808   0.021   1.464  0.2446 -0.6035 -0.2056
   53MOL     C228186   1.789   0.164   1.419 -0.3140  0.0553  0.2019
   53MOL     C328187   1.923   0.230   1.392 -0.4117  0.0528 -0.2720
   53MOL     C428188   1.910   0.374   1.335  1.3075 -0.0326  0.4852
   53MOL     C528189   2.049   0.441   1.316 -0.3116  0.3452  0.5834
   53MOL     O628190   2.135   0.368   1.238  0.2759  0.6614  0.3521
   53MOL     C728191   2.247   0.435   1.192 -0.0341  0.9737 -0.5512
   53MOL     O828192   2.269   0.552   1.210 -0.1983 -0.2264  0.0656
   53MOL     C928193   2.343   0.337   1.124 -0.0705  0.6705  0.6920
   53MOL    C1028194   2.490   0.365   1.166 -0.9229  0.6487 -0.0080
   53MOL    C1128195   2.325   0.325   0.974  0.1222 -0.4542  0.2284
   53MOL    H1228196   1.712   7.783   1.464 -0.5433  0.8293 -0.3514
   53MOL    H1328197   1.829   0.018   1.571 -1.3583 -1.5213  0.1122
   53MOL    H1428198   1.878   7.774   1.408  0.0642 -1.2483  0.2593
   53MOL    H1528199   1.733   0.162   1.325  2.1850 -0.3732 -1.3280
   53MOL    H1628200   1.725   0.209   1.494 -1.7546  0.6375 -1.3526
   53MOL    H1728201   1.972   0.228   1.489 -1.1564 -0.6313  0.0921
   53MOL    H1828202   1.979   0.168   1.321  0.2367 -1.2194  1.3158
   53MOL    H1928203   1.847   0.440   1.394 -0.0752 -0.4979 -0.4249
   53MOL    H2028204   1.877   0.364   1.231  1.5999 -0.1255  0.3991
   53MOL    H2128205   2.024   0.532   1.261 -2.8512 -1.4492 -1.3874
   53MOL    H2228206   2.091   0.466   1.413  2.2791  0.5291 -0.5531
   53MOL    H2328207   2.513   0.336   1.268  0.5588  1.2858 -0.1467
   53MOL    H2428208   2.521   0.468   1.145  0.9043  0.1099  0.0372
   53MOL    H2528209   2.558   0.310   1.101 -0.2200 -1.1302  2.1955
   53MOL    H2628210   2.417   0.357   0.925 -0.3341 -0.0917 -0.3976
   53MOL    H2728211   2.247   0.393   0.939  0.1641 -0.3004  0.4337
   53MOL    H2828212   2.325   0.244   1.178  0.7867  0.4879  0.6748
   53MOL    C2928213   1.545   7.767   0.785  0.0436  0.1010 -0.3643
   53MOL    C3028214   1.676   0.031   0.773  0.5845 -0.1528  0.0744
   53MOL    C3128215   1.735   0.067   0.907 -0.3473  0.2851  0.0352
   53MOL    C3228216   1.876   0.109   0.890 -0.2121  0.0443  0.4713
   53MOL    C3328217   1.935   0.157   1.024 -0.2089 -0.3035  0.1549
   53MOL    O3428218   2.067   0.203   0.988 -0.0755  0.1165  0.3547
   53MOL    C3528219   2.175   0.117   0.998 -0.2295  0.3865 -0.8208
   53MOL    O3628220   2.170   0.003   1.049  0.2854  0.5633 -0.0701
   53MOL    C3728221   2.302   0.176   0.933  0.4788  0.5210 -1.0145
   53MOL    C3828222   2.423   0.087   0.966 -0.0621 -0.4589  0.1247
   53MOL    C3928223   2.279   0.174   0.776  0.1572 -0.6372 -0.6377
   53MOL    H4028224   1.508   7.755   0.683 -1.2599 -0.1146  0.1292
   53MOL    H4128225   1.570   7.668   0.823  0.3638 -0.3441 -1.7105
   53MOL    H4228226   1.473   7.811   0.854  1.0145  0.5259  0.4074
   53MOL    H4328227   1.649   0.113   0.706  1.3310 -1.0734 -1.3961
   53MOL    H4428228   1.740   7.772   0.722  0.6036 -0.8218  1.0374
   53MOL    H4528229   1.728   7.793   0.972  3.1831 -0.0029  0.1131
   53MOL    H4628230   1.686   0.151   0.957 -0.6419 -0.4395  0.9744
   53MOL    H4728231   1.928   0.019   0.856 -0.0630  0.2871  0.0407
   53MOL    H4828232   1.894   0.193   0.822 -0.1852  2.2728  3.1679
   53MOL    H4928233   1.933   0.073   1.093 -1.4073 -0.9794 -0.6801
   53MOL    H5028234   1.873   0.233   1.072  0.7147 -0.1792  1.1745
   53MOL    H5128235   2.425   0.075   1.074  0.1120 -0.1425  0.1554
   53MOL    H5228236   2.517   0.138   0.944 -0.1023  0.5317  2.1272
   53MOL    H5328237   2.414   7.807   0.911 -0.0039 -0.1250 -0.4660
   53MOL    H5428238   2.179   0.216   0.767  0.1462  0.2161  2.6475
   53MOL    H5528239   2.255   0.071   0.752 -0.4417 -0.8209  0.6877
   53MOL    C5628240   2.982   7.651   0.459  0.6334 -0.0732 -0.0159
   53MOL    C5728241   3.020   7.761   0.561 -0.1142 -0.0426  0.2313
   53MOL    C5828242   2.904   7.798   0.648  0.1277  0.0752  0.1118
   53MOL    C5928243   2.768   7.805   0.578 -0.5020  0.0887 -0.0145
   53MOL    C6028244   2.653   7.806   0.681 -0.4200 -0.3546  0.1993
   53MOL    O6128245   2.532   0.063   0.643 -0.3477 -0.5094 -0.1454
   53MOL    C6228246   2.515   0.202   0.677 -0.6354 -0.4659 -0.4593
   53MOL    O6328247   2.607   0.270   0.720 -0.2396 -0.8734  0.0007
   53MOL    C6428248   2.369   0.239   0.660 -0.1250 -0.3581  0.0957
   53MOL    C6528249   2.359   0.398   0.653  0.1214  0.3368  0.1170
   53MOL    C6628250   2.311   0.165   0.521  0.5703 -0.2071  0.1029
   53MOL    H6728251   3.067   7.606   0.409  0.7531  1.2445 -1.0303
   53MOL    H6828252   2.912   7.674   0.379  1.1999 -1.0836 -0.8066
   53MOL    H6928253   2.938   7.566   0.512 -1.9080  0.5686 -0.9947
   53MOL    H7028254   3.106   7.735   0.623 -1.6825  1.5717  3.1689
   53MOL    H7128255   3.055   0.035   0.506  0.3296 -0.6273 -0.4350
   53MOL    H7228256   2.890   7.724   0.726 -0.0890  0.1648  0.1576
   53MOL    H7328257   2.926   0.081   0.695 -0.5654  0.1259  0.3406
   53MOL    H7428258   2.730   7.725   0.514 -0.0701 -0.1952  0.0765
   53MOL    H7528259   2.757   0.087   0.528 -1.3806  0.5024  0.9612
   53MOL    H7628260   2.621   7.705   0.706 -0.0768  0.0071  2.2568
   53MOL    H7728261   2.692   0.022   0.779 -2.1584 -0.7973  1.0492
   53MOL    H7828262   2.435   0.439   0.587  0.9045 -0.9314  0.2055
   53MOL    H7928263   2.359   0.453   0.747 -0.7308 -1.7371  1.3745
   53MOL    H8028264   2.265   0.419   0.603 -1.3839 -1.9326  1.8682
   53MOL    H8128265   2.203   0.175   0.523  0.4894  0.5666 -3.8621
   53MOL    H8228266   2.331   0.058   0.531  0.8141 -0.0837  0.9660
   53MOL    C8328267   2.543   7.377   0.484  0.5457  0.7558  0.4977
   53MOL    C8428268   2.577   7.432   0.352  0.3018 -0.9446  0.5821
   53MOL    C8528269   2.505   7.556   0.310  0.3399  0.2521  0.9001
   53MOL    C8628270   2.358   7.543   0.316 -0.1660  0.9168 -0.4582
   53MOL    C8728271   2.288   7.661   0.249  0.1431 -0.1746 -0.8031
   53MOL    O8828272   2.351   7.779   0.291  0.0635  0.2591 -0.6297
   53MOL    C8928273   2.279   0.085   0.286 -0.1796 -0.5736  0.1597
   53MOL    O9028274   2.172   0.104   0.233 -0.3426  0.5094  0.4475
   53MOL    C9128275   2.347   0.197   0.369  0.5290  0.5333 -0.3685
   53MOL    C9228276   2.288   0.333   0.339  0.0598 -0.1509 -0.1843
   53MOL    C9328277   2.502   0.196   0.358  0.1421 -0.6653 -0.7284
   53MOL    H9428278   2.595   7.281   0.484  2.5839  1.8283 -0.0231
   53MOL    H9528279   2.589   7.443   0.558 -0.1710  0.4856  1.1956
   53MOL    H9628280   2.434   7.374   0.493  0.4798 -1.4013 -0.6071
   53MOL    H9728281   2.560   7.352   0.280  0.4667 -0.5813  0.1424
   53MOL    H9828282   2.685   7.441   0.344 -0.0489  1.2805 -2.2530
   53MOL    H9928283   2.528   7.554   0.204 -0.3129  0.7615  0.7501
   53MOL   H10028284   2.544   7.651   0.348 -0.4125  1.5641 -1.5209
   53MOL   H10128285   2.317   7.541   0.417  1.4496 -0.8443  0.1784
   53MOL   H10228286   2.321   7.460   0.255  0.0367  0.4865  0.0075
   53MOL   H10328287   2.183   7.653   0.279  0.2229  0.4768 -0.3446
   53MOL   H10428288   2.301   7.651   0.142  2.5491 -1.7325 -0.4092
   53MOL   H10528289   2.347   0.413   0.383  0.3280 -0.6031  0.2872
   53MOL   H10628290   2.190   0.354   0.380  0.7568 -1.3883  2.2348
   53MOL   H10728291   2.275   0.364   0.235 -2.2474 -0.1934  0.0674
   53MOL   H10828292   2.548   0.257   0.435 -0.2343 -1.0173 -0.2180
   53MOL   H10928293   2.534   0.093   0.374  1.3172 -0.3092 -0.7090
   53MOL   C11028294   2.925   0.534   0.642  0.1093  0.1314  0.1703
   53MOL   C11128295   2.851   0.668   0.635  0.0443  0.1145  0.6290
   53MOL   C11228296   2.718   0.659   0.556 -0.1644 -0.6734 -0.2501
   53MOL   C11328297   2.738   0.663   0.403  0.2681  0.1321  0.7865
   53MOL   C11428298   2.611   0.614   0.330  0.0117 -0.1014  0.7085
   53MOL   O11528299   2.602   0.472   0.323 -0.7354 -0.2770 -0.5934
   53MOL   C11628300   2.557   0.404   0.219 -0.4528 -0.2218 -0.4588
   53MOL   O11728301   2.519   0.458   0.114  0.6206  0.1933 -0.0863
   53MOL   C11828302   2.576   0.255   0.234  0.8461 -0.4647 -0.3547
   53MOL   C11928303   2.524   0.184   0.107 -0.1804  0.1797  0.7573
   53MOL   C12028304   2.732   0.213   0.258 -0.3399 -0.9037 -0.4594
   53MOL   H12128305   3.030   0.551   0.665  0.1336 -2.4630  2.3028
   53MOL   H12228306   2.877   0.464   0.711  0.7136 -0.7813 -0.3161
   53MOL   H12328307   2.935   0.495   0.541 -0.6446 -3.1503  1.2967
   53MOL   H12428308   2.834   0.703   0.737  3.9144 -1.0502  1.7392
   53MOL   H12528309   2.917   0.741   0.589  0.3378  0.0641  0.9691
   53MOL   H12628310   2.667   0.566   0.579 -1.3193 -0.0427 -0.1995
   53MOL   H12728311   2.648   0.741   0.573  1.5416  0.9640 -0.9497
   53MOL   H12828312   2.827   0.614   0.363  0.3960  0.1723  1.0220
   53MOL   H12928313   2.755   0.767   0.376 -0.6373 -0.9374 -4.2761
   53MOL   H13028314   2.518   0.651   0.371 -0.9542 -1.7784  0.0778
   53MOL   H13128315   2.614   0.656   0.230 -4.4708  2.1158  1.4175
   53MOL   H13228316   2.585   0.211   0.021 -0.3806 -0.2857  0.4688
   53MOL   H13328317   2.532   0.075   0.113 -0.5728 -0.0380 -2.2384
   53MOL   H13428318   2.428   0.219   0.071  0.8776 -0.2360 -2.6046
   53MOL   H13528319   2.769   0.262   0.347 -0.7457 -1.6637  0.1381
   53MOL   H13628320   2.749   0.108   0.283  2.2747 -0.0475  1.5199
   53MOL   C13728321   3.241   7.464   0.219 -0.2740 -0.0648 -0.7125
   53MOL   C13828322   3.089   7.447   0.194  0.1925  0.1406 -0.1964
   53MOL   C13928323   3.036   7.574   0.137 -0.1679 -0.6924  0.4560
   53MOL   C14028324   2.885   7.567   0.099  0.0232 -0.0802 -0.2636
   53MOL   C14128325   2.828   7.696   0.025 -0.2769 -0.1658  0.3280
   53MOL   O14228326   2.830   7.808   0.107  0.4694  0.8663 -0.0527
   53MOL   C14328327   2.835   0.120   0.047 -0.3753  0.0084  0.0811
   53MOL   O14428328   2.824   0.142   7.739 -0.0673  0.4274 -0.2067
   53MOL   C14528329   2.844   0.239   0.153 -0.4132  0.6784  0.4914
   53MOL   C14628330   2.833   0.378   0.094 -0.8322 -0.5592 -0.4976
   53MOL   C14728331   2.987   0.220   0.233  0.2916  0.0572  0.2696
   53MOL   H14828332   3.279   7.381   0.278 -0.1700 -1.0305 -2.0968
   53MOL   H14928333   3.272   7.554   0.271 -0.0897 -0.8419  0.5427
   53MOL   H15028334   3.291   7.461   0.122  1.2541  1.4019  0.0149
   53MOL   H15128335   3.046   7.432   0.293  0.1819 -1.8200 -0.4713
   53MOL   H15228336   3.084   7.371   0.116  0.0821 -2.6808  2.4511
   53MOL   H15328337   3.048   7.661   0.202 -0.5727 -0.1628 -0.1627
   53MOL   H15428338   3.079   7.611   0.044  0.2633 -0.6262  0.6842
   53MOL   H15528339   2.873   7.486   0.028 -0.9946 -0.8244  0.7389
   53MOL   H15628340   2.820   7.537   0.181  1.4969 -0.7155  0.6765
   53MOL   H15728341   2.730   7.672   7.800 -0.1122 -1.7026  0.8354
   53MOL   H15828342   2.887   7.711   7.749 -1.1395 -0.1933 -0.2492
   53MOL   H15928343   2.906   0.395   0.015  0.6573  1.2612  1.2049
   53MOL   H16028344   2.850   0.453   0.172 -1.1115 -0.2817 -0.7059
   53MOL   H16128345   2.745   0.393   0.032 -0.8368  2.4830  0.1353
   53MOL   H16228346   2.982   0.258   0.335 -0.3261 -1.0744  0.6758
   53MOL   H16328347   2.991   0.115   0.263 -0.6325  0.0724  0.4555
   53MOL   C16428348   3.432   0.928   0.585 -0.4114 -0.2885  0.2674
   53MOL   C16528349   3.380   0.788   0.560  0.6995 -0.9661 -0.0061
   53MOL   C16628350   3.276   0.790   0.444  0.1352  0.0027  0.9117
   53MOL   C16728351   3.239   0.641   0.419 -0.3116  0.0542 -0.1947
   53MOL   C16828352   3.122   0.615   0.322  0.1445 -0.1858  0.0421
   53MOL   O16928353   3.124   0.473   0.308 -0.1660  0.1244  0.5398
   53MOL   C17028354   3.133   0.414   0.186 -0.4421 -0.1948  0.2492
   53MOL   O17128355   3.137   0.476   0.085  0.4876  0.3421 -0.2345
   53MOL   C17228356   3.120   0.260   0.175 -0.1111 -0.0141  0.0828
   53MOL   C17328357   3.129   0.201   0.031 -0.0647  0.1763 -0.2708
   53MOL   C17428358   3.240   0.197   0.258  0.3238  0.0202  0.0619
   53MOL   H17528359   3.500   0.938   0.670 -0.3685 -1.0688  0.3284
   53MOL   H17628360   3.358   1.006   0.600  0.7278  0.5752  1.4863
   53MOL   H17728361   3.494   0.962   0.503 -1.4877  1.0980  0.0160
   53MOL   H17828362   3.333   0.745   0.648  0.5696 -0.2687  0.2705
   53MOL   H17928363   3.456   0.716   0.529  1.5776  0.3340 -0.9476
   53MOL   H18028364   3.192   0.849   0.479  0.7647  1.3075  0.2848
   53MOL   H18128365   3.311   0.840   0.353 -4.6740 -0.3446 -1.3014
   53MOL   H18228366   3.205   0.596   0.512  2.0828 -0.7744  0.3058
   53MOL   H18328367   3.327   0.593   0.377  1.1564  1.1260  1.6163
   53MOL   H18428368   3.132   0.662   0.224 -0.6788 -1.8134 -0.8508
   53MOL   H18528369   3.023   0.644   0.359 -0.0466  1.6004 -1.7832
   53MOL   H18628370   3.110   0.095   0.015 -2.8006  0.3315  1.5667
   53MOL   H18728371   3.221   0.230   7.795 -1.1267  1.8345 -1.3171
   53MOL   H18828372   3.058   0.256   7.782 -0.5374  1.0152  0.9868
   53MOL   H18928373   3.247   0.244   0.356 -1.3537 -2.6318  1.5172
   53MOL   H19028374   3.210   0.096   0.286 -2.4151  0.9495  0.6273
   53MOL   C19128375   3.531   7.650   7.489  0.4332 -0.7711 -0.8019
   53MOL   C19228376   3.381   7.642   7.460 -0.1090 -0.0853  0.0244
   53MOL   C19328377   3.288   7.631   7.579  0.4551  0.6163 -0.1743
   53MOL   C19428378   3.301   7.737   7.684 -0.0774 -0.0226 -0.0337
   53MOL   C19528379   3.405   7.708   7.799 -0.0950 -0.2062  0.1506
   53MOL   O19628380   3.377   7.800   0.096 -0.1692 -0.0012  0.2440
   53MOL   C19728381   3.418   0.110   0.090  0.0438  1.3314  1.1034
   53MOL   O19828382   3.469   0.154   7.802  0.1311  0.4831  0.6535
   53MOL   C19928383   3.393   0.192   0.220  0.3554  0.3392  0.3220
   53MOL   C20028384   3.449   0.113   0.343  0.2048  0.1189 -0.1452
   53MOL   C20128385   3.446   0.341   0.205  0.3998  0.0753  0.3083
   53MOL   H20228386   3.564   7.571   7.556 -1.4770 -2.1106 -1.3769
   53MOL   H20328387   3.592   7.643   7.399  1.4974 -1.4311 -0.0359
   53MOL   H20428388   3.545   7.747   7.536  1.2451 -1.3369  0.1196
   53MOL   H20528389   3.353   7.566   7.388  0.4434 -0.3155  0.0502
   53MOL   H20628390   3.362   7.742   7.420 -0.3521 -0.2298 -0.2215
   53MOL   H20728391   3.301   7.537   7.632 -0.0478  2.0797  2.6377
   53MOL   H20828392   3.187   7.644   7.540 -0.3286  0.7255  1.8400
   53MOL   H20928393   3.304   0.023   7.641 -1.1564 -0.1845 -0.4973
   53MOL   H21028394   3.207   7.724   7.738  0.7341  0.4692  1.5162
   53MOL   H21128395   3.397   7.602   0.009 -1.3211 -0.0725  0.3311
   53MOL   H21228396   3.507   7.723   7.762 -0.4124  3.8618  0.6744
   53MOL   H21328397   3.546   0.067   0.322  0.3456  1.1462 -1.8391
   53MOL   H21428398   3.398   0.026   0.385  1.4891 -0.4864  0.1958
   53MOL   H21528399   3.458   0.172   0.434 -3.0404 -2.2139  1.8189
   53MOL   H21628400   3.381   0.407   0.263  0.7173  2.5363 -2.0571
   53MOL   H21728401   3.415   0.378   0.107  0.0576 -1.3174 -0.1133
   53MOL   C21828402   3.229   0.219   0.678 -0.0479 -0.7015  0.3431
   53MOL   C21928403   3.303   0.332   0.742  0.5510  0.1295  0.4232
   53MOL   C22028404   3.431   0.382   0.661 -0.4770 -0.0001 -0.0377
   53MOL   C22128405   3.548   0.287   0.671 -0.6670 -0.2029  0.1090
   53MOL   C22228406   3.664   0.330   0.588 -1.4841 -0.9199  0.4945
   53MOL   O22328407   3.632   0.323   0.451  0.0840 -0.2619 -0.4442
   53MOL   C22428408   3.618   0.423   0.374 -0.1763 -0.1824 -0.5020
   53MOL   O22528409   3.631   0.537   0.414 -0.0824  0.2183 -0.2394
   53MOL   C22628410   3.596   0.388   0.229  0.1288 -0.1849  0.1898
   53MOL   C22728411   3.609   0.519   0.151  0.0457 -0.1375  0.2332
   53MOL   C22828412   3.694   0.279   0.160 -0.1995 -0.0504 -0.2535
   53MOL   H22928413   3.171   0.243   0.590  1.4304 -2.3985 -1.1286
   53MOL   H23028414   3.298   0.140   0.649  2.1591  0.9947  0.8012
   53MOL   H23128415   3.160   0.176   0.751  0.1517 -0.9263  0.3986
   53MOL   H23228416   3.348   0.312   0.839  3.3753 -0.3682 -0.9401
   53MOL   H23328417   3.231   0.412   0.760 -0.4672 -0.8054  0.4958
   53MOL   H23428418   3.453   0.482   0.697  0.2854 -0.3744  0.5463
   53MOL   H23528419   3.405   0.393   0.555 -0.8188  1.4641  0.1939
   53MOL   H23628420   3.570   0.291   0.778  2.0806  3.3149 -0.4880
   53MOL   H23728421   3.517   0.184   0.655  0.5522 -0.5918  0.1664
   53MOL   H23828422   3.745   0.259   0.603 -0.4308  0.0806 -0.3684
   53MOL   H23928423   3.702   0.425   0.626 -0.9295  0.1423 -2.5937
   53MOL   H24028424   3.615   0.509   0.043  0.5674  0.6483  0.1838
   53MOL   H24128425   3.702   0.572   0.169 -0.9838  2.3447 -1.3934
   53MOL   H24228426   3.535   0.594   0.179 -0.4859 -0.5363 -0.0844
   53MOL   H24328427   3.674   0.304   0.055 -0.1750 -0.1268 -0.2763
   53MOL   H24428428   3.652   0.179   0.175 -0.2223 -0.0748 -0.4674
   53MOL   C24528429   3.721   7.376   0.651 -0.6474  0.2672  0.0292
   53MOL   C24628430   3.702   7.465   0.534  0.4561 -0.2696 -0.0418
   53MOL   C24728431   3.786   7.595   0.545 -0.4028 -0.0437 -0.6701
   53MOL   C24828432   3.768   7.687   0.424  0.5411 -0.3174  0.6137
   53MOL   C24928433   3.865   7.808   0.428 -0.2473  0.6852 -0.1668
   53MOL   O25028434   3.831   0.079   0.325 -0.1081 -0.3899 -0.1210
   53MOL   C25128435   3.883   0.199   0.308  0.1839 -0.4331  0.6101
   53MOL   O25228436   3.952   0.254   0.393  0.7804  0.2212  0.1895
   53MOL   C25328437   3.846   0.273   0.170  0.9160 -0.1954  0.2811
   53MOL   C25428438   3.915   0.409   0.150 -0.6190 -0.2924  0.2989
   53MOL   C25528439   3.883   0.169   0.053 -0.2336 -0.2826 -0.8569
   53MOL   H25628440   3.813   7.319   0.660 -0.7568 -0.0639 -0.9409
   53MOL   H25728441   3.723   7.421   0.751  0.9831 -2.4063  1.2672
   53MOL   H25828442   3.640   7.303   0.654  0.7899 -1.3152  1.8954
   53MOL   H25928443   3.721   7.418   0.438  0.7422  1.3643 -0.8018
   53MOL   H26028444   3.597   7.494   0.538  0.2755 -1.0133  0.7301
   53MOL   H26128445   3.890   7.561   0.543  0.2575  1.8686  0.1197
   53MOL   H26228446   3.764   7.641   0.641 -0.8688  0.6583 -1.1087
   53MOL   H26328447   3.812   7.632   0.341  2.5511  0.3529  1.1932
   53MOL   H26428448   3.667   7.722   0.404  0.5677 -2.7190 -4.5685
   53MOL   H26528449   3.852   0.050   0.521  1.2612  2.6889 -1.1149
   53MOL   H26628450   3.962   7.763   0.409  0.1414  0.4836  2.0791
   53MOL   H26728451   4.023   0.401   0.154 -0.5954 -0.8900 -1.2001
   53MOL   H26828452   3.892   0.445   0.049  0.4479 -0.7999 -0.1231
   53MOL   H26928453   3.878   0.479   0.225 -0.0695 -1.9350  2.1381
   53MOL   H27028454   3.835   0.072   0.069 -0.0823 -0.0560  1.1190
   53MOL   H27128455   3.830   0.210   7.781 -1.2846  0.5093  0.1566
   53MOL   C27228456   4.476   0.407   7.183 -0.0579  0.6573  0.4251
   53MOL   C27328457   4.367   0.322   7.261 -0.1059  0.6224  0.3657
   53MOL   C27428458   4.296   0.403   7.374  0.1391 -0.4727 -0.5161
   53MOL   C27528459   4.209   0.316   7.462  0.2528 -0.6872  0.0925
   53MOL   C27628460   4.132   0.398   7.558  0.5606 -0.1955 -0.1559
   53MOL   O27728461   4.053   0.318   7.652  0.1125  0.0446  0.7913
   53MOL   C27828462   4.113   0.265   7.762  0.0596  0.4734  0.0571
   53MOL   O27928463   4.222   0.315   7.795  0.5251 -0.2037 -0.2477
   53MOL   C28028464   4.037   0.144   0.015 -0.4741 -0.3334  0.0352
   53MOL   C28128465   4.129   0.112   0.135 -0.3500  0.9512  0.1192
   53MOL   C28228466   4.053   0.032   7.716  0.1640 -0.0378  0.0498
   53MOL   H28328467   4.430   0.489   7.128 -1.6845 -1.8181 -2.0582
   53MOL   H28428468   4.551   0.443   7.253 -1.1711  2.3340  0.7967
   53MOL   H28528469   4.528   0.349   7.106 -1.7295 -1.2432  0.6949
   53MOL   H28628470   4.295   0.273   7.195  1.4376 -0.6576 -0.4198
   53MOL   H28728471   4.429   0.246   7.309  2.3004 -0.3480 -3.9189
   53MOL   H28828472   4.364   0.447   7.447 -1.0046 -2.9301  2.1489
   53MOL   H28928473   4.236   0.482   7.329  0.5932 -1.4799 -2.9702
   53MOL   H29028474   4.134   0.257   7.409  0.7574  0.5612 -2.0576
   53MOL   H29128475   4.273   0.249   7.519 -0.8661 -1.7413  0.1309
   53MOL   H29228476   4.056   0.462   7.512 -2.0251 -0.9421  2.8646
   53MOL   H29328477   4.199   0.471   7.604  0.1296  0.4128 -0.4829
   53MOL   H29428478   4.090   0.020   0.177  3.5819 -1.0370 -0.3345
   53MOL   H29528479   4.223   0.080   0.091  0.6995  1.2100  2.1101
   53MOL   H29628480   4.149   0.198   0.199  1.8793  0.9930 -0.5989
   53MOL   H29728481   4.019   0.075   7.622  1.5822 -0.3412 -0.6244
   53MOL   H29828482   4.160   0.013   7.701 -0.1390 -2.1943  0.4712
   53MOL   C29928483   4.580   7.391   0.136 -0.5321  0.7974  0.4092
   53MOL   C30028484   4.487   7.488   0.215 -0.1821 -0.3468  0.1207
   53MOL   C30128485   4.339   7.467   0.180 -0.3663 -0.2282  0.4806
   53MOL   C30228486   4.253   7.555   0.268  0.8360  0.0015  0.3803
   53MOL   C30328487   4.108   7.546   0.220 -0.1666  0.1080 -0.1654
   53MOL   O30428488   4.093   7.600   0.088  0.1751  0.2010 -0.4152
   53MOL   C30528489   3.976   7.637   0.035 -0.2902  0.9138  0.2006
   53MOL   O30628490   3.869   7.623   0.094 -0.2920 -0.4672 -0.5094
   53MOL   C30728491   3.988   7.706   7.711  0.1155 -0.2432  0.5235
   53MOL   C30828492   3.845   7.710   7.651 -0.4233  0.2478  0.7401
   53MOL   C30928493   4.077   7.607   7.621  0.6593 -0.8487  0.0247
   53MOL   H31028494   4.545   7.397   0.033 -1.6543  0.6848  0.7733
   53MOL   H31128495   4.577   7.287   0.169 -2.9681  0.0019 -2.1029
   53MOL   H31228496   4.687   7.408   0.139 -0.5528  1.2641 -1.1027
   53MOL   H31328497   4.522   7.592   0.219 -0.2417 -0.3100 -0.3391
   53MOL   H31428498   4.499   7.466   0.321 -2.8695 -2.3264  0.0504
   53MOL   H31528499   4.315   7.362   0.196 -2.5507  0.1665 -0.1162
   53MOL   H31628500   4.319   7.481   0.073 -0.2652  0.1788  0.5155
   53MOL   H31728501   4.278   7.661   0.277  0.1239  0.0220  2.4921
   53MOL   H31828502   4.259   7.523   0.372  0.4642 -0.2878  0.3164
   53MOL   H31928503   4.057   7.450   0.225 -2.4436  1.1507 -2.2873
   53MOL   H32028504   4.059   7.619   0.284 -2.0925 -0.3619 -1.0625
   53MOL   H32128505   3.774   7.746   7.725  0.5129 -0.9333  2.2397
   53MOL   H32228506   3.831   7.793   7.581  0.5374 -0.9514 -0.8992
   53MOL   H32328507   3.812   7.615   7.610  2.3436 -0.0433 -0.9745
   53MOL   H32428508   4.056   7.503   7.644  0.1088 -0.7542 -0.0460
   53MOL   H32528509   4.175   7.629   7.663  0.6507 -0.6326 -0.0614
   53MOL   C32628510   3.647   7.308   0.112 -0.1749 -0.2617 -0.2240
   53MOL   C32728511   3.694   7.239   7.795  0.2710  0.3552 -0.0148
   53MOL   C32828512   3.729   7.336   7.684 -0.3640  0.2998 -0.0565
   53MOL   C32928513   3.783   7.259   7.554 -0.6628  0.3006  0.5813
   53MOL   C33028514   3.812   7.344   7.429  0.6450  0.1652  0.3262
   53MOL   O33128515   3.925   7.417   7.471  0.2868  0.3491 -0.5003
   53MOL   C33228516   3.949   7.534   7.414  0.1424 -0.7763 -0.4928
   53MOL   O33328517   3.872   7.589   7.337  0.0963 -0.3021  0.7540
   53MOL   C33428518   4.078   7.602   7.460  0.9640  0.6932 -0.0640
   53MOL   C33528519   4.078   7.745   7.403  0.2808  0.5042  0.5117
   53MOL   C33628520   4.204   7.511   7.423 -0.0598 -0.4018 -0.3211
   53MOL   H33728521   3.604   7.231   0.176  2.9197  1.2903  3.9948
   53MOL   H33828522   3.566   7.377   0.090 -0.0577  0.7283  2.3111
   53MOL   H33928523   3.720   7.365   0.170 -2.0855  1.2427  0.7493
   53MOL   H34028524   3.615   7.174   7.757 -0.4614  1.4274 -0.3792
   53MOL   H34128525   3.783   7.182   0.006  0.5218  0.4922 -0.5946
   53MOL   H34228526   3.800   7.415   7.711  0.0171  0.4335 -1.3786
   53MOL   H34328527   3.637   7.385   7.651 -1.1252 -1.8337 -1.1576
   53MOL   H34428528   3.708   7.190   7.517 -0.8362  0.0066  1.4887
   53MOL   H34528529   3.867   7.197   7.584  0.0330  0.4673 -0.9261
   53MOL   H34628530   3.726   7.407   7.410 -0.0167 -1.2116 -1.4503
   53MOL   H34728531   3.825   7.295   7.332 -1.1721  0.2447  0.0390
   53MOL   H34828532   4.159   7.804   7.445  0.8994 -1.3176  1.9653
   53MOL   H34928533   3.985   7.796   7.429  0.3682 -0.0030  1.8994
   53MOL   H35028534   4.079   7.746   7.294  1.8763 -2.5726  0.4569
   53MOL   H35128535   4.185   7.423   7.485  1.9212 -0.0592  0.8095
   53MOL   H35228536   4.295   7.551   7.467  0.3298 -0.3579 -1.1617
   53MOL   C35328537   4.911   7.719   7.066  0.7279 -0.8206 -0.0049
   53MOL   C35428538   4.771   7.789   7.044  0.2519  0.4297  0.2999
   53MOL   C35528539   4.674   7.759   7.159  0.9760  0.2091 -0.0568
   53MOL   C35628540   4.537   0.005   7.137  0.0333  0.0180 -0.2672
   53MOL   C35728541   4.426   7.802   7.236 -0.1805  0.1544  0.8497
   53MOL   O35828542   4.392   7.668   7.259 -0.0531 -0.1348  0.1992
   53MOL   C35928543   4.285   7.610   7.198  0.1389 -0.0284 -0.5244
   53MOL   O36028544   4.220   7.669   7.114  0.0206  0.2835 -0.2515
   53MOL   C36128545   4.240   7.481   7.269 -0.1375  0.3571  0.2755
   53MOL   C36228546   4.126   7.415   7.187 -0.3730  0.1895  0.7692
   53MOL   C36328547   4.362   7.373   7.264 -0.7010  0.7481 -0.3474
   53MOL   H36428548   4.904   7.613   7.041 -1.1637 -0.5711 -0.6317
   53MOL   H36528549   4.955   7.737   7.163  1.0051 -1.4306 -0.0147
   53MOL   H36628550   4.991   7.760   7.004  0.5184  0.1544  0.3597
   53MOL   H36728551   4.779   0.083   7.029 -1.2898  0.2969 -1.6458
   53MOL   H36828552   4.724   7.751   6.953 -0.0087  3.5946 -0.9593
   53MOL   H36928553   4.702   7.792   7.259  0.4383  2.1141 -0.5009
   53MOL   H37028554   4.663   7.651   7.153  1.3257  0.2805 -2.8197
   53MOL   H37128555   4.512   7.779   7.039 -0.3343 -1.2254  0.3275
   53MOL   H37228556   4.544   0.113   7.124  0.3231  0.0697  0.2784
   53MOL   H37328557   4.458   0.033   7.330  1.9117 -0.5354  0.4711
   53MOL   H37428558   4.343   0.055   7.212 -0.5888 -1.3271 -2.1020
   53MOL   H37528559   4.154   7.406   7.082 -2.4608 -1.0759  0.3027
   53MOL   H37628560   4.093   7.321   7.230 -0.0353 -0.0038  0.6128
   53MOL   H37728561   4.047   7.490   7.189 -1.6653 -1.1955  2.1392
   53MOL   H37828562   4.435   7.416   7.334 -0.7255  2.9102 -1.6104
   53MOL   H37928563   4.329   7.286   7.321  1.0332 -0.1605 -0.6718
   53MOL   C38028564   4.647   7.172   6.456  0.2515  0.2433  0.5870
   53MOL   C38128565   4.517   7.138   6.532  0.1062 -0.4883 -0.2481
   53MOL   C38228566   4.522   7.136   6.684  0.6094 -0.7409  0.0633
   53MOL   C38328567   4.391   7.086   6.749 -0.6337  0.4758  0.3410
   53MOL   C38428568   4.408   7.045   6.892  0.8531  0.1001 -0.1228
   53MOL   O38528569   4.456   7.152   6.972  0.1618 -0.0904  0.3790
   53MOL   C38628570   4.382   7.194   7.074 -0.5306  0.3086 -0.3608
   53MOL   O38728571   4.284   7.141   7.127  0.6735 -0.2992  0.5301
   53MOL   C38828572   4.445   7.324   7.134  0.1423 -0.1210  0.0169
   53MOL   C38928573   4.461   7.434   7.017  0.5226  0.2878 -0.5693
   53MOL   C39028574   4.601   7.296   7.174 -0.5485 -0.1959 -0.1125
   53MOL   H39128575   4.649   7.280   6.448 -1.1251  0.1575 -1.4187
   53MOL   H39228576   4.744   7.132   6.486  0.8876  0.7223 -0.7727
   53MOL   H39328577   4.642   7.143   6.351  0.0422  0.6686  0.4816
   53MOL   H39428578   4.473   7.049   6.489  3.3030 -2.2943  0.0429
   53MOL   H39528579   4.450   7.217   6.499  0.6889 -0.8421 -2.3060
   53MOL   H39628580   4.614   7.083   6.707  1.0244 -0.0452  0.0097
   53MOL   H39728581   4.544   7.240   6.707 -1.3043 -0.4488  0.6859
   53MOL   H39828582   4.314   7.164   6.743  0.6809  2.0119  2.6121
   53MOL   H39928583   4.355   6.991   6.709  0.9456 -0.3064  0.7254
   53MOL   H40028584   4.482   6.965   6.899 -0.7362 -1.3305  0.8191
   53MOL   H40128585   4.317   7.005   6.937 -0.4782  3.4552  0.3185
   53MOL   H40228586   4.506   7.528   7.048  0.7530 -0.0608  0.1765
   53MOL   H40328587   4.364   7.451   6.969 -0.1169 -0.5665  0.4024
   53MOL   H40428588   4.524   7.410   6.932  2.5487  1.7195  0.4990
   53MOL   H40528589   4.627   7.385   7.231  0.2217  0.5650 -1.6175
   53MOL   H40628590   4.666   7.286   7.087 -0.3662  0.2897 -0.0334
   53MOL   C40728591   4.081   7.172   0.055 -0.2270 -0.4708 -0.1143
   53MOL   C40828592   4.164   7.258   7.769  0.3580  0.0605 -0.2565
   53MOL   C40928593   4.308   7.214   7.740 -0.1259  0.1412 -0.3795
   53MOL   C41028594   4.369   7.260   7.608 -0.9452 -0.4113  0.3573
   53MOL   C41128595   4.509   7.204   7.609  0.3492 -0.1164  0.4866
   53MOL   O41228596   4.575   7.229   7.486  0.3916  0.1155 -0.0175
   53MOL   C41328597   4.562   7.142   7.383 -0.6520 -0.6111  0.3244
   53MOL   O41428598   4.479   7.048   7.372  0.2229  0.0874 -0.0094
   53MOL   C41528599   4.652   7.171   7.263 -0.9483 -0.1077  0.5134
   53MOL   C41628600   4.665   7.043   7.173  0.3586 -0.3687  0.4173
   53MOL   C41728601   4.793   7.219   7.307  0.6967 -0.0255  0.1191
   53MOL   H41828602   4.043   7.083   0.005 -1.4897 -0.5209  0.8993
   53MOL   H41928603   4.126   7.150   0.152  1.5916 -2.0714 -1.2789
   53MOL   H42028604   3.993   7.229   0.086  1.1462  1.7065 -0.1578
   53MOL   H42128605   4.168   7.364   7.795 -0.9996  0.3722 -1.2723
   53MOL   H42228606   4.116   7.253   7.671 -1.0528  1.2274  0.3443
   53MOL   H42328607   4.376   7.243   0.006 -0.6738 -1.1304  0.5707
   53MOL   H42428608   4.305   7.106   7.753 -1.6950  0.1895 -0.1696
   53MOL   H42528609   4.375   7.368   7.595  0.4706 -0.7392 -2.0285
   53MOL   H42628610   4.313   7.222   7.522 -0.2369  0.0503 -0.3165
   53MOL   H42728611   4.564   7.260   7.685 -0.6154  1.5288  0.0167
   53MOL   H42828612   4.511   7.096   7.623 -3.2032 -0.3537 -0.2697
   53MOL   H42928613   4.731   7.065   7.089  0.3491 -1.1767  0.1926
   53MOL   H43028614   4.563   7.021   7.141 -0.0389  0.3028  1.1926
   53MOL   H43128615   4.710   6.956   7.222 -0.0548 -0.8111  0.0079
   53MOL   H43228616   4.771   7.306   7.368 -1.3726 -1.8252  2.0355
   53MOL   H43328617   4.830   7.265   7.215 -2.2977  1.2643 -0.5018
   53MOL   C43428618   5.201   7.040   6.581  0.6070  0.2350 -0.5181
   53MOL   C43528619   5.113   7.109   6.688  0.0929 -0.4240  0.0344
   53MOL   C43628620   5.114   7.026   6.815  0.5741 -0.3113  0.0569
   53MOL   C43728621   5.034   7.094   6.931  0.2446 -0.6760  0.1368
   53MOL   C43828622   5.035   7.009   7.058 -0.1660  0.8862  0.1692
   53MOL   O43928623   4.990   7.087   7.160  0.0062  0.0298 -1.5367
   53MOL   C44028624   4.955   7.030   7.281  0.2563  0.2708 -0.5571
   53MOL   O44128625   4.983   6.918   7.312 -0.1473 -0.1906  0.2865
   53MOL   C44228626   4.900   7.133   7.381 -0.2493 -0.2362 -0.4300
   53MOL   C44328627   4.840   7.062   7.504  0.2584 -0.6369 -0.3848
   53MOL   C44428628   5.012   7.238   7.425 -0.0581  0.1199  0.0561
   53MOL   H44528629   5.308   7.056   6.587  0.2295  2.0386  2.0706
   53MOL   H44628630   5.174   6.934   6.582  0.1798  0.3334 -0.9939
   53MOL   H44728631   5.174   7.075   6.481 -1.0115  0.3064 -0.0779
   53MOL   H44828632   5.156   7.206   6.714  1.9494 -1.1358 -0.2386
   53MOL   H44928633   5.011   7.127   6.656 -0.3079 -0.6266  1.2111
   53MOL   H45028634   5.062   6.934   6.787 -0.0863  0.4679 -1.3480
   53MOL   H45128635   5.212   6.995   6.850 -0.7231 -0.6175  3.5819
   53MOL   H45228636   4.931   7.110   6.901  0.3585 -1.5669 -0.7676
   53MOL   H45328637   5.084   7.190   6.948  3.4981 -2.3268  0.3255
   53MOL   H45428638   5.129   6.963   7.086  0.7287  2.2273 -0.5903
   53MOL   H45528639   4.967   6.927   7.035 -0.4843  1.4935 -1.0927
   53MOL   H45628640   4.782   7.134   7.562 -1.1972 -1.8273 -0.2992
   53MOL   H45728641   4.771   6.979   7.486  1.7951 -1.6872 -1.5559
   53MOL   H45828642   4.914   7.028   7.577 -0.4777  3.5559  2.4632
   53MOL   H45928643   4.971   7.281   7.516  0.2175 -0.5796  0.5151
   53MOL   H46028644   5.012   7.312   7.345 -0.4378 -0.0065 -0.0636
   53MOL   C46128645   5.507   6.908   6.858 -0.0303  0.0385  0.7137
   53MOL   C46228646   5.446   6.947   6.995 -0.3293  0.0136 -0.2006
   53MOL   C46328647   5.548   6.925   7.108 -0.3813 -0.1117  0.5754
   53MOL   C46428648   5.478   6.964   7.238 -1.0235 -0.0708 -0.1591
   53MOL   C46528649   5.476   7.116   7.265  0.7724 -0.0068 -0.8571
   53MOL   O46628650   5.392   7.150   7.372  0.7351 -0.0501  0.1245
   53MOL   C46728651   5.258   7.184   7.341 -0.0267 -0.4102 -1.1724
   53MOL   O46828652   5.222   7.202   7.225  0.1197 -0.2441  0.3939
   53MOL   C46928653   5.167   7.214   7.467  0.1260 -0.6811  0.2054
   53MOL   C47028654   5.177   7.087   7.557  0.2204 -0.7756 -0.6779
   53MOL   C47128655   5.242   7.327   7.552 -0.1514 -0.1473  0.2012
   53MOL   H47228656   5.601   6.960   6.841 -1.6016  2.4331 -0.8517
   53MOL   H47328657   5.438   6.927   6.776  1.0775  0.5357 -0.1202
   53MOL   H47428658   5.532   6.802   6.854 -0.5756 -0.0645  0.0050
   53MOL   H47528659   5.366   6.873   7.005 -0.8138  0.8816  2.8519
   53MOL   H47628660   5.405   7.048   7.001  0.8949  0.4046  2.2278
   53MOL   H47728661   5.643   6.970   7.077 -0.0764 -1.3777 -0.3906
   53MOL   H47828662   5.568   6.818   7.111  2.2477  0.2927 -0.8999
   53MOL   H47928663   5.535   6.921   7.320  2.2468  1.3303 -1.6322
   53MOL   H48028664   5.378   6.920   7.240 -1.0360 -0.0569 -0.4664
   53MOL   H48128665   5.581   7.138   7.282  1.0080 -1.3289 -0.5491
   53MOL   H48228666   5.444   7.176   7.180  0.4116  1.0088 -0.0198
   53MOL   H48328667   5.271   7.064   7.606 -0.8663 -0.3501  1.6705
   53MOL   H48428668   5.146   7.011   7.485 -1.9819  0.9585 -1.6167
   53MOL   H48528669   5.105   7.092   7.639  1.4132 -2.3607  0.4947
   53MOL   H48628670   5.339   7.286   7.581  0.2789  0.2419 -0.6758
   53MOL   H48728671   5.182   7.328   7.643 -0.8489  0.9292 -0.2715
   53MOL   C48828672   4.555   7.708   7.760 -0.1332  0.5606  0.4792
   53MOL   C48928673   4.546   7.635   7.634  0.6248 -0.4289  0.5847
   53MOL   C49028674   4.665   7.665   7.546  0.0076 -0.3812  0.3426
   53MOL   C49128675   4.794   7.597   7.586  0.0710 -0.1938  0.3440
   53MOL   C49228676   4.903   7.610   7.484 -0.1855 -0.5500  0.3801
   53MOL   O49328677   5.028   7.544   7.538  0.4326  0.4040  0.2665
   53MOL   C49428678   5.136   7.540   7.456 -0.3364 -0.6969 -0.5284
   53MOL   O49528679   5.131   7.577   7.336  0.4878  0.1955 -0.0446
   53MOL   C49628680   5.264   7.476   7.508 -0.8071  0.3805  0.1675
   53MOL   C49728681   5.377   7.487   7.395  0.0270 -0.1550  0.6852
   53MOL   C49828682   5.309   7.538   7.642 -0.4377 -0.0567  0.4905
   53MOL   H49928683   4.634   7.666   0.009 -1.8612 -1.6242  1.2773
   53MOL   H50028684   4.584   7.811   7.742  1.1600  0.1389  0.1183
   53MOL   H50128685   4.455   7.696   7.802 -1.9819  1.7825 -3.3208
   53MOL   H50228686   4.448   7.663   7.595  1.5284  0.3845 -1.1677
   53MOL   H50328687   4.547   7.528   7.655  2.6249  0.0382  3.2304
   53MOL   H50428688   4.653   7.651   7.438 -1.1471  2.4352  0.0465
   53MOL   H50528689   4.687   7.772   7.540  0.1620 -0.4066  0.4578
   53MOL   H50628690   4.790   7.488   7.591 -0.7170 -0.3670 -3.1558
   53MOL   H50728691   4.827   7.627   7.686  1.1309  2.5295 -0.7666
   53MOL   H50828692   4.853   7.556   7.403 -0.3504 -2.1713  1.5477
   53MOL   H50928693   4.918   7.713   7.451 -0.6620 -0.1038  1.5266
   53MOL   H51028694   5.372   7.422   7.308 -2.1760  2.4153 -1.1867
   53MOL   H51128695   5.476   7.472   7.439  0.3057  0.4369  0.2675
   53MOL   H51228696   5.379   7.583   7.344  0.5135 -1.2674 -1.4412
   53MOL   H51328697   5.398   7.480   7.664 -1.2968 -0.2118  3.8909
   53MOL   H51428698   5.239   7.513   7.722 -0.6205  2.2266  1.0859
   53MOL   C51528699   5.199   7.810   0.517  0.1684 -0.2795 -0.0523
   53MOL   C51628700   5.164   0.079   0.392 -0.1935 -0.0421  0.5011
   53MOL   C51728701   5.127   7.809   0.264 -0.2295 -0.5805 -0.1639
   53MOL   C51828702   5.098   0.082   0.139  0.0336  0.1068 -1.1735
   53MOL   C51928703   5.045   7.814   0.024  0.4410 -0.4698  0.2482
   53MOL   O52028704   5.156   7.738   7.796  0.3288  0.2804 -0.6890
   53MOL   C52128705   5.215   7.769   7.682  0.0677 -0.2748  0.3721
   53MOL   O52228706   5.169   0.028   7.597 -0.0259 -0.2301  0.4312
   53MOL   C52328707   5.339   7.689   7.662  0.3141 -0.1380  0.3317
   53MOL   C52428708   5.420   7.748   7.548 -0.3022 -0.3521 -0.0397
   53MOL   C52528709   5.432   7.701   7.791 -0.5402 -0.7991 -0.1784
   53MOL   H52628710   5.296   7.762   0.505  0.7047  0.6500  0.5232
   53MOL   H52728711   5.212   0.059   0.605 -1.9840  1.1089 -0.6969
   53MOL   H52828712   5.116   7.740   0.525  0.2937 -0.3149  0.9919
   53MOL   H52928713   5.077   0.139   0.419 -0.8488 -1.1159  0.8344
   53MOL   H53028714   5.247   0.148   0.379  0.1174 -0.8291 -1.9477
   53MOL   H53128715   5.208   7.741   0.237  2.2627  2.4935 -0.7960
   53MOL   H53228716   5.033   7.759   0.285 -0.0069  0.2985  3.1855
   53MOL   H53328717   5.188   0.138   0.114  0.8355  0.0060  1.3769
   53MOL   H53428718   5.022   0.153   0.170 -0.3778 -0.5837 -0.5788
   53MOL   H53528719   4.962   7.751   0.055 -0.6491  0.0239 -1.5784
   53MOL   H53628720   5.008   0.063   7.757 -2.3185 -1.7066  0.4784
   53MOL   H53728721   5.467   0.027   7.579  0.7389 -0.1124 -2.2015
   53MOL   H53828722   5.369   7.769   7.454 -1.4689  2.1229  1.0947
   53MOL   H53928723   5.509   7.688   7.528  0.3400  0.4522  0.3541
   53MOL   H54028724   5.385   7.654   0.063 -0.4442 -1.1029 -0.2901
   53MOL   H54128725   5.451   7.807   7.808 -0.8225 -0.9198  0.9054
   53MOL   H54228726   5.527   7.647   7.782 -0.5222 -0.7075 -0.5451
   54MOL     C128727   3.477   0.386   5.151  0.3753  0.2431  0.2049
   54MOL     C228728   3.391   0.431   5.273 -0.0396 -0.1867  0.2223
   54MOL     C328729   3.321   0.314   5.356  0.0909 -0.5347  0.7038
   54MOL     C428730   3.196   0.251   5.286  0.0629 -0.5865  0.1084
   54MOL     C528731   3.111   0.165   5.385 -0.0800  0.1027 -0.5237
   54MOL     O628732   2.998   0.111   5.318 -0.3317 -0.2800 -0.0164
   54MOL     C728733   2.928   0.012   5.378 -0.2410 -0.2670 -0.1181
   54MOL     O828734   2.953   7.769   5.482  0.4625 -0.0448 -0.4935
   54MOL     C928735   2.802   7.786   5.302  0.1372 -0.4115  0.1209
   54MOL    C1028736   2.693   7.771   5.406 -0.8870  0.2920 -0.0376
   54MOL    C1128737   2.829   7.654   5.230 -0.4131  0.6144  0.3514
   54MOL    H1228738   3.548   0.306   5.174 -1.0216 -1.1922 -0.4313
   54MOL    H1328739   3.530   0.465   5.098  1.8068  0.5129  1.9697
   54MOL    H1428740   3.416   0.336   5.076 -0.9184  3.2117 -0.8013
   54MOL    H1528741   3.459   0.478   5.344  0.8653 -2.8237  1.1626
   54MOL    H1628742   3.321   0.509   5.244  0.4573  0.6703  1.2968
   54MOL    H1728743   3.395   0.243   5.394 -1.5039 -2.3108  0.5427
   54MOL    H1828744   3.301   0.355   5.455  0.8004 -2.6750  1.7739
   54MOL    H1928745   3.238   0.190   5.206 -0.0311 -1.3778  0.6650
   54MOL    H2028746   3.132   0.321   5.232 -1.6435 -1.5752  0.8155
   54MOL    H2128747   3.171   0.090   5.436  0.3692  1.4158  0.9382
   54MOL    H2228748   3.075   0.224   5.470  2.3065  1.0733 -0.1359
   54MOL    H2328749   2.592   7.768   5.366 -1.0089 -0.9078  0.3521
   54MOL    H2428750   2.706   0.037   5.479 -2.7231  0.4753  0.0924
   54MOL    H2528751   2.699   7.684   5.471 -0.2878 -1.3629 -2.2380
   54MOL    H2628752   2.815   7.568   5.296  0.2153 -0.2620 -0.6595
   54MOL    H2728753   2.936   7.645   5.213 -0.5099 -2.2102  0.9338
   54MOL    H2828754   2.775   0.050   5.231 -0.0930 -2.2496 -1.8782
   54MOL    C2928755   2.957   0.482   4.862 -0.3730  0.5997  0.7093
   54MOL    C3028756   3.089   0.419   4.906 -0.3084 -0.4520  0.0352
   54MOL    C3128757   3.097   0.267   4.891  0.0367 -0.3923 -0.0631
   54MOL    C3228758   3.020   0.170   4.981 -0.1323  0.6205  0.1844
   54MOL    C3328759   3.017   0.027   4.918  0.6678 -0.4371 -0.3060
   54MOL    O3428760   2.949   7.747   4.990  0.3631 -0.5571 -0.3132
   54MOL    C3528761   2.816   7.736   4.992 -0.1397 -0.5021 -0.4772
   54MOL    O3628762   2.744   7.811   4.925 -0.0518  0.4865  0.1170
   54MOL    C3728763   2.767   7.625   5.089 -0.2633 -0.8691 -0.6688
   54MOL    C3828764   2.614   7.618   5.109  0.3008  0.2477 -0.3883
   54MOL    C3928765   2.832   7.480   5.065  0.8172 -0.0436  0.4914
   54MOL    H4028766   2.963   0.588   4.883  0.0009  0.1433  3.0045
   54MOL    H4128767   2.948   0.460   4.756  1.8870  1.6347  0.2660
   54MOL    H4228768   2.876   0.427   4.909 -0.4769  0.0095 -0.1567
   54MOL    H4328769   3.107   0.442   5.011 -0.4067  0.8737 -0.2320
   54MOL    H4428770   3.168   0.453   4.839 -0.4159 -3.1118 -1.5036
   54MOL    H4528771   3.201   0.238   4.908 -0.0231 -0.0879  0.8590
   54MOL    H4628772   3.069   0.232   4.791  1.8314 -2.6206  0.1778
   54MOL    H4728773   3.050   0.170   5.086 -1.9327  1.1775  0.7150
   54MOL    H4828774   2.921   0.215   4.985 -0.7084 -0.5511 -0.4073
   54MOL    H4928775   3.123   0.005   4.908  0.8999 -0.3005  1.5496
   54MOL    H5028776   2.979   0.045   4.818  0.6153  3.5657  0.3515
   54MOL    H5128777   2.578   7.713   5.147  0.9954  1.2389 -2.1919
   54MOL    H5228778   2.591   7.542   5.184  2.2401  1.1726  1.1920
   54MOL    H5328779   2.574   7.588   5.012  1.4860  1.9359 -1.4117
   54MOL    H5428780   2.779   7.414   5.133  0.0209 -0.4654 -0.5332
   54MOL    H5528781   2.936   7.477   5.098  0.5707 -0.6840  1.2328
   54MOL    C5628782   2.241   7.798   4.846  0.1411 -0.1371  0.3698
   54MOL    C5728783   2.310   7.681   4.925 -0.7349  0.3766  0.1622
   54MOL    C5828784   2.375   7.582   4.830  0.5114 -0.4723  0.0353
   54MOL    C5928785   2.485   7.653   4.749  0.2327  0.2812  0.2467
   54MOL    C6028786   2.582   7.560   4.687 -1.3335  0.7176 -0.1665
   54MOL    O6128787   2.682   7.537   4.786 -0.5660 -0.2528  0.0169
   54MOL    C6228788   2.710   7.422   4.834  0.6930  0.4700 -1.0782
   54MOL    O6328789   2.640   7.322   4.815 -0.2349 -0.3359  0.1902
   54MOL    C6428790   2.839   7.408   4.924  1.0286 -0.2439  0.3004
   54MOL    C6528791   2.859   7.261   4.969 -0.4261  0.3755 -0.7905
   54MOL    C6628792   2.960   7.464   4.835  0.0446 -0.0234  0.2754
   54MOL    H6728793   2.153   7.759   4.794  0.0361  1.3541 -0.5949
   54MOL    H6828794   2.300   0.039   4.772 -1.0571 -0.0254 -0.5213
   54MOL    H6928795   2.210   0.058   4.920  0.0777 -0.0433  0.2498
   54MOL    H7028796   2.384   7.711   4.999  0.7007  2.4517 -2.0352
   54MOL    H7128797   2.226   7.636   4.978 -2.0799  1.0382 -1.3420
   54MOL    H7228798   2.420   7.505   4.893 -0.1814 -0.5282  0.4594
   54MOL    H7328799   2.294   7.539   4.772  0.0447 -0.7003  0.8587
   54MOL    H7428800   2.535   7.729   4.809 -0.4340 -0.1286  1.3414
   54MOL    H7528801   2.439   7.704   4.665 -0.8244  0.0078  0.6435
   54MOL    H7628802   2.531   7.472   4.647  1.1395 -1.3951  1.1285
   54MOL    H7728803   2.633   7.612   4.606  2.3635  0.0361  1.5973
   54MOL    H7828804   2.769   7.219   5.015 -0.1518  0.2903 -0.3243
   54MOL    H7928805   2.931   7.251   5.051 -0.1606 -0.0894 -1.0778
   54MOL    H8028806   2.899   7.194   4.892 -2.3799 -0.5963 -0.9829
   54MOL    H8128807   3.042   7.487   4.902  0.9527 -0.8147 -0.5440
   54MOL    H8228808   2.925   7.562   4.802  1.4591  0.1970 -0.6094
   54MOL    C8328809   3.620   7.360   5.138 -0.4473 -0.5171 -0.1880
   54MOL    C8428810   3.482   7.302   5.157  0.0329 -0.3300 -0.4137
   54MOL    C8528811   3.415   7.269   5.021 -0.3665 -0.0978  0.2108
   54MOL    C8628812   3.278   7.199   5.044  0.7881  0.2066 -0.1269
   54MOL    C8728813   3.216   7.154   4.905  0.0397 -0.0469  0.2753
   54MOL    O8828814   3.146   7.265   4.847 -0.2903 -0.6335 -0.0612
   54MOL    C8928815   3.083   7.254   4.735 -0.4372 -0.3395 -0.0910
   54MOL    O9028816   3.096   7.170   4.649 -0.6285 -0.0265  0.4570
   54MOL    C9128817   3.015   7.387   4.706  0.1271 -0.1359 -0.2420
   54MOL    C9228818   2.905   7.372   4.600  0.5791  0.2724 -0.6070
   54MOL    C9328819   3.116   7.483   4.627 -0.4280  0.0968  0.2432
   54MOL    H9428820   3.629   7.441   5.065  1.4877 -0.2661  0.3026
   54MOL    H9528821   3.665   7.405   5.226 -1.7610 -2.1532  1.3542
   54MOL    H9628822   3.695   7.283   5.124  0.4192 -0.1804  2.5379
   54MOL    H9728823   3.411   7.369   5.206  1.2999  1.6899 -1.2879
   54MOL    H9828824   3.487   7.218   5.225  2.6232  0.2547  0.1879
   54MOL    H9928825   3.483   7.195   4.977 -0.9906 -0.7665  0.3601
   54MOL   H10028826   3.425   7.362   4.965 -1.0466 -0.2357 -0.1441
   54MOL   H10128827   3.197   7.263   5.076  0.2761 -1.0318  1.1373
   54MOL   H10228828   3.278   7.118   5.118  0.1168  0.9108  0.6460
   54MOL   H10328829   3.146   7.071   4.910  0.7931 -0.5930  2.1063
   54MOL   H10428830   3.302   7.132   4.842  1.7578 -2.2771  3.2585
   54MOL   H10528831   2.831   7.452   4.592 -0.6772 -0.6791  1.1163
   54MOL   H10628832   2.847   7.283   4.626  2.0825 -0.4644  0.2527
   54MOL   H10728833   2.930   7.345   4.497 -0.3284  1.9651 -1.2897
   54MOL   H10828834   3.114   7.446   4.525  0.0005  0.5841  0.0576
   54MOL   H10928835   3.070   7.582   4.627  0.0919  0.3566  1.9297
   54MOL   C11028836   3.596   7.220   3.934 -0.7687  0.4831  0.2951
   54MOL   C11128837   3.533   7.329   4.024  0.6221  0.5390  0.2078
   54MOL   C11228838   3.539   7.289   4.173 -0.0338  0.1978 -0.2420
   54MOL   C11328839   3.445   7.370   4.267 -0.1295 -0.1707  0.0649
   54MOL   C11428840   3.446   7.305   4.416 -0.1715 -0.9903  0.2330
   54MOL   O11528841   3.349   7.380   4.484 -0.2622  0.0494  0.8872
   54MOL   C11628842   3.349   7.386   4.623  0.3440 -0.1242  1.0981
   54MOL   O11728843   3.416   7.316   4.698  0.2706  0.3484 -0.0247
   54MOL   C11828844   3.265   7.509   4.667 -0.0818 -0.6338 -0.2977
   54MOL   C11928845   3.275   7.552   4.813 -0.9479 -0.0329 -0.4669
   54MOL   C12028846   3.307   7.642   4.590 -0.1550 -0.5661  0.1902
   54MOL   H12128847   3.584   7.257   3.832 -2.0087 -1.2371 -0.2046
   54MOL   H12228848   3.703   7.222   3.956 -1.0883 -1.9158  2.3200
   54MOL   H12328849   3.549   7.123   3.950  1.0229  0.0543  3.3931
   54MOL   H12428850   3.586   7.423   4.009 -0.4800  1.1098 -0.1452
   54MOL   H12528851   3.427   7.340   4.002  0.1999  0.9214  2.2988
   54MOL   H12628852   3.514   7.182   4.175 -0.9550  0.4208  1.7462
   54MOL   H12728853   3.642   7.295   4.206  0.1154  2.6376 -1.0807
   54MOL   H12828854   3.346   7.385   4.226  0.2808  0.5764 -0.6471
   54MOL   H12928855   3.482   7.471   4.281 -2.2219  0.5505  0.4903
   54MOL   H13028856   3.397   7.207   4.412 -0.4735 -0.7959 -0.8641
   54MOL   H13128857   3.540   7.293   4.469 -2.0965 -0.9106  3.8511
   54MOL   H13228858   3.203   7.632   4.831 -2.0007 -0.9830 -0.3960
   54MOL   H13328859   3.254   7.470   4.882 -0.1378 -2.0054 -2.5108
   54MOL   H13428860   3.369   7.583   4.858 -0.3007 -2.4889 -0.0905
   54MOL   H13528861   3.316   7.616   4.485  0.0295  1.3974 -0.2847
   54MOL   H13628862   3.235   7.724   4.587 -1.0986 -1.4163 -0.8035
   54MOL   C13728863   3.256   7.623   5.342 -0.2239  0.3189  0.4329
   54MOL   C13828864   3.372   7.698   5.285  0.3806  0.4344 -0.0769
   54MOL   C13928865   3.372   7.725   5.139 -0.5423 -0.0739  0.2623
   54MOL   C14028866   3.488   0.013   5.094 -0.8659 -0.2248 -0.6900
   54MOL   C14128867   3.471   0.077   4.956 -0.1337  0.0229  1.1724
   54MOL   O14228868   3.483   7.794   4.852 -0.3540 -0.3795  0.3215
   54MOL   C14328869   3.405   0.004   4.738 -0.3116 -0.1963 -0.3318
   54MOL   O14428870   3.314   0.085   4.737  0.2273  0.0344  0.7552
   54MOL   C14528871   3.433   7.730   4.620 -0.4076 -0.3987  0.0822
   54MOL   C14628872   3.557   7.638   4.642  0.0004 -0.0920  0.4648
   54MOL   C14728873   3.449   0.017   4.493  0.1475  0.3192 -0.9974
   54MOL   H14828874   3.160   7.646   5.296 -0.0793 -1.1438 -0.6272
   54MOL   H14928875   3.225   7.637   5.445  2.1219 -1.7301  1.4627
   54MOL   H15028876   3.257   7.516   5.323  1.2608  0.3813  0.0623
   54MOL   H15128877   3.460   7.638   5.308 -0.2472 -0.3450  0.3408
   54MOL   H15228878   3.380   7.795   5.334  1.8086  0.2110  0.1549
   54MOL   H15328879   3.390   7.629   5.092  1.2237  0.1639  0.4090
   54MOL   H15428880   3.277   7.763   5.100  0.0299  0.8850 -0.2346
   54MOL   H15528881   3.478   0.099   5.160  0.2797 -1.0836  0.6266
   54MOL   H15628882   3.579   7.771   5.113 -0.0497  0.7535 -1.6727
   54MOL   H15728883   3.532   0.162   4.928  3.6479 -3.0544 -0.3560
   54MOL   H15828884   3.369   0.116   4.958 -0.2465  0.1593 -2.6297
   54MOL   H15928885   3.567   7.574   4.554  0.6888  0.4129  0.1674
   54MOL   H16028886   3.547   7.567   4.724 -1.5506  0.0538  0.4045
   54MOL   H16128887   3.642   7.705   4.658  0.4567 -0.6717  0.4909
   54MOL   H16228888   3.461   7.754   4.417  0.1571 -0.5156 -0.1645
   54MOL   H16328889   3.350   0.062   4.489  0.3007  0.9360  1.2347
   54MOL   C16428890   4.098   7.343   4.136  0.7321 -0.1782 -0.3075
   54MOL   C16528891   3.955   7.397   4.154 -0.0753  0.1081  0.4189
   54MOL   C16628892   3.946   7.522   4.233 -0.3163 -0.3321  0.0216
   54MOL   C16728893   3.809   7.563   4.278 -0.3132  0.3543 -0.7327
   54MOL   C16828894   3.822   7.671   4.386  0.3093  0.0687  0.1087
   54MOL   O16928895   3.712   7.755   4.383 -1.0448 -0.2402  0.5965
   54MOL   C17028896   3.710   0.052   4.463 -1.2066  1.2999  0.2912
   54MOL   O17128897   3.806   0.086   4.530  0.2782  0.0460 -0.0456
   54MOL   C17228898   3.572   0.119   4.473  0.0816 -0.1285 -0.2586
   54MOL   C17328899   3.575   0.216   4.595  0.4164 -0.1898 -0.1936
   54MOL   C17428900   3.540   0.204   4.345  0.4324 -0.4408 -0.0266
   54MOL   H17528901   4.149   7.308   4.225 -1.6379 -0.6913  0.8870
   54MOL   H17628902   4.156   7.421   4.086  0.3361  0.3382  0.0253
   54MOL   H17728903   4.097   7.261   4.064  0.4284  0.4075 -0.9847
   54MOL   H17828904   3.903   7.316   4.206  0.8311  0.0539  1.2546
   54MOL   H17928905   3.898   7.416   4.063  0.5975 -1.0738 -0.2486
   54MOL   H18028906   4.002   7.517   4.326 -0.9302  0.1745  0.4204
   54MOL   H18128907   3.981   7.610   4.178 -3.0422  1.4236  0.9960
   54MOL   H18228908   3.752   7.481   4.322  0.3922  0.5764  0.6373
   54MOL   H18328909   3.757   7.597   4.188 -2.0130 -2.5539 -0.9027
   54MOL   H18428910   3.913   7.732   4.385  0.4663 -0.1691 -0.2715
   54MOL   H18528911   3.827   7.622   4.483 -1.4316 -0.1871  0.0855
   54MOL   H18628912   3.624   0.174   4.683 -1.7380  0.7349  1.4773
   54MOL   H18728913   3.477   0.254   4.625 -0.2454 -1.5126 -0.6343
   54MOL   H18828914   3.641   0.300   4.575  1.9184 -1.6664 -1.6802
   54MOL   H18928915   3.436   0.229   4.365  0.0571 -2.5839  0.8046
   54MOL   H19028916   3.602   0.292   4.363 -0.2725  0.3991 -1.5956
   54MOL   C19128917   2.892   7.563   4.313 -0.0669 -0.2919  0.2752
   54MOL   C19228918   2.926   7.633   4.187  0.2984 -0.3697 -0.4170
   54MOL   C19328919   3.070   7.612   4.127 -0.7701 -0.1511  0.0439
   54MOL   C19428920   3.170   7.709   4.192 -0.9246  0.1157 -0.2159
   54MOL   C19528921   3.311   7.708   4.128  0.2076 -0.5474 -0.5533
   54MOL   O19628922   3.369   0.012   4.171 -0.6258 -0.2016 -0.4684
   54MOL   C19728923   3.499   0.038   4.150  0.8930  0.3383  0.0327
   54MOL   O19828924   3.567   7.766   4.090 -0.2665 -0.0345  0.2158
   54MOL   C19928925   3.557   0.176   4.196  0.0678 -0.5037  0.2980
   54MOL   C20028926   3.709   0.179   4.170  0.1808 -0.3381  0.1098
   54MOL   C20128927   3.475   0.281   4.114  0.6208 -0.2851  0.2867
   54MOL   H20228928   2.789   7.575   4.346 -0.0262 -0.4328  0.4526
   54MOL   H20328929   2.893   7.457   4.287 -1.0812  0.3740 -2.7217
   54MOL   H20428930   2.962   7.591   4.391 -0.7340  2.0933  0.0654
   54MOL   H20528931   2.904   7.737   4.213 -1.4393 -1.1386  1.2390
   54MOL   H20628932   2.843   7.612   4.119  0.3062 -0.1560 -0.4943
   54MOL   H20728933   3.065   7.635   4.021 -0.0225  2.1655  0.4730
   54MOL   H20828934   3.105   7.510   4.144 -1.3290 -0.1839  1.0513
   54MOL   H20928935   3.117   7.804   4.186 -0.6028  0.4925  2.2881
   54MOL   H21028936   3.199   7.701   4.297 -0.5299 -1.6512 -0.4570
   54MOL   H21128937   3.371   7.624   4.160  0.8347  1.2923  3.4092
   54MOL   H21228938   3.301   7.699   4.020  0.9275  0.0385 -0.6691
   54MOL   H21328939   3.765   0.247   4.235  0.7456 -0.1654 -0.5465
   54MOL   H21428940   3.735   0.196   4.065  2.5100  0.5743  0.7980
   54MOL   H21528941   3.765   0.087   4.185 -3.3180 -2.2677  1.9836
   54MOL   H21628942   3.369   0.256   4.117  0.2154  0.9591 -2.1058
   54MOL   H21728943   3.503   0.253   4.012  0.1503  1.1175 -0.2482
   54MOL   C21828944   4.353   0.465   4.047  0.3946 -0.3752  0.1965
   54MOL   C21928945   4.212   0.399   4.035  0.3711  0.2747  0.3405
   54MOL   C22028946   4.094   0.501   4.020  0.1127  0.6743 -0.2354
   54MOL   C22128947   3.958   0.429   4.039  0.1613 -0.5521 -0.2097
   54MOL   C22228948   3.842   0.532   4.047  0.5106 -0.5421  0.0254
   54MOL   O22328949   3.715   0.476   4.036  0.0945 -0.3689 -0.0817
   54MOL   C22428950   3.637   0.475   4.153  0.0180 -0.0330 -0.2826
   54MOL   O22528951   3.684   0.508   4.262 -0.3897  0.7680  0.2608
   54MOL   C22628952   3.488   0.438   4.131  0.4726  0.1269  0.0019
   54MOL   C22728953   3.400   0.483   4.246  0.2228 -0.9899  0.6227
   54MOL   C22828954   3.453   0.507   3.998  0.2695  0.4184  0.4547
   54MOL   H22928955   4.342   0.542   4.123 -0.6474 -0.3541  0.0329
   54MOL   H23028956   4.427   0.388   4.069  1.5727  0.4998 -0.6024
   54MOL   H23128957   4.388   0.513   3.955 -0.5943  0.2980  0.1702
   54MOL   H23228958   4.204   0.335   4.123  1.5467 -0.0422  0.2232
   54MOL   H23328959   4.209   0.321   3.958  0.0097 -1.2210  1.8324
   54MOL   H23428960   4.103   0.562   3.929 -0.9427  0.3170 -0.5783
   54MOL   H23528961   4.109   0.582   4.091 -0.1822  1.6213 -1.2295
   54MOL   H23628962   3.938   0.351   3.965 -3.8621 -0.8376  1.0359
   54MOL   H23728963   3.970   0.370   4.130  0.2901 -0.8563 -0.4219
   54MOL   H23828964   3.868   0.606   3.971  0.9864  1.7265  2.3243
   54MOL   H23928965   3.861   0.596   4.133  0.2412 -1.9823  1.1783
   54MOL   H24028966   3.300   0.444   4.226 -1.2695  3.0481 -0.3330
   54MOL   H24128967   3.396   0.592   4.254 -0.6423 -0.7743 -2.1357
   54MOL   H24228968   3.440   0.434   4.335  1.7342  1.5064  1.3592
   54MOL   H24328969   3.521   0.469   3.922  0.4621 -4.2559  2.7846
   54MOL   H24428970   3.478   0.613   4.002 -1.1322  0.7695  0.1703
   54MOL   C24528971   3.459   7.780   3.390  0.0368 -0.6758  0.6127
   54MOL   C24628972   3.525   7.748   3.525 -0.0023  0.5284  0.1569
   54MOL   C24728973   3.437   7.789   3.651 -0.0388  0.0346  0.1011
   54MOL   C24828974   3.458   0.120   3.692  0.1580 -0.3715  0.0034
   54MOL   C24928975   3.348   0.166   3.793  0.1166  0.1293 -0.3410
   54MOL   O25028976   3.360   0.304   3.805  0.5292 -0.0292  0.4064
   54MOL   C25128977   3.272   0.361   3.892 -0.0147 -0.1327  0.3591
   54MOL   O25228978   3.173   0.308   3.947 -0.6694  0.0393  0.3500
   54MOL   C25328979   3.314   0.508   3.929 -0.7026 -0.1111  0.6712
   54MOL   C25428980   3.332   0.578   3.786 -0.2153  0.4411 -0.3800
   54MOL   C25528981   3.200   0.584   4.004  0.5862  0.2673 -0.6720
   54MOL   H25628982   3.415   0.065   3.397 -2.6476 -1.5964 -2.1320
   54MOL   H25728983   3.531   7.782   3.308 -1.2018  0.7099 -0.4654
   54MOL   H25828984   3.378   7.712   3.365  1.6579 -1.5699 -2.4409
   54MOL   H25928985   3.521   7.639   3.527  0.0139  0.4973 -1.2662
   54MOL   H26028986   3.631   7.773   3.530 -0.0510  1.0652 -1.4680
   54MOL   H26128987   3.450   7.724   3.738 -1.1170  1.5286  1.4054
   54MOL   H26228988   3.334   7.772   3.620 -0.3728  1.5708  0.3284
   54MOL   H26328989   3.558   0.136   3.732 -0.2045  0.5975  0.5224
   54MOL   H26428990   3.450   0.185   3.605 -1.4912  0.2570  0.5927
   54MOL   H26528991   3.256   0.136   3.741  1.0302 -0.3379 -1.7231
   54MOL   H26628992   3.364   0.122   3.891 -2.2822  1.2069  0.5776
   54MOL   H26728993   3.240   0.586   3.728 -1.6217  1.8058  1.9564
   54MOL   H26828994   3.371   0.679   3.796 -0.9507  0.7400 -0.5074
   54MOL   H26928995   3.391   0.524   3.712 -1.2264  1.4963 -1.9958
   54MOL   H27028996   3.158   0.510   4.071  0.8909 -0.2602 -1.0642
   54MOL   H27128997   3.244   0.660   4.068  1.0381  1.4062 -2.2956
   54MOL   C27228998   2.821   0.623   3.344 -0.1015 -0.4859  0.4972
   54MOL   C27328999   2.917   0.728   3.383 -1.0571 -0.5917  0.0944
   54MOL   C27429000   2.900   0.766   3.531 -0.0080 -0.1362 -0.6347
   54MOL   C27529001   2.996   0.875   3.573  0.0120 -0.4503 -0.0390
   54MOL   C27629002   2.973   0.931   3.712  0.2890 -0.2929  0.4544
   54MOL   O27729003   2.974   0.816   3.794  0.3639  0.2453 -0.1449
   54MOL   C27829004   3.085   0.774   3.854  0.6644  0.0818  0.0928
   54MOL   O27929005   3.192   0.836   3.862 -0.1396  0.2621 -0.3258
   54MOL   C28029006   3.064   0.643   3.942 -0.3997  0.2287 -0.7087
   54MOL   C28129007   2.995   0.542   3.842 -0.5358 -0.3685 -0.5442
   54MOL   C28229008   2.952   0.670   4.051 -0.1259 -0.0987 -0.0314
   54MOL   H28329009   2.845   0.525   3.384 -0.2401 -0.5760  0.3592
   54MOL   H28429010   2.719   0.659   3.362  0.6991  1.6374  0.9669
   54MOL   H28529011   2.821   0.603   3.237  0.0633  0.3833  0.3309
   54MOL   H28629012   3.018   0.689   3.371 -1.3251 -1.6534  1.1655
   54MOL   H28729013   2.894   0.817   3.326 -0.6930  0.5435  1.6858
   54MOL   H28829014   2.797   0.786   3.560  0.7679  0.1741  2.0161
   54MOL   H28929015   2.921   0.673   3.584 -0.9399 -0.5891 -1.0583
   54MOL   H29029016   3.097   0.837   3.555  0.7458  1.1477  0.5662
   54MOL   H29129017   2.972   0.955   3.503 -2.2091 -1.1483 -0.1075
   54MOL   H29229018   2.871   0.971   3.711  0.1504 -0.5998  1.5776
   54MOL   H29329019   3.034   1.014   3.748 -0.1372 -0.3535  1.3409
   54MOL   H29429020   2.914   0.589   3.786  0.1761  1.0180 -0.4523
   54MOL   H29529021   3.063   0.496   3.770  1.5708 -0.8470  1.6937
   54MOL   H29629022   2.934   0.468   3.892  0.8595 -0.7883  0.5817
   54MOL   H29729023   2.872   0.724   4.001  0.4080  0.2044 -0.5780
   54MOL   H29829024   2.913   0.574   4.082  2.0266 -0.2764  2.2894
   54MOL   C29929025   2.837   0.015   4.566  0.0332  0.1657 -0.3293
   54MOL   C30029026   2.950   0.090   4.480  0.2042  0.4935  0.1438
   54MOL   C30129027   2.938   0.241   4.481 -0.3620 -0.0771  0.4381
   54MOL   C30229028   3.037   0.319   4.395 -0.4766  0.7953 -0.4050
   54MOL   C30329029   3.036   0.473   4.420  0.4628 -0.3371  0.3915
   54MOL   O30429030   2.977   0.549   4.309 -0.8960 -0.3684  0.2225
   54MOL   C30529031   3.040   0.665   4.275 -0.1551  0.3841 -0.0992
   54MOL   O30629032   3.150   0.691   4.324 -0.3378  0.6024 -0.0026
   54MOL   C30729033   2.966   0.760   4.175  0.7134 -0.1019 -0.3937
   54MOL   C30829034   3.048   0.885   4.145  0.2980  0.5665  0.4080
   54MOL   C30929035   2.823   0.785   4.226  0.0851 -0.1132  0.1041
   54MOL   H31029036   2.818   0.062   4.663 -0.3291 -1.1171  0.2322
   54MOL   H31129037   2.863   7.725   4.581 -0.0137  0.4378  1.8256
   54MOL   H31229038   2.743   0.021   4.511  0.4714 -0.5169 -1.1687
   54MOL   H31329039   2.959   0.052   4.378  3.3185  2.5669 -0.3872
   54MOL   H31429040   3.045   0.060   4.524  0.9099  0.4223 -1.4100
   54MOL   H31529041   2.939   0.262   4.588  0.4816 -1.0171  0.6199
   54MOL   H31629042   2.833   0.259   4.457 -0.3006  1.9154  1.5624
   54MOL   H31729043   3.033   0.302   4.287 -0.3057  1.3243 -0.4952
   54MOL   H31829044   3.133   0.271   4.412  0.0281  2.0088  0.2219
   54MOL   H31929045   2.975   0.478   4.510 -0.1707 -0.2746 -0.0326
   54MOL   H32029046   3.136   0.506   4.446 -0.6670  0.0370  4.5132
   54MOL   H32129047   3.094   0.927   4.234 -2.6949  4.6677  0.1426
   54MOL   H32229048   3.138   0.877   4.083 -1.1213 -0.5359 -1.5860
   54MOL   H32329049   2.982   0.957   4.098  1.2732  1.6382  0.6584
   54MOL   H32429050   2.770   0.690   4.230 -1.3534  0.6529 -0.1994
   54MOL   H32529051   2.773   0.837   4.144  0.0861  0.4456  0.4516
   54MOL   C32629052   3.302   0.893   5.002 -0.1167  0.6753 -0.7281
   54MOL   C32729053   3.187   0.952   4.919 -0.1695  0.7219 -0.3625
   54MOL   C32829054   3.095   0.840   4.870 -0.7415 -0.4284 -0.8339
   54MOL   C32929055   3.010   0.892   4.755  0.4497  0.0466 -0.1554
   54MOL   C33029056   3.076   0.846   4.617  0.6365 -1.2621 -0.8886
   54MOL   O33129057   2.997   0.892   4.503 -0.0707  1.0062  0.2612
   54MOL   C33229058   2.880   0.829   4.479  0.7292 -0.8876 -0.0418
   54MOL   O33329059   2.845   0.731   4.547  0.2070 -0.3172 -0.1884
   54MOL   C33429060   2.799   0.879   4.359 -0.1177  0.4446  0.4747
   54MOL   C33529061   2.833   1.025   4.341  0.0259 -0.6045  0.3168
   54MOL   C33629062   2.644   0.856   4.382  0.0623 -0.1589 -0.7562
   54MOL   H33729063   3.373   0.970   5.030 -0.5402  0.8443 -0.0956
   54MOL   H33829064   3.347   0.813   4.943  2.6512  0.4965  1.5221
   54MOL   H33929065   3.265   0.832   5.086  0.3694  1.3271 -0.0348
   54MOL   H34029066   3.233   0.985   4.826 -2.1519  1.5562 -1.0656
   54MOL   H34129067   3.131   1.034   4.964 -0.2525  0.0834  0.7063
   54MOL   H34229068   3.025   0.832   4.953 -0.9084  0.9892 -0.8170
   54MOL   H34329069   3.151   0.748   4.853  0.7657  0.0910  1.0950
   54MOL   H34429070   2.993   1.000   4.757 -0.1925 -0.0378 -1.0263
   54MOL   H34529071   2.909   0.856   4.772  0.2740  0.6349  0.0568
   54MOL   H34629072   3.091   0.738   4.629 -0.6864 -1.5800 -2.0251
   54MOL   H34729073   3.174   0.894   4.608 -1.8300  4.3157  0.4045
   54MOL   H34829074   2.804   1.090   4.424  0.6548  1.7590 -1.2515
   54MOL   H34929075   2.774   1.069   4.260 -1.4566 -1.4292  0.9405
   54MOL   H35029076   2.939   1.043   4.322 -0.6920  2.9573 -0.9088
   54MOL   H35129077   2.639   0.750   4.405  0.3234 -0.0045  0.0331
   54MOL   H35229078   2.593   0.868   4.286  0.3852  0.9920 -0.7948
   54MOL   C35329079   2.624   0.395   4.096  0.3148 -0.5928 -0.2355
   54MOL   C35429080   2.494   0.476   4.137 -0.0164  0.4616 -0.6136
   54MOL   C35529081   2.486   0.506   4.290 -0.0120  0.0099  0.2031
   54MOL   C35629082   2.353   0.582   4.340  0.3442 -0.4620 -0.6499
   54MOL   C35729083   2.344   0.632   4.483  0.3433  0.6661  0.3259
   54MOL   O35829084   2.434   0.730   4.516  0.5754  0.4170  0.1886
   54MOL   C35929085   2.420   0.859   4.475  0.1118  0.0251  0.1440
   54MOL   O36029086   2.316   0.898   4.427  0.1031 -0.0325 -0.3426
   54MOL   C36129087   2.555   0.936   4.487  0.1757 -0.2179  0.0879
   54MOL   C36229088   2.532   1.084   4.440  0.1445  0.3283  0.3613
   54MOL   C36329089   2.614   0.932   4.631  0.7765  0.2593 -0.0040
   54MOL   H36429090   2.606   0.291   4.126 -1.4887 -0.1992  0.1338
   54MOL   H36529091   2.710   0.454   4.126 -0.3326  1.0898 -1.6074
   54MOL   H36629092   2.637   0.389   3.988 -0.4763 -1.1683 -0.3111
   54MOL   H36729093   2.495   0.567   4.078 -0.8475  1.3734  0.7325
   54MOL   H36829094   2.414   0.406   4.112  1.5663 -1.7330  0.3402
   54MOL   H36929095   2.575   0.560   4.319 -0.0782 -0.6431  1.6389
   54MOL   H37029096   2.492   0.416   4.351  5.5663  0.7246  0.8903
   54MOL   H37129097   2.269   0.517   4.317  0.5029 -0.8101 -0.2747
   54MOL   H37229098   2.330   0.672   4.284 -1.3144 -1.1119 -1.0299
   54MOL   H37329099   2.242   0.670   4.493  0.3864  0.5480  1.2202
   54MOL   H37429100   2.359   0.544   4.545 -1.3777  0.0647 -0.0633
   54MOL   H37529101   2.437   1.122   4.477 -0.8371  1.3555 -3.0304
   54MOL   H37629102   2.603   1.166   4.455 -0.0794  0.8174 -1.2395
   54MOL   H37729103   2.512   1.086   4.333 -0.9591  0.7808  0.5658
   54MOL   H37829104   2.627   0.826   4.650 -0.4517 -0.1686 -1.4072
   54MOL   H37929105   2.714   0.973   4.620  1.1241 -0.5554  0.1050
   54MOL   C38029106   3.202   1.200   4.428  0.7074 -0.1054  0.3430
   54MOL   C38129107   3.133   1.252   4.553  0.0973  0.1832  0.0194
   54MOL   C38229108   2.987   1.234   4.575  0.9324  0.0565 -0.5541
   54MOL   C38329109   2.935   1.309   4.703 -0.1074  0.0641  0.0082
   54MOL   C38429110   2.781   1.311   4.715  0.6564 -0.0881  0.1808
   54MOL   O38529111   2.724   1.186   4.722 -0.1675 -0.7880  0.6536
   54MOL   C38629112   2.589   1.162   4.745  0.4684 -0.3295  0.0520
   54MOL   O38729113   2.509   1.255   4.766 -0.0404 -0.1769  0.4031
   54MOL   C38829114   2.552   1.010   4.752 -0.6964 -0.5558 -0.2420
   54MOL   C38929115   2.401   0.994   4.756 -0.2727  0.7268  0.0997
   54MOL   C39029116   2.635   0.947   4.881 -0.0656  0.1502  0.2828
   54MOL   H39129117   3.307   1.178   4.445  1.2156  0.6585 -1.6023
   54MOL   H39229118   3.168   1.101   4.397  3.8538 -1.1602  0.0726
   54MOL   H39329119   3.191   1.268   4.343  0.9739 -1.7434 -1.0153
   54MOL   H39429120   3.146   1.359   4.568 -3.3458  0.9267 -1.8584
   54MOL   H39529121   3.181   1.197   4.635 -0.2799 -1.3853 -0.7875
   54MOL   H39629122   2.917   1.263   4.497  0.0069  1.2277  0.6931
   54MOL   H39729123   2.979   1.127   4.594  1.5370 -0.0933 -1.1433
   54MOL   H39829124   2.970   1.252   4.789 -0.1929 -0.0158 -0.0103
   54MOL   H39929125   2.983   1.406   4.715  0.8922 -0.2981 -0.9452
   54MOL   H40029126   2.725   1.362   4.637 -0.7800 -1.3271  0.3721
   54MOL   H40129127   2.760   1.365   4.808  0.0674 -0.0670  0.0399
   54MOL   H40229128   2.360   1.056   4.677 -0.7566  0.0121 -0.2141
   54MOL   H40329129   2.356   1.049   4.839 -0.5231  0.9862 -0.2075
   54MOL   H40429130   2.371   0.890   4.766  0.5114  0.1497 -2.9764
   54MOL   H40529131   2.740   0.972   4.865  0.3470 -0.6555  1.6965
   54MOL   H40629132   2.646   0.844   4.849 -1.7215 -0.6630  2.2877
   54MOL   C40729133   2.532   0.248   4.860  0.3319 -0.1394 -0.0704
   54MOL   C40829134   2.499   0.363   4.769 -1.1085 -0.4025 -0.4159
   54MOL   C40929135   2.498   0.503   4.839 -0.2471 -0.2191 -0.3278
   54MOL   C41029136   2.387   0.521   4.946 -0.3186  0.6530 -0.3034
   54MOL   C41129137   2.361   0.666   4.978  0.2645  0.0552 -0.0924
   54MOL   O41229138   2.479   0.744   4.997 -0.1580 -0.2797  0.1956
   54MOL   C41329139   2.464   0.874   5.040 -0.3532  0.1565 -0.2628
   54MOL   O41429140   2.359   0.932   5.076 -0.7806  0.4416 -0.0549
   54MOL   C41529141   2.590   0.958   5.031 -0.5436  0.1161  0.3291
   54MOL   C41629142   2.705   0.886   5.111  0.0864  0.1426  0.1006
   54MOL   C41729143   2.569   1.106   5.080 -0.6105  0.3126 -0.2351
   54MOL   H41829144   2.614   0.282   4.923 -0.2832  2.1165 -0.4521
   54MOL   H41929145   2.459   0.223   4.937 -0.2169  2.9767  0.4899
   54MOL   H42029146   2.567   0.164   4.800  1.3008 -0.1818  0.5278
   54MOL   H42129147   2.401   0.343   4.727 -0.7786 -0.0142 -1.3757
   54MOL   H42229148   2.571   0.376   4.688  1.3046 -0.9184  1.5897
   54MOL   H42329149   2.596   0.496   4.886  0.5089  0.7502 -1.7312
   54MOL   H42429150   2.496   0.587   4.770  1.9347 -1.5764 -2.1476
   54MOL   H42529151   2.415   0.487   5.045 -1.0978 -0.6918 -0.5262
   54MOL   H42629152   2.308   0.449   4.922  1.3302 -0.6918 -1.9093
   54MOL   H42729153   2.302   0.715   4.900  2.1340  2.5079 -0.0174
   54MOL   H42829154   2.307   0.652   5.072 -0.2478  1.2492 -0.2005
   54MOL   H42929155   2.678   0.869   5.215  0.9249  0.5280  0.3841
   54MOL   H43029156   2.800   0.937   5.094  1.1808 -2.0280 -0.4746
   54MOL   H43129157   2.725   0.783   5.080 -1.6595  0.6442 -2.9446
   54MOL   H43229158   2.476   1.139   5.035  1.1334  1.5788 -3.0136
   54MOL   H43329159   2.649   1.165   5.036  0.7297  1.6003  3.6502
   54MOL   C43429160   3.196   1.416   4.918 -0.1816  0.2555  0.4663
   54MOL   C43529161   3.161   1.399   5.069 -0.5192 -0.9877 -0.4188
   54MOL   C43629162   3.035   1.321   5.100 -1.0288 -0.5465  0.5954
   54MOL   C43729163   2.993   1.339   5.245  0.6866 -0.3599  0.1059
   54MOL   C43829164   2.922   1.219   5.309  0.1107 -0.1835 -0.2123
   54MOL   O43929165   2.795   1.208   5.244  0.1325 -0.4589 -0.1854
   54MOL   C44029166   2.703   1.125   5.298  0.6514 -0.0537  0.5259
   54MOL   O44129167   2.722   1.047   5.389  0.4829 -0.1078 -0.5088
   54MOL   C44229168   2.563   1.150   5.231  0.4739  0.0699  0.0378
   54MOL   C44329169   2.460   1.072   5.318 -0.8638  0.7361  0.3591
   54MOL   C44429170   2.530   1.302   5.228 -0.1349 -0.7581 -0.4088
   54MOL   H44529171   3.139   1.500   4.879  0.1005 -0.9179 -2.6554
   54MOL   H44629172   3.300   1.450   4.911 -0.5318  0.8965 -2.3899
   54MOL   H44729173   3.191   1.324   4.860 -2.0912  0.7703 -0.2165
   54MOL   H44829174   3.247   1.344   5.108 -0.5700 -0.6963  0.1016
   54MOL   H44929175   3.175   1.491   5.126 -0.5546 -1.8886  1.0508
   54MOL   H45029176   2.966   1.356   5.023  0.6128  1.5117  0.0198
   54MOL   H45129177   3.053   1.217   5.072 -2.5513 -0.1808 -1.9788
   54MOL   H45229178   2.934   1.431   5.251 -0.2599 -0.9221 -0.3880
   54MOL   H45329179   3.081   1.360   5.306  0.1282 -1.6666  1.3991
   54MOL   H45429180   2.897   1.247   5.412 -2.8969  2.2252 -1.5224
   54MOL   H45529181   2.974   1.124   5.308  0.1747 -0.1461 -0.3677
   54MOL   H45629182   2.477   0.965   5.324  0.6546  0.8275 -1.9523
   54MOL   H45729183   2.463   1.097   5.425 -0.0338  0.7865  0.3279
   54MOL   H45829184   2.358   1.083   5.281 -0.5652  1.5186 -0.2490
   54MOL   H45929185   2.446   1.317   5.160 -0.5953  0.0280  0.3201
   54MOL   H46029186   2.614   1.345   5.174 -0.3080  1.4502  1.0583
   54MOL   C46129187   2.373   1.018   5.779  0.1785 -0.0252 -0.4177
   54MOL   C46229188   2.482   1.099   5.704  0.1412  0.2679 -0.4670
   54MOL   C46329189   2.593   1.138   5.800  0.2274 -0.2863 -0.8242
   54MOL   C46429190   2.713   1.204   5.728  0.2630 -0.3985  0.4146
   54MOL   C46529191   2.699   1.336   5.666  0.0480  0.2254  0.4467
   54MOL   O46629192   2.605   1.332   5.558 -0.3254 -0.1365  0.5558
   54MOL   C46729193   2.633   1.396   5.448 -0.0206 -0.1987  1.0758
   54MOL   O46829194   2.745   1.440   5.423 -0.7401  0.7843 -0.2442
   54MOL   C46929195   2.514   1.409   5.344 -0.0551 -0.6710  1.2875
   54MOL   C47029196   2.374   1.394   5.414  0.6797  0.5926 -0.1135
   54MOL   C47129197   2.513   1.541   5.271 -0.4517 -0.8679  0.5815
   54MOL   H47229198   2.344   1.058   5.875 -2.3627  1.7625 -1.8853
   54MOL   H47329199   2.401   0.916   5.805  2.3292 -0.2329 -3.2738
   54MOL   H47429200   2.282   1.012   5.719  0.1258 -0.9888 -0.2509
   54MOL   H47529201   2.427   1.186   5.666  1.1676  0.6717 -1.0576
   54MOL   H47629202   2.525   1.053   5.615  2.1925  1.7712 -0.2985
   54MOL   H47729203   2.621   1.041   5.839  0.7475  0.3037  0.2775
   54MOL   H47829204   2.543   1.205   5.870 -1.4903 -0.5721 -1.7483
   54MOL   H47929205   2.758   1.141   5.652  0.7220 -0.2234  0.5338
   54MOL   H48029206   2.782   1.231   5.809 -0.1350  4.0465 -0.5756
   54MOL   H48129207   2.662   1.416   5.730 -0.6516 -0.4737  0.9210
   54MOL   H48229208   2.797   1.360   5.625  0.1220  0.2957  0.6659
   54MOL   H48329209   2.292   1.420   5.347 -0.2931  2.1328  1.6304
   54MOL   H48429210   2.365   1.450   5.507 -2.3949  0.2946 -0.1939
   54MOL   H48529211   2.361   1.290   5.445  2.2061  0.4166 -0.0235
   54MOL   H48629212   2.460   1.536   5.176 -1.1981  0.3780  0.9300
   54MOL   H48729213   2.615   1.571   5.247 -0.7260  0.5454  1.1179
   54MOL   C48829214   3.148   1.740   5.386 -0.7481 -0.3151 -0.1337
   54MOL   C48929215   3.068   1.761   5.514  0.3211 -0.1354 -0.5260
   54MOL   C49029216   2.929   1.712   5.515 -0.5057  0.0145 -0.5843
   54MOL   C49129217   2.840   1.797   5.603  0.3846 -0.0918  0.1329
   54MOL   C49229218   2.695   1.735   5.616 -0.5545 -0.0653  0.1552
   54MOL   O49329219   2.641   1.704   5.486  0.2468 -0.0091  0.0749
   54MOL   C49429220   2.512   1.680   5.473 -0.1442 -0.3502  0.1116
   54MOL   O49529221   2.433   1.665   5.567  0.3701 -0.0172 -0.0938
   54MOL   C49629222   2.460   1.677   5.330 -0.3617 -0.0430  0.9037
   54MOL   C49729223   2.304   1.685   5.321  0.1986 -0.3577  0.4105
   54MOL   C49829224   2.531   1.792   5.246  0.2371 -0.0284 -0.2746
   54MOL   H49929225   3.238   1.801   5.383 -0.5362 -0.6345 -0.3213
   54MOL   H50029226   3.180   1.645   5.343 -2.7872 -0.8616 -0.5417
   54MOL   H50129227   3.100   1.793   5.304 -1.0416  0.5871  0.6140
   54MOL   H50229228   3.085   1.865   5.541 -0.5048  0.5948 -2.6847
   54MOL   H50329229   3.114   1.712   5.600  0.9700  0.4106 -0.5644
   54MOL   H50429230   2.891   1.712   5.413  1.1481  1.8045 -1.2539
   54MOL   H50529231   2.924   1.609   5.550 -2.2504 -0.5048 -2.2368
   54MOL   H50629232   2.824   1.889   5.547 -0.0174 -0.2583 -0.0289
   54MOL   H50729233   2.879   1.813   5.704 -0.5972 -0.2510  0.5412
   54MOL   H50829234   2.689   1.637   5.664 -0.3100 -0.7510 -1.1903
   54MOL   H50929235   2.638   1.802   5.680  0.9675  1.2061  0.2023
   54MOL   H51029236   2.254   1.615   5.388  1.1808 -0.2974  1.2274
   54MOL   H51129237   2.262   1.661   5.224 -0.3052 -0.0200  0.5407
   54MOL   H51229238   2.271   1.785   5.348 -0.1878 -0.4296  0.2066
   54MOL   H51329239   2.522   1.760   5.142 -0.8693 -1.3581  0.2175
   54MOL   H51429240   2.635   1.798   5.276 -0.7328  1.7905  3.0223
   54MOL   C51529241   2.328   1.712   4.578  0.0977 -0.4609  0.0983
   54MOL   C51629242   2.285   1.847   4.635  0.0408  0.1482 -0.3044
   54MOL   C51729243   2.289   1.845   4.783 -0.0795  0.4706 -0.0811
   54MOL   C51829244   2.264   1.986   4.833 -0.3837 -0.5164 -0.1384
   54MOL   C51929245   2.234   1.984   4.980 -0.5676  0.2299 -0.7598
   54MOL   O52029246   2.340   1.940   5.055 -0.1174  0.0489 -0.3114
   54MOL   C52129247   2.346   1.967   5.184 -0.0533 -0.0018  0.3917
   54MOL   O52229248   2.244   2.009   5.242  0.1049 -0.0671  0.0760
   54MOL   C52329249   2.482   1.940   5.255 -0.4400  0.3645  0.9284
   54MOL   C52429250   2.577   2.020   5.165  0.0120  0.0827 -0.4970
   54MOL   C52529251   2.481   1.996   5.398  0.2188  0.2089 -0.1887
   54MOL   H52629252   2.432   1.688   4.600 -0.3108 -1.0335  1.4750
   54MOL   H52729253   2.256   1.634   4.601  1.8291 -1.3640  2.6705
   54MOL   H52829254   2.336   1.723   4.470  2.0346  1.8609  0.4273
   54MOL   H52929255   2.339   1.933   4.594  2.0399 -0.2667  1.3913
   54MOL   H53029256   2.180   1.875   4.618 -0.0102  0.1849  0.0820
   54MOL   H53129257   2.219   1.772   4.824 -2.4662  2.4347 -0.5560
   54MOL   H53229258   2.392   1.815   4.806  0.3478  0.0681 -2.3943
   54MOL   H53329259   2.170   2.027   4.797 -0.7685 -0.4443  0.9314
   54MOL   H53429260   2.350   2.047   4.809 -0.0592 -1.5151 -1.5995
   54MOL   H53529261   2.206   2.079   5.025 -0.0061  0.1160 -0.1702
   54MOL   H53629262   2.150   1.918   4.998 -0.8695  1.0548  0.9099
   54MOL   H53729263   2.674   2.037   5.212  1.1488 -1.8554 -2.0629
   54MOL   H53829264   2.534   2.108   5.117  2.9627  2.3386  0.8291
   54MOL   H53929265   2.588   1.955   5.078  0.4440  1.8407 -1.7969
   54MOL   H54029266   2.465   2.104   5.404  0.1601  0.1484  0.8956
   54MOL   H54129267   2.578   1.973   5.442  0.6567 -1.9252 -2.2179
   54MOL   H54229268   2.393   1.963   5.454 -0.2742 -1.0717 -1.6886
   55MOL     C129269   4.871   5.803   3.738  0.2324 -0.7714  0.4489
   55MOL     C229270   4.828   5.774   3.884  0.6326  0.2838  0.7781
   55MOL     C329271   4.942   5.774   3.993 -0.5004 -0.4888 -0.4832
   55MOL     C429272   4.963   5.913   4.061 -0.5395  0.7854 -0.1889
   55MOL     C529273   5.089   5.914   4.156 -0.3084 -0.2294 -0.4666
   55MOL     O629274   5.211   5.949   4.093  0.0553 -0.4690 -0.0471
   55MOL     C729275   5.294   5.855   4.043 -0.8367  0.2587  0.3817
   55MOL     O829276   5.290   5.736   4.071  0.0029 -0.1820  0.2422
   55MOL     C929277   5.392   5.908   3.933 -0.2798  0.5835  0.7794
   55MOL    C1029278   5.451   6.047   3.967 -0.6851 -0.5435  0.3155
   55MOL    C1129279   5.319   5.915   3.801 -0.0614  0.4416 -0.3718
   55MOL    H1229280   4.870   5.911   3.723  1.9297 -0.6927  0.7672
   55MOL    H1329281   4.806   5.766   3.659 -0.1964  2.5189 -0.8349
   55MOL    H1429282   4.966   5.760   3.709  1.1715  1.3710  0.2314
   55MOL    H1529283   4.762   5.857   3.908  0.7875  0.7321 -0.3372
   55MOL    H1629284   4.758   5.692   3.902  0.8959 -0.2795 -0.7101
   55MOL    H1729285   4.902   5.703   4.066  0.3177 -1.4822 -1.0037
   55MOL    H1829286   5.042   5.737   3.974  0.4916  1.5645  0.5496
   55MOL    H1929287   4.879   5.916   4.130 -1.0142  0.9285 -0.7728
   55MOL    H2029288   4.950   5.999   3.995 -0.5245 -0.7782 -2.2817
   55MOL    H2129289   5.075   5.981   4.240 -2.7353 -1.8246  0.4397
   55MOL    H2229290   5.102   5.820   4.209  0.6960  1.1771  1.8603
   55MOL    H2329291   5.374   6.116   3.999 -0.8710 -1.2039  1.3062
   55MOL    H2429292   5.505   6.098   3.886  2.0604 -0.6453  2.0108
   55MOL    H2529293   5.531   6.038   4.040 -0.6984  0.4120  0.4549
   55MOL    H2629294   5.311   6.017   3.764 -0.8657  0.8382  0.8526
   55MOL    H2729295   5.213   5.902   3.823 -0.3038 -0.3666 -1.9457
   55MOL    H2829296   5.472   5.834   3.928  2.4178  3.4117 -0.2506
   55MOL    C2929297   4.743   5.424   3.745  0.2052  0.1377  0.2811
   55MOL    C3029298   4.853   5.415   3.846  0.1427  0.0901  0.1551
   55MOL    C3129299   4.990   5.450   3.779 -0.1926 -0.4797  0.0349
   55MOL    C3229300   5.108   5.458   3.882 -0.6862  0.2574  0.3521
   55MOL    C3329301   5.239   5.487   3.805  0.5007  1.1461  0.0513
   55MOL    O3429302   5.242   5.628   3.765  0.1363  0.9445 -0.6172
   55MOL    C3529303   5.362   5.672   3.729  0.4875 -0.1026  0.0423
   55MOL    O3629304   5.464   5.607   3.740 -0.0924 -0.4574  0.2836
   55MOL    C3729305   5.361   5.821   3.680 -0.7676 -0.1773 -0.3837
   55MOL    C3829306   5.506   5.865   3.648  0.1969 -0.6487 -0.5123
   55MOL    C3929307   5.259   5.844   3.566  0.4101 -0.2146 -0.1033
   55MOL    H4029308   4.643   5.398   3.780  0.7329  0.2254  1.8988
   55MOL    H4129309   4.741   5.525   3.705  0.1064 -0.0929 -0.3068
   55MOL    H4229310   4.765   5.367   3.654  2.0684 -0.5437  1.1429
   55MOL    H4329311   4.850   5.321   3.900 -1.5177  0.4813  0.7887
   55MOL    H4429312   4.829   5.493   3.919  1.6153 -0.5822  1.3719
   55MOL    H4529313   4.990   5.538   3.714  0.8543 -1.1300 -0.8508
   55MOL    H4629314   5.013   5.366   3.714  0.5498  1.3109 -2.0690
   55MOL    H4729315   5.093   5.524   3.968  0.5390  0.9979  0.0146
   55MOL    H4829316   5.111   5.363   3.936 -2.0317  1.4142  2.5656
   55MOL    H4929317   5.256   5.415   3.725  0.7942 -1.0641  2.0462
   55MOL    H5029318   5.314   5.470   3.882 -0.7755 -1.8764  0.7014
   55MOL    H5129319   5.578   5.878   3.729  0.3857 -0.2771 -0.7366
   55MOL    H5229320   5.519   5.954   3.585  0.6662 -0.6128 -0.3652
   55MOL    H5329321   5.553   5.785   3.591  1.4490 -0.5004  0.2860
   55MOL    H5429322   5.275   5.949   3.541  0.7434 -0.4138 -0.7250
   55MOL    H5529323   5.162   5.851   3.614  2.0365  3.0352  3.0058
   55MOL    C5629324   5.397   6.159   2.835 -0.2165 -0.1820 -0.0227
   55MOL    C5729325   5.473   6.033   2.883  0.2271 -0.0737 -0.0350
   55MOL    C5829326   5.446   6.008   3.033 -1.1028  0.0529  0.0047
   55MOL    C5929327   5.503   5.877   3.083  0.5630 -0.5649 -0.0241
   55MOL    C6029328   5.540   5.885   3.231 -0.6847  0.3951  0.2812
   55MOL    O6129329   5.423   5.882   3.317 -0.3891  0.5024 -0.5522
   55MOL    C6229330   5.387   5.769   3.366  0.1604  0.6399  0.1055
   55MOL    O6329331   5.453   5.667   3.359 -0.3030 -0.7429 -0.2087
   55MOL    C6429332   5.247   5.761   3.436 -0.1045 -0.1270  0.1051
   55MOL    C6529333   5.153   5.840   3.337  0.4389  0.1044  0.8033
   55MOL    C6629334   5.201   5.608   3.469  0.9197  1.1652 -0.2525
   55MOL    H6729335   5.423   6.247   2.894 -1.3649  2.0841 -2.8078
   55MOL    H6829336   5.289   6.148   2.845 -0.2601 -0.5515 -0.8553
   55MOL    H6929337   5.415   6.182   2.731 -3.3221 -1.2202 -0.8447
   55MOL    H7029338   5.449   5.939   2.833  1.9113 -0.8556  0.6002
   55MOL    H7129339   5.578   6.058   2.867  0.2023  0.5883  0.8557
   55MOL    H7229340   5.489   6.096   3.081  1.0165 -1.5981  1.2667
   55MOL    H7329341   5.339   6.005   3.053 -1.1410 -0.5834 -0.2750
   55MOL    H7429342   5.598   5.857   3.033  0.0966 -1.2153 -0.6462
   55MOL    H7529343   5.441   5.788   3.068 -0.7399  0.6372 -1.9392
   55MOL    H7629344   5.611   5.806   3.255  0.5579 -0.0667 -4.4779
   55MOL    H7729345   5.601   5.974   3.242  1.2396 -0.8032 -0.5625
   55MOL    H7829346   5.177   5.946   3.339  0.3252  0.1244  1.2981
   55MOL    H7929347   5.046   5.835   3.357  0.3242 -1.9370 -0.2065
   55MOL    H8029348   5.167   5.806   3.235  0.4049 -0.6700  1.0554
   55MOL    H8129349   5.132   5.608   3.553  1.0308  1.3064 -0.1614
   55MOL    H8229350   5.291   5.567   3.514  1.8126  0.6916 -2.3964
   55MOL    C8329351   4.455   5.698   3.570  0.6929  0.4847 -0.7354
   55MOL    C8429352   4.462   5.579   3.475  0.3816 -0.1593  0.2732
   55MOL    C8529353   4.557   5.601   3.354 -0.1559 -0.2950 -0.2512
   55MOL    C8629354   4.699   5.567   3.397  0.5462  0.4765  0.6922
   55MOL    C8729355   4.810   5.629   3.309  0.5490  0.3551 -0.1624
   55MOL    O8829356   4.930   5.564   3.348 -0.0755  0.4640  0.1706
   55MOL    C8929357   5.042   5.561   3.278 -0.0504  0.0657 -0.6698
   55MOL    O9029358   5.050   5.592   3.159 -0.4472  0.0865  0.0731
   55MOL    C9129359   5.160   5.500   3.357  0.3554 -0.0984  0.5829
   55MOL    C9229360   5.275   5.464   3.250 -0.3524  0.4319  0.0108
   55MOL    C9329361   5.110   5.370   3.438 -0.6033 -0.4393 -0.4054
   55MOL    H9429362   4.551   5.721   3.615  1.0749 -0.6465 -0.9646
   55MOL    H9529363   4.427   5.788   3.515  1.0513  0.5224 -0.8571
   55MOL    H9629364   4.377   5.687   3.646  0.9042  0.0471 -0.5769
   55MOL    H9729365   4.365   5.573   3.426  0.6554 -0.9806 -0.1771
   55MOL    H9829366   4.479   5.489   3.536  0.8770  0.4236  1.0065
   55MOL    H9929367   4.552   5.703   3.317  3.1434  1.0137  2.5969
   55MOL   H10029368   4.529   5.530   3.276 -1.1286 -0.7321  0.4783
   55MOL   H10129369   4.718   5.460   3.405 -0.7464  0.2066  0.2686
   55MOL   H10229370   4.703   5.603   3.500 -1.4697  2.1442  0.2235
   55MOL   H10329371   4.825   5.733   3.337 -1.0045  0.0385  1.9791
   55MOL   H10429372   4.789   5.622   3.202 -1.0793  2.9656 -0.0261
   55MOL   H10529373   5.361   5.423   3.303 -1.2862 -3.1079 -1.0684
   55MOL   H10629374   5.301   5.546   3.183  2.7454  0.3539  1.0533
   55MOL   H10729375   5.236   5.385   3.186 -2.1823  1.0307  0.3634
   55MOL   H10829376   5.173   5.343   3.523  2.6301 -0.8284 -2.8082
   55MOL   H10929377   5.025   5.402   3.499  0.1823  1.2138 -0.1568
   55MOL   C11029378   5.395   4.921   3.904  0.0485 -0.8086 -0.0477
   55MOL   C11129379   5.264   5.001   3.946 -1.1353  0.4843 -0.0400
   55MOL   C11229380   5.176   5.059   3.829  0.2378 -0.5655 -0.4739
   55MOL   C11329381   5.105   4.949   3.750 -0.3386  0.8122  0.4678
   55MOL   C11429382   4.999   5.007   3.663 -0.5507 -0.5993  0.4047
   55MOL   O11529383   5.064   5.076   3.556 -0.4351 -0.3146  0.7041
   55MOL   C11629384   4.993   5.151   3.479  0.1686  0.3339 -0.1380
   55MOL   O11729385   4.868   5.159   3.479 -0.1485 -0.2248  0.3232
   55MOL   C11829386   5.073   5.232   3.374 -0.1767  0.4278  0.6079
   55MOL   C11929387   5.199   5.157   3.350  0.2399  0.0722 -0.7658
   55MOL   C12029388   4.991   5.257   3.243 -0.8366 -0.3238  0.5929
   55MOL   H12129389   5.385   4.893   3.800 -1.0471  0.7540 -0.3709
   55MOL   H12229390   5.484   4.982   3.916 -0.7009  0.2061  0.4614
   55MOL   H12329391   5.412   4.832   3.965  1.4113  1.0667  2.4175
   55MOL   H12429392   5.204   4.936   4.010  1.3702 -2.5362 -0.6504
   55MOL   H12529393   5.296   5.086   4.008  1.2178  1.8182 -2.9661
   55MOL   H12629394   5.099   5.107   3.889  4.0521  2.7525  2.0655
   55MOL   H12729395   5.219   5.139   3.768 -2.9790  2.9467  1.6709
   55MOL   H12829396   5.061   4.871   3.812 -1.5687  0.5039 -0.7739
   55MOL   H12929397   5.172   4.901   3.678  1.1772  0.3745  2.1243
   55MOL   H13029398   4.967   4.918   3.609  1.0972 -1.7084  1.2500
   55MOL   H13129399   4.911   5.060   3.698  1.3075  0.8977  2.9344
   55MOL   H13229400   5.248   5.169   3.254  2.1323  0.3430  0.2250
   55MOL   H13329401   5.274   5.160   3.429 -1.9541 -0.0464  1.4097
   55MOL   H13429402   5.170   5.052   3.342 -0.8528  0.1816  1.2520
   55MOL   H13529403   4.905   5.313   3.279  0.9223  1.5922  1.8818
   55MOL   H13629404   5.036   5.333   3.179 -3.7854  1.6935  0.8331
   55MOL   C13729405   5.666   5.185   2.761  0.3573 -0.7697  0.0041
   55MOL   C13829406   5.539   5.138   2.829  0.8755 -0.4966 -0.3094
   55MOL   C13929407   5.416   5.161   2.743  0.1301 -0.2253 -0.1018
   55MOL   C14029408   5.287   5.133   2.819  0.2634  0.4238  0.3001
   55MOL   C14129409   5.258   5.210   2.941 -0.4696 -0.2761 -0.1505
   55MOL   O14229410   5.134   5.210   2.992  0.1969 -0.4992  0.2648
   55MOL   C14329411   5.090   5.106   3.066 -0.3461 -0.2726 -0.0600
   55MOL   O14429412   5.145   4.996   3.070  0.0320  0.2408  0.2363
   55MOL   C14529413   4.957   5.146   3.137 -0.0296  0.3711 -0.4203
   55MOL   C14629414   4.895   5.017   3.198 -0.2765 -0.2089 -0.2255
   55MOL   C14729415   4.847   5.215   3.041  0.2966  0.6465  0.1430
   55MOL   H14829416   5.675   5.290   2.731  1.3695 -0.4910  1.2324
   55MOL   H14929417   5.673   5.128   2.668 -3.6323 -0.0192 -0.8529
   55MOL   H15029418   5.754   5.176   2.825  0.4554  0.3164  0.0311
   55MOL   H15129419   5.530   5.177   2.931 -1.5809 -0.7050 -0.4255
   55MOL   H15229420   5.541   5.035   2.865 -1.3299 -0.0599  1.1327
   55MOL   H15329421   5.410   5.268   2.724 -1.7232 -0.0435  1.2725
   55MOL   H15429422   5.417   5.106   2.649 -0.6404 -0.5059  0.0493
   55MOL   H15529423   5.209   5.149   2.745 -0.7852  0.4079  1.3856
   55MOL   H15629424   5.280   5.024   2.823  0.6236  0.4233  1.0608
   55MOL   H15729425   5.268   5.316   2.920 -1.9392 -0.0569  0.2187
   55MOL   H15829426   5.322   5.191   3.027 -1.4681  0.1481  0.6974
   55MOL   H15929427   4.959   4.964   3.269 -1.6426  0.7391  1.7650
   55MOL   H16029428   4.872   4.945   3.119  0.9300 -0.0972 -0.6848
   55MOL   H16129429   4.805   5.046   3.253  0.9368  0.1980  1.5833
   55MOL   H16229430   4.775   5.264   3.106 -1.5647 -0.1807 -1.2439
   55MOL   H16329431   4.895   5.303   2.999  2.9745 -0.8122  0.0071
   55MOL   C16429432   4.424   5.184   3.629  0.2434  0.9116 -0.0801
   55MOL   C16529433   4.375   5.168   3.487  0.0511  0.3345 -0.5481
   55MOL   C16629434   4.458   5.079   3.387 -0.0504 -0.2112 -0.8875
   55MOL   C16729435   4.420   5.101   3.240  0.2221  1.0456 -0.0714
   55MOL   C16829436   4.498   5.018   3.144  0.1690  0.0389  0.3323
   55MOL   O16929437   4.601   5.093   3.089 -0.6369 -0.0476 -0.2393
   55MOL   C17029438   4.666   5.054   2.979 -0.6165 -0.0694 -0.3145
   55MOL   O17129439   4.648   4.946   2.920 -0.0344 -0.3536  0.2807
   55MOL   C17229440   4.764   5.159   2.925  0.8267  0.1911 -0.1712
   55MOL   C17329441   4.854   5.087   2.828 -0.3260 -0.1356 -0.1781
   55MOL   C17429442   4.699   5.284   2.859  0.7596 -0.7437 -0.1659
   55MOL   H17529443   4.530   5.210   3.632  1.0438 -2.1125  0.0235
   55MOL   H17629444   4.415   5.092   3.686  0.4256  1.3668  0.6826
   55MOL   H17729445   4.356   5.257   3.672 -0.8575  0.2637 -0.6927
   55MOL   H17829446   4.368   5.268   3.445 -3.7686  0.0857 -0.6956
   55MOL   H17929447   4.269   5.141   3.490  0.6913 -2.2486  0.1979
   55MOL   H18029448   4.560   5.116   3.398 -0.1008 -0.8283  2.4874
   55MOL   H18129449   4.451   4.973   3.414  1.3285 -0.5289 -1.7792
   55MOL   H18229450   4.444   5.206   3.220  0.1318  0.7698 -1.6740
   55MOL   H18329451   4.316   5.071   3.229  0.5688 -0.0126 -0.5258
   55MOL   H18429452   4.424   4.992   3.069  0.0620 -2.7805  1.3222
   55MOL   H18529453   4.531   4.923   3.189 -0.9771 -1.0053 -0.9962
   55MOL   H18629454   4.808   5.015   2.761  1.2488 -0.7502 -0.5926
   55MOL   H18729455   4.923   5.023   2.882 -0.8601 -1.4230 -1.0050
   55MOL   H18829456   4.906   5.152   2.758 -0.2772  1.3517  1.2104
   55MOL   H18929457   4.652   5.350   2.931 -0.7774 -0.5803 -1.2831
   55MOL   H19029458   4.784   5.339   2.821  1.1039 -2.0792 -1.3953
   55MOL   C19129459   4.135   5.665   3.035  0.1800 -0.0517 -0.2049
   55MOL   C19229460   4.161   5.557   3.141 -0.5174  0.9252  0.4462
   55MOL   C19329461   4.254   5.449   3.085  0.7696  1.0219 -0.1095
   55MOL   C19429462   4.199   5.375   2.968  0.2944  0.3337  0.0588
   55MOL   C19529463   4.283   5.243   2.941 -0.1021 -0.3368  0.8841
   55MOL   O19629464   4.420   5.276   2.896 -0.5807 -0.3232  0.0768
   55MOL   C19729465   4.456   5.260   2.767  0.2234 -0.0460 -0.3172
   55MOL   O19829466   4.376   5.240   2.680  0.2404 -0.0181  0.0683
   55MOL   C19929467   4.604   5.279   2.733  0.3294 -0.1183  0.4182
   55MOL   C20029468   4.645   5.176   2.621  0.1794  0.4833 -0.7682
   55MOL   C20129469   4.624   5.415   2.654 -0.4460 -0.1942 -0.6257
   55MOL   H20229470   4.231   5.703   2.999 -0.8191  1.4089 -1.3576
   55MOL   H20329471   4.082   5.618   2.952  3.0255 -0.3121 -1.9335
   55MOL   H20429472   4.074   5.744   3.078 -2.2162 -1.2132 -1.4077
   55MOL   H20529473   4.064   5.517   3.170 -1.2164  1.5519 -1.0232
   55MOL   H20629474   4.209   5.610   3.224  1.7579 -0.1242 -0.1398
   55MOL   H20729475   4.284   5.391   3.172  2.0873  1.2753 -0.3830
   55MOL   H20829476   4.355   5.483   3.061  1.0067 -0.6743 -1.5597
   55MOL   H20929477   4.099   5.335   2.984 -0.8932  3.0847 -0.2080
   55MOL   H21029478   4.196   5.443   2.883  0.1277  0.9886  0.5818
   55MOL   H21129479   4.288   5.163   3.015  1.9112 -1.3658 -0.3240
   55MOL   H21229480   4.232   5.187   2.862 -1.7283  0.2485  1.5175
   55MOL   H21329481   4.596   5.192   2.525 -1.3808 -1.4533 -0.3112
   55MOL   H21429482   4.626   5.078   2.664 -1.3484  1.4674  0.8636
   55MOL   H21529483   4.751   5.171   2.598  0.6055 -2.8658  1.6384
   55MOL   H21629484   4.553   5.413   2.572 -1.3667  3.3344 -0.0171
   55MOL   H21729485   4.716   5.406   2.596 -0.1744  3.1616 -0.7963
   55MOL   C21829486   5.454   5.603   2.851  0.1316  0.3071  0.4024
   55MOL   C21929487   5.329   5.584   2.765 -0.7869  0.4617 -0.5065
   55MOL   C22029488   5.208   5.630   2.846  0.5216  0.2083 -0.2829
   55MOL   C22129489   5.079   5.616   2.759  0.3385 -0.7100 -0.1101
   55MOL   C22229490   4.961   5.615   2.844  0.2040  0.4907  0.1561
   55MOL   O22329491   4.854   5.596   2.763  0.1138  0.4603  0.3806
   55MOL   C22429492   4.731   5.594   2.820 -0.6750 -0.1019  0.6425
   55MOL   O22529493   4.714   5.606   2.944 -0.2970  0.5652  0.5748
   55MOL   C22629494   4.616   5.562   2.717 -0.2814  0.2966 -0.5276
   55MOL   C22729495   4.483   5.578   2.795  0.7918 -0.2948  0.4282
   55MOL   C22829496   4.626   5.652   2.594 -0.3241 -0.0085  0.8831
   55MOL   H22929497   5.460   5.711   2.851 -0.6936  0.3627  1.0079
   55MOL   H23029498   5.461   5.556   2.949  0.8467  0.7172  0.5442
   55MOL   H23129499   5.536   5.557   2.797 -1.1758 -2.0581  0.3391
   55MOL   H23229500   5.326   5.476   2.749 -2.1392  0.0736  2.1005
   55MOL   H23329501   5.333   5.618   2.662  1.4116  3.2435  0.4564
   55MOL   H23429502   5.226   5.734   2.872 -2.1008  0.6766 -0.1560
   55MOL   H23529503   5.208   5.571   2.937  1.3405 -1.5148 -1.3803
   55MOL   H23629504   5.076   5.705   2.696 -1.6043  0.2513  1.2985
   55MOL   H23729505   5.090   5.531   2.691  0.6127  0.8412 -2.0521
   55MOL   H23829506   4.953   5.703   2.909  1.0722 -1.5993  3.2274
   55MOL   H23929507   4.965   5.532   2.915  3.0338  0.3317 -0.1233
   55MOL   H24029508   4.394   5.561   2.735 -0.2925  2.8418  1.0568
   55MOL   H24129509   4.475   5.683   2.825 -2.7032 -0.3627 -0.1731
   55MOL   H24229510   4.477   5.515   2.884  2.8513  0.7432  1.3548
   55MOL   H24329511   4.552   5.622   2.520  0.3483  1.4686 -0.4104
   55MOL   H24429512   4.720   5.629   2.545 -0.9687 -0.2211 -0.2635
   55MOL   C24529513   5.217   6.239   2.435  0.2238  0.6785 -0.4731
   55MOL   C24629514   5.130   6.187   2.551 -0.2586  0.1252  0.0496
   55MOL   C24729515   4.996   6.129   2.514 -0.4224  0.0607  0.6250
   55MOL   C24829516   4.998   6.002   2.429  0.2605 -0.4308 -0.3384
   55MOL   C24929517   4.864   5.955   2.375  0.9731  0.2194  0.6750
   55MOL   O25029518   4.806   5.902   2.488  0.4390 -0.4243  0.1114
   55MOL   C25129519   4.673   5.860   2.469  0.3856 -0.1865 -0.2793
   55MOL   O25229520   4.622   5.858   2.358 -0.4295 -0.1780 -0.4662
   55MOL   C25329521   4.596   5.812   2.600 -0.2012 -0.2340  0.2149
   55MOL   C25429522   4.663   5.877   2.720 -0.2828 -0.4673 -0.0679
   55MOL   C25529523   4.438   5.828   2.585 -0.1932  0.1518 -0.2093
   55MOL   H25629524   5.309   6.271   2.484  0.7624 -0.6114 -0.6205
   55MOL   H25729525   5.253   6.163   2.365  0.1899 -0.0885  0.3360
   55MOL   H25829526   5.160   6.315   2.383 -0.0252  1.4972  0.9807
   55MOL   H25929527   5.178   6.110   2.612 -0.3021 -0.6583 -0.8858
   55MOL   H26029528   5.105   6.265   2.622  0.8481  0.1689  0.3922
   55MOL   H26129529   4.946   6.215   2.469 -1.5695 -1.5741 -1.3533
   55MOL   H26229530   4.952   6.110   2.612  0.5085  0.8124  1.1957
   55MOL   H26329531   5.069   6.023   2.349 -0.4128 -0.5070 -0.9591
   55MOL   H26429532   5.047   5.928   2.493 -1.1195 -0.3912  0.7701
   55MOL   H26529533   4.803   6.031   2.327  2.7080  1.1436 -0.1449
   55MOL   H26629534   4.880   5.873   2.306  0.3051  1.1626 -0.6218
   55MOL   H26729535   4.771   5.861   2.717 -0.0958  0.9220 -1.2419
   55MOL   H26829536   4.643   5.983   2.706  1.3548 -0.0032  0.8724
   55MOL   H26929537   4.628   5.849   2.820  2.8400  1.2369  1.6161
   55MOL   H27029538   4.410   5.793   2.486 -0.7741  1.5566 -0.5618
   55MOL   H27129539   4.402   5.750   2.652  0.5122  0.0883  0.1068
   55MOL   C27229540   4.041   6.071   3.202 -0.5655  0.8878 -0.0345
   55MOL   C27329541   4.075   6.218   3.188  0.1431  0.1801  0.8578
   55MOL   C27429542   4.198   6.245   3.098 -0.1855 -0.4502  0.2013
   55MOL   C27529543   4.202   6.167   2.959  0.5942 -0.4022  0.0596
   55MOL   C27629544   4.306   6.216   2.858  0.3421 -0.4035 -0.7363
   55MOL   O27729545   4.303   6.140   2.746  0.4077 -0.3623 -0.1025
   55MOL   C27829546   4.358   6.026   2.747 -0.1098  0.0749  0.2660
   55MOL   O27929547   4.406   5.960   2.843 -0.4491 -0.9107  1.2716
   55MOL   C28029548   4.368   5.968   2.599  0.1556 -0.0671 -0.3563
   55MOL   C28129549   4.440   6.079   2.519 -0.1334  0.0240  0.8204
   55MOL   C28229550   4.217   5.961   2.549 -0.5066 -0.0603  0.4289
   55MOL   H28329551   3.963   6.058   3.277 -0.9205  0.6296 -0.4491
   55MOL   H28429552   4.004   6.025   3.111  1.7888 -0.2395 -0.4575
   55MOL   H28529553   4.126   6.013   3.236 -0.1789  0.5716 -1.5187
   55MOL   H28629554   3.983   6.263   3.153 -1.1745 -0.1623  3.7313
   55MOL   H28729555   4.094   6.266   3.284  4.6267 -1.2660  0.8390
   55MOL   H28829556   4.201   6.351   3.074  0.1534 -0.4968  0.0387
   55MOL   H28929557   4.289   6.225   3.156  0.1398  2.7478  0.9115
   55MOL   H29029558   4.213   6.062   2.986  0.4991 -0.3288  0.3936
   55MOL   H29129559   4.105   6.175   2.911  0.4110 -1.5294  0.2372
   55MOL   H29229560   4.403   6.214   2.908 -0.5300 -4.6317  1.0457
   55MOL   H29329561   4.294   6.320   2.829  0.1634 -0.7285 -1.8446
   55MOL   H29429562   4.386   6.174   2.523 -1.3348 -0.6107  0.1287
   55MOL   H29529563   4.540   6.097   2.558 -0.2098 -0.3633  1.2097
   55MOL   H29629564   4.447   6.039   2.418 -1.6130 -1.8871  1.4365
   55MOL   H29729565   4.168   6.058   2.552 -1.7706 -0.7174  1.5686
   55MOL   H29829566   4.237   5.953   2.442  0.4697  3.1583  0.3004
   55MOL   C29929567   4.493   5.738   1.950  0.0534 -0.1368 -0.8220
   55MOL   C30029568   4.429   5.851   2.038 -1.0362 -0.4507  0.2097
   55MOL   C30129569   4.393   5.796   2.169  0.3438 -0.9948 -0.2023
   55MOL   C30229570   4.270   5.702   2.164  0.6123 -0.0656  0.1356
   55MOL   C30329571   4.235   5.644   2.295 -0.0171 -0.0550 -0.1356
   55MOL   O30429572   4.175   5.739   2.377 -0.0881  0.2293 -0.0627
   55MOL   C30529573   4.150   5.714   2.504 -0.3801  0.7147 -0.8605
   55MOL   O30629574   4.161   5.608   2.562  0.5987 -0.4970 -0.8990
   55MOL   C30729575   4.108   5.851   2.581 -0.0147 -0.0780  0.1341
   55MOL   C30829576   4.097   5.821   2.733  0.2299 -0.6424  0.0578
   55MOL   C30929577   3.974   5.918   2.520 -0.1418 -0.0819 -0.2337
   55MOL   H31029578   4.584   5.693   1.989  0.4752  1.5349  0.1519
   55MOL   H31129579   4.534   5.779   1.858  1.4271 -0.3325 -0.3086
   55MOL   H31229580   4.419   5.661   1.930 -0.8593  0.0232  1.7799
   55MOL   H31329581   4.346   5.890   1.979 -0.5005  2.6129  1.4097
   55MOL   H31429582   4.491   5.937   2.060 -0.2515 -1.6284  2.7181
   55MOL   H31529583   4.373   5.882   2.233 -0.2140 -0.0774 -1.5876
   55MOL   H31629584   4.477   5.741   2.212 -0.6954 -2.4359 -0.0057
   55MOL   H31729585   4.279   5.625   2.088  0.4582  0.2574 -0.2109
   55MOL   H31829586   4.182   5.752   2.125  2.5148  1.5983 -2.1593
   55MOL   H31929587   4.158   5.567   2.288  0.2537 -0.2816 -0.6255
   55MOL   H32029588   4.310   5.586   2.349 -0.2036 -0.7468 -0.6113
   55MOL   H32129589   4.054   5.721   2.746 -0.5833 -0.1481  1.3250
   55MOL   H32229590   4.190   5.826   2.789 -1.1150  0.3391  2.2801
   55MOL   H32329591   4.028   5.883   2.791  1.1579 -0.2372  0.7388
   55MOL   H32429592   4.005   5.928   2.416 -1.6194 -4.2309 -1.1343
   55MOL   H32529593   3.965   6.016   2.567  2.9766 -0.6407  1.7372
   55MOL   C32629594   3.196   5.797   2.793  0.0747 -0.1027 -0.8703
   55MOL   C32729595   3.295   5.915   2.814  0.4432 -0.2711 -0.1476
   55MOL   C32829596   3.441   5.868   2.820  0.5602 -0.0915 -0.3471
   55MOL   C32929597   3.534   5.986   2.862  0.0579  0.2173  0.5548
   55MOL   C33029598   3.685   5.953   2.840  0.3198 -0.3582 -0.6077
   55MOL   O33129599   3.719   5.951   2.705 -0.6929 -0.5857  0.2102
   55MOL   C33229600   3.780   5.842   2.653 -0.4923  0.0679 -0.0988
   55MOL   O33329601   3.804   5.742   2.720 -0.0636  0.4095  0.3325
   55MOL   C33429602   3.832   5.860   2.504  0.1274  0.6092 -0.3762
   55MOL   C33529603   3.743   5.963   2.428 -0.4521 -0.0999  0.5468
   55MOL   C33629604   3.837   5.726   2.429  0.3337 -0.3922 -0.0491
   55MOL   H33729605   3.197   5.708   2.856 -1.6834  0.0257 -0.6403
   55MOL   H33829606   3.209   5.766   2.690  0.0334 -0.0065 -0.9041
   55MOL   H33929607   3.095   5.835   2.808  0.2273 -0.5013  1.4145
   55MOL   H34029608   3.275   5.977   2.901 -1.1075 -1.5133  0.4018
   55MOL   H34129609   3.277   5.989   2.737 -0.0995  0.1665  0.4022
   55MOL   H34229610   3.477   5.837   2.722 -0.0548 -1.0554 -0.2746
   55MOL   H34329611   3.448   5.780   2.884 -2.9400  0.5938  1.0870
   55MOL   H34429612   3.524   5.999   2.970  0.2066 -0.0928  0.6039
   55MOL   H34529613   3.503   6.081   2.818 -3.2866 -1.5971 -1.1301
   55MOL   H34629614   3.712   5.872   2.908  0.2291  0.8544  0.9005
   55MOL   H34729615   3.744   6.029   2.891  0.7644 -1.1751  0.1198
   55MOL   H34829616   3.743   6.065   2.465 -1.1935 -0.5968  1.9734
   55MOL   H34929617   3.637   5.934   2.430 -0.1854 -1.1949 -0.3859
   55MOL   H35029618   3.771   5.960   2.323 -0.5662  0.4282  0.5015
   55MOL   H35129619   3.888   5.654   2.493 -3.0061 -3.0409 -0.1819
   55MOL   H35229620   3.914   5.733   2.352  0.7731  0.2293  0.4400
   55MOL   C35329621   4.064   6.190   2.126  0.6597 -0.3416 -0.4907
   55MOL   C35429622   3.923   6.148   2.065  0.5265  0.9249 -0.1327
   55MOL   C35529623   3.910   5.991   2.063 -0.0718  0.5937 -1.1363
   55MOL   C35629624   3.763   5.949   2.032 -0.1901  0.1329 -0.4856
   55MOL   C35729625   3.748   5.797   2.026  0.7907 -0.5346 -0.6458
   55MOL   O35829626   3.769   5.725   2.146  0.0616 -0.1245 -0.1925
   55MOL   C35929627   3.678   5.723   2.237  0.5354  0.3040 -0.6896
   55MOL   O36029628   3.571   5.776   2.224  0.1418 -0.5370 -0.2986
   55MOL   C36129629   3.721   5.643   2.364 -1.0700 -0.0352  0.1327
   55MOL   C36229630   3.602   5.621   2.459  0.3835 -0.2910  0.0968
   55MOL   C36329631   3.782   5.501   2.326 -0.2548  0.1829  0.2607
   55MOL   H36429632   4.070   6.296   2.102  1.5988 -0.3920 -0.4840
   55MOL   H36529633   4.157   6.142   2.097  1.8166  0.5790  1.5541
   55MOL   H36629634   4.077   6.185   2.235 -0.9608  1.0981 -0.1982
   55MOL   H36729635   3.848   6.189   2.132  0.0248  0.5100 -0.4339
   55MOL   H36829636   3.913   6.181   1.961  2.0332 -2.2149 -1.3439
   55MOL   H36929637   3.947   5.951   2.157 -1.4380  1.0687 -0.3797
   55MOL   H37029638   3.977   5.969   1.979 -0.5089 -2.6091 -0.7275
   55MOL   H37129639   3.747   5.988   1.931  0.1377  0.6655 -0.3314
   55MOL   H37229640   3.702   5.996   2.109  1.4498 -0.3740  1.1626
   55MOL   H37329641   3.651   5.765   1.987  0.2992  1.1338 -0.8327
   55MOL   H37429642   3.816   5.769   1.946  0.0769  1.6155 -2.0580
   55MOL   H37529643   3.508   5.601   2.410 -0.3746  1.0424  0.9450
   55MOL   H37629644   3.617   5.534   2.522  0.4533 -0.2511  0.1366
   55MOL   H37729645   3.576   5.712   2.514 -1.9725 -1.0576  0.2740
   55MOL   H37829646   3.866   5.528   2.262  1.2959 -0.6576  1.8863
   55MOL   H37929647   3.823   5.462   2.419 -0.5998 -0.8586 -0.0226
   55MOL   C38029648   4.039   5.624   1.765 -0.3705  0.2108  0.0667
   55MOL   C38129649   4.042   5.471   1.777 -0.3255  1.1155  0.5100
   55MOL   C38229650   4.038   5.427   1.919  0.3721  0.5415  0.5746
   55MOL   C38329651   3.998   5.275   1.926 -0.3485 -0.5531  0.2548
   55MOL   C38429652   3.977   5.230   2.073  0.0095 -0.8027 -0.0083
   55MOL   O38529653   3.868   5.316   2.117  0.4343  0.0922  0.4800
   55MOL   C38629654   3.798   5.282   2.226  0.3741 -0.2577  0.2934
   55MOL   O38729655   3.819   5.184   2.291  0.0685  0.2336  0.1743
   55MOL   C38829656   3.689   5.388   2.268  0.6035 -0.0346 -0.5605
   55MOL   C38929657   3.594   5.323   2.376  0.1425  0.8437 -0.1405
   55MOL   C39029658   3.619   5.429   2.136 -0.1364  0.9799 -0.0452
   55MOL   H39129659   4.075   5.649   1.665  0.5308 -0.9293  0.0887
   55MOL   H39229660   3.946   5.676   1.785  0.5344  2.2821 -0.9712
   55MOL   H39329661   4.113   5.656   1.838 -1.3949 -0.3883  1.3843
   55MOL   H39429662   4.131   5.424   1.734  0.4908  1.8373  1.3616
   55MOL   H39529663   3.960   5.427   1.721  1.3713 -0.5893 -0.7186
   55MOL   H39629664   4.139   5.428   1.961  0.8343 -2.0986 -0.4069
   55MOL   H39729665   3.973   5.499   1.969  2.2228  0.1806  3.6346
   55MOL   H39829666   3.913   5.246   1.865  1.0264 -1.0174 -1.4872
   55MOL   H39929667   4.073   5.216   1.873 -1.6095 -1.6234 -0.3892
   55MOL   H40029668   4.070   5.250   2.126 -1.0108  0.4223  1.3954
   55MOL   H40129669   3.942   5.127   2.077 -0.1136 -0.7445  0.5017
   55MOL   H40229670   3.561   5.223   2.350 -0.1201  0.5611  1.2393
   55MOL   H40329671   3.507   5.384   2.401 -3.5937 -2.2933 -4.6682
   55MOL   H40429672   3.649   5.298   2.467  0.0287 -1.6042 -0.7005
   55MOL   H40529673   3.688   5.478   2.068  0.1140  0.6677 -0.0221
   55MOL   H40629674   3.558   5.515   2.163 -1.8254  0.2287 -1.3858
   55MOL   C40729675   3.242   5.332   2.716 -0.1537 -0.3250  0.1539
   55MOL   C40829676   3.250   5.440   2.600 -0.7206 -0.0449 -0.4435
   55MOL   C40929677   3.197   5.379   2.466 -0.2639 -0.0541 -0.1267
   55MOL   C41029678   3.187   5.486   2.351 -0.0518 -0.2448  0.8051
   55MOL   C41129679   3.184   5.436   2.213 -0.2332 -0.2678 -0.3971
   55MOL   O41229680   3.308   5.436   2.156  0.0301  0.2860 -0.5200
   55MOL   C41329681   3.384   5.321   2.158  0.6531 -0.2256  0.4531
   55MOL   O41429682   3.352   5.216   2.214 -0.3836 -0.1376 -0.1234
   55MOL   C41529683   3.511   5.341   2.064 -0.7257 -0.0566  0.2291
   55MOL   C41629684   3.479   5.435   1.945  0.3869  0.2259  0.0712
   55MOL   C41729685   3.568   5.211   2.014  0.5345  0.5610  0.0627
   55MOL   H41829686   3.295   5.366   2.805 -1.2913 -0.2350  0.8005
   55MOL   H41929687   3.139   5.315   2.746  0.3863 -0.1988  2.1746
   55MOL   H42029688   3.293   5.239   2.688  0.8848 -0.0235  0.9811
   55MOL   H42129689   3.356   5.466   2.612 -0.0488 -3.5516  1.8254
   55MOL   H42229690   3.192   5.527   2.631 -3.1845 -1.0924 -2.0002
   55MOL   H42329691   3.272   5.304   2.437  1.4311  1.8005 -0.6642
   55MOL   H42429692   3.098   5.336   2.479  0.0027 -0.2651  1.2620
   55MOL   H42529693   3.263   5.563   2.361 -0.0504 -0.3162  1.3815
   55MOL   H42629694   3.091   5.536   2.366  0.1608  0.4925 -0.2111
   55MOL   H42729695   3.128   5.343   2.220 -2.2595  1.1099  2.7626
   55MOL   H42829696   3.121   5.493   2.144  0.1855 -1.7367 -2.0407
   55MOL   H42929697   3.554   5.425   1.867  0.1751  2.5898 -0.4618
   55MOL   H43029698   3.475   5.542   1.965  1.6448  0.0473  1.4170
   55MOL   H43129699   3.378   5.421   1.906  0.6647  2.6641 -1.6826
   55MOL   H43229700   3.581   5.157   2.107  0.2773 -0.1802 -0.3260
   55MOL   H43329701   3.666   5.233   1.972 -0.5802  1.3366 -2.2068
   55MOL   C43429702   3.800   5.690   1.341 -0.1584 -0.1494 -0.0178
   55MOL   C43529703   3.741   5.635   1.467 -0.1209 -0.1705  0.6635
   55MOL   C43629704   3.694   5.487   1.469 -0.5446 -0.4727 -0.3047
   55MOL   C43729705   3.669   5.412   1.607  0.0398 -0.3703 -0.2495
   55MOL   C43829706   3.644   5.265   1.597 -0.7680  0.1836 -0.7553
   55MOL   O43929707   3.629   5.204   1.728 -0.6591  0.3454 -0.1424
   55MOL   C44029708   3.501   5.173   1.764 -0.1441  0.3328 -0.2636
   55MOL   O44129709   3.402   5.184   1.684  0.5371 -1.0679 -0.4570
   55MOL   C44229710   3.484   5.123   1.914  0.1408  1.0628  0.1414
   55MOL   C44329711   3.332   5.114   1.944  0.0360  0.7127 -0.3809
   55MOL   C44429712   3.547   4.981   1.930  0.5153  0.4894 -0.5181
   55MOL   H44529713   3.796   5.798   1.327  2.3259 -0.0259  0.1244
   55MOL   H44629714   3.903   5.661   1.319 -0.6062 -4.0832  2.5303
   55MOL   H44729715   3.736   5.663   1.256  0.7357 -0.7309 -0.5123
   55MOL   H44829716   3.803   5.658   1.554  0.9407  0.1073 -0.1621
   55MOL   H44929717   3.645   5.686   1.479 -0.3169 -0.2167 -0.6875
   55MOL   H45029718   3.605   5.467   1.410  1.1409 -1.5357 -2.5678
   55MOL   H45129719   3.764   5.416   1.424  0.6425 -0.3902  1.3591
   55MOL   H45229720   3.582   5.457   1.655  1.1354  0.7283  0.7440
   55MOL   H45329721   3.757   5.422   1.671 -0.9333  0.3039  1.0147
   55MOL   H45429722   3.738   5.226   1.559 -0.4738 -0.3674  0.5374
   55MOL   H45529723   3.568   5.226   1.530  0.8454  1.0677 -3.1836
   55MOL   H45629724   3.274   5.074   1.861  2.1940 -2.7443 -0.3433
   55MOL   H45729725   3.319   5.047   2.029  0.6148  1.3806  0.2395
   55MOL   H45829726   3.286   5.212   1.955 -0.3382  0.7214 -1.9148
   55MOL   H45929727   3.516   4.943   2.027  1.3587  0.1633 -0.3798
   55MOL   H46029728   3.655   4.992   1.940  0.6064 -0.8550 -0.0526
   55MOL   C46129729   4.048   5.252   1.466  0.3143 -0.1467  0.1930
   55MOL   C46229730   4.072   5.097   1.455 -0.8654  0.4051  0.3731
   55MOL   C46329731   4.076   5.021   1.585  0.1930  0.1275  0.3490
   55MOL   C46429732   3.949   5.026   1.673 -0.3646  0.4732 -0.0665
   55MOL   C46529733   3.829   4.944   1.623 -0.2818  0.1870  0.4412
   55MOL   O46629734   3.737   4.920   1.728 -0.9020 -0.2900 -0.1487
   55MOL   C46729735   3.618   4.872   1.702 -0.3358  0.4433  0.5709
   55MOL   O46829736   3.572   4.853   1.588  0.6351  0.6930  0.4052
   55MOL   C46929737   3.528   4.859   1.826 -0.7772  0.8234  0.1946
   55MOL   C47029738   3.384   4.845   1.779  0.1633  0.2349  0.0983
   55MOL   C47129739   3.562   4.729   1.912  0.5426 -0.1251 -0.2634
   55MOL   H47229740   4.110   5.302   1.540  0.4806 -0.6326  0.3797
   55MOL   H47329741   3.946   5.279   1.491  0.7667  1.1767  0.6317
   55MOL   H47429742   4.061   5.306   1.372  1.6740  0.9832  1.0126
   55MOL   H47529743   4.168   5.074   1.410 -0.2717  0.5456  1.5583
   55MOL   H47629744   3.996   5.049   1.392  0.0863  0.6842 -1.0014
   55MOL   H47729745   4.156   5.059   1.649  1.7063 -0.7425 -0.9711
   55MOL   H47829746   4.110   4.918   1.572 -1.5121 -0.3158 -0.7426
   55MOL   H47929747   3.926   5.132   1.683  4.0395  1.4961 -0.0278
   55MOL   H48029748   3.971   4.994   1.775  1.6286  1.7251 -0.0918
   55MOL   H48129749   3.769   4.988   1.543  0.9714  1.9111  0.4250
   55MOL   H48229750   3.863   4.847   1.584 -0.4876 -0.7777  2.5868
   55MOL   H48329751   3.312   4.852   1.860 -1.3957 -1.0232 -1.1276
   55MOL   H48429752   3.362   4.766   1.707 -0.7384 -2.5600  3.3431
   55MOL   H48529753   3.351   4.933   1.725  0.4686  1.1203  1.3490
   55MOL   H48629754   3.468   4.710   1.965  1.8965  0.1425  2.2925
   55MOL   H48729755   3.626   4.759   1.995 -0.1481  2.1812 -0.5089
   55MOL   C48829756   4.390   4.975   1.999  0.0209  0.1837 -0.2435
   55MOL   C48929757   4.240   4.948   2.023  0.0467 -0.0766 -0.3221
   55MOL   C49029758   4.186   4.831   1.946  0.6676  0.3264  0.7533
   55MOL   C49129759   4.044   4.789   1.989  0.3372  0.8052 -0.1163
   55MOL   C49229760   3.986   4.673   1.904 -1.0587 -0.1938 -0.1047
   55MOL   O49329761   3.851   4.643   1.931 -0.0457  0.1329 -0.0359
   55MOL   C49429762   3.773   4.612   1.828  0.7373 -0.0373 -0.5378
   55MOL   O49529763   3.803   4.602   1.710  0.3816  0.0609 -0.3731
   55MOL   C49629764   3.628   4.590   1.869  0.1294  0.5967  0.4764
   55MOL   C49729765   3.544   4.533   1.754 -0.0345  0.7694  0.3703
   55MOL   C49829766   3.621   4.501   2.000 -0.0081 -0.2155 -0.0246
   55MOL   H49929767   4.448   4.893   2.042  1.1991  1.9902  1.6899
   55MOL   H50029768   4.413   4.981   1.893  1.4576  0.4671  0.0768
   55MOL   H50129769   4.441   5.062   2.039 -1.8441  0.7612  0.9838
   55MOL   H50229770   4.185   5.041   2.009 -3.1953 -1.7488  0.9818
   55MOL   H50329771   4.226   4.926   2.129 -0.3865  0.6624 -0.2252
   55MOL   H50429772   4.157   4.846   1.843 -1.5852 -0.9419  1.1693
   55MOL   H50529773   4.256   4.747   1.948 -1.1273 -1.2163  1.2478
   55MOL   H50629774   3.987   4.882   1.982 -2.4960 -0.9543 -0.8792
   55MOL   H50729775   4.040   4.749   2.090  2.0448  0.3016 -0.2339
   55MOL   H50829776   3.999   4.689   1.797  0.2295 -0.3545  0.0131
   55MOL   H50929777   4.032   4.577   1.929  0.8238  0.1871 -1.8942
   55MOL   H51029778   3.589   4.445   1.707 -2.8745 -0.5268  0.0092
   55MOL   H51129779   3.531   4.605   1.673  2.6288 -0.6530 -1.3962
   55MOL   H51229780   3.443   4.505   1.783 -0.1346  0.1098 -0.5987
   55MOL   H51329781   3.520   4.508   2.041 -0.3265 -1.0772 -0.6430
   55MOL   H51429782   3.677   4.554   2.077 -0.4549  1.1420 -0.6198
   55MOL   C51529783   4.257   4.199   1.381  0.6013  0.3201  0.2259
   55MOL   C51629784   4.110   4.226   1.429 -0.1304  0.0442  0.5665
   55MOL   C51729785   4.083   4.240   1.580  0.1584 -0.0681 -0.4661
   55MOL   C51829786   3.935   4.240   1.625 -0.2593  0.3930  0.5413
   55MOL   C51929787   3.930   4.247   1.780  0.2384  0.1908 -0.4834
   55MOL   O52029788   3.799   4.264   1.833  0.1898 -0.7707 -0.2715
   55MOL   C52129789   3.797   4.317   1.964 -0.5696 -0.7588 -0.0782
   55MOL   O52229790   3.900   4.351   2.026 -0.3844  0.1711  0.5571
   55MOL   C52329791   3.653   4.346   2.009  0.4385  0.5843  0.2123
   55MOL   C52429792   3.558   4.253   1.930  0.8406  0.1346 -0.4244
   55MOL   C52529793   3.647   4.317   2.158  0.1393  0.4600  0.4663
   55MOL   H52629794   4.284   4.098   1.413  0.1804  0.1953  0.1918
   55MOL   H52729795   4.263   4.195   1.272  1.7447 -1.5752  0.3432
   55MOL   H52829796   4.325   4.280   1.406 -0.8496  1.9450 -1.0293
   55MOL   H52929797   4.084   4.323   1.388 -1.3362 -0.2613  0.5872
   55MOL   H53029798   4.041   4.156   1.381 -0.9367  0.4400  1.1436
   55MOL   H53129799   4.127   4.148   1.619  0.3724  0.1391 -0.2082
   55MOL   H53229800   4.146   4.318   1.624  1.4183 -0.5176 -1.4327
   55MOL   H53329801   3.890   4.146   1.595  1.2522 -1.0521  2.6823
   55MOL   H53429802   3.879   4.319   1.574  0.1277 -1.6688 -3.1681
   55MOL   H53529803   3.987   4.166   1.824  1.2475  1.9468  1.5491
   55MOL   H53629804   3.995   4.331   1.806  2.9120 -1.7116 -0.9234
   55MOL   H53729805   3.455   4.260   1.965  0.6286 -1.3604 -0.7437
   55MOL   H53829806   3.581   4.147   1.928  1.1891  0.1965  0.1640
   55MOL   H53929807   3.536   4.278   1.827 -1.2317  1.1925  0.2337
   55MOL   H54029808   3.718   4.370   2.221 -1.2212  2.0594  0.6812
   55MOL   H54129809   3.670   4.211   2.170 -3.6422 -0.4883 -0.0068
   55MOL   H54229810   3.554   4.344   2.208 -0.3648  1.0969 -0.7792
   56MOL     C129811   0.499   7.299   1.277 -0.2330 -0.2179 -0.4821
   56MOL     C229812   0.553   7.442   1.296 -0.9037  0.1843  0.6215
   56MOL     C329813   0.491   7.555   1.220 -0.5244  0.1811 -0.3717
   56MOL     C429814   0.553   7.696   1.248 -0.2515  0.2469 -0.7993
   56MOL     C529815   0.482   7.812   1.173  0.4626  0.1490  0.2776
   56MOL     O629816   0.348   0.014   1.235  0.1644 -0.5011 -0.0013
   56MOL     C729817   0.306   0.139   1.272 -0.5685  0.3514  0.7691
   56MOL     O829818   0.375   0.240   1.260 -0.7698 -0.2731  0.2880
   56MOL     C929819   0.149   0.135   1.305 -0.0013  0.5490 -0.2689
   56MOL    C1029820   0.082   0.108   1.163 -0.5836 -0.1338  0.1529
   56MOL    C1129821   0.098   0.274   1.355  0.5646  0.0698 -0.3141
   56MOL    H1229822   0.467   7.281   1.174  0.3606  0.1027 -0.7253
   56MOL    H1329823   0.421   7.272   1.348 -0.2049  0.5966 -0.1345
   56MOL    H1429824   0.581   7.228   1.291 -0.1946 -0.4113 -1.5788
   56MOL    H1529825   0.549   7.460   1.403  0.5355 -2.5020  1.1639
   56MOL    H1629826   0.659   7.446   1.271 -0.8018  2.7881  1.3636
   56MOL    H1729827   0.486   7.534   1.113  1.7564  0.5435 -0.5673
   56MOL    H1829828   0.385   7.564   1.247 -0.6361  0.3997 -0.8713
   56MOL    H1929829   0.660   7.689   1.233  0.3522 -0.1002  3.1727
   56MOL    H2029830   0.553   7.716   1.355 -0.5184 -1.0824 -0.5444
   56MOL    H2129831   0.538   0.090   1.186 -1.6459  1.4774  0.2212
   56MOL    H2229832   0.468   7.793   1.067  0.2897 -0.0785  0.3388
   56MOL    H2329833   0.105   0.187   1.091  0.4412 -0.6772 -0.1199
   56MOL    H2429834   7.787   0.102   1.163 -0.5029 -1.7938  1.5359
   56MOL    H2529835   0.109   0.011   1.124  0.1466  0.4926 -0.9247
   56MOL    H2629836   7.805   0.262   1.339  0.5196  1.7510 -1.3487
   56MOL    H2729837   0.130   0.355   1.290 -0.4997  0.4936 -0.3263
   56MOL    H2829838   0.128   0.053   1.373 -0.7068  0.9591  0.0182
   56MOL    C2929839   0.820   0.052   1.483 -0.1292  0.6873  0.0058
   56MOL    C3029840   0.817   0.183   1.540  0.3119  0.1614  0.3352
   56MOL    C3129841   0.689   0.203   1.626  0.1203  0.2968  0.4503
   56MOL    C3229842   0.558   0.213   1.550  0.5691  0.1739  0.1098
   56MOL    C3329843   0.442   0.228   1.643 -0.3541 -0.4596 -0.1943
   56MOL    O3429844   0.314   0.232   1.583 -0.1092  0.1313  0.3753
   56MOL    C3529845   0.246   0.345   1.554  0.0497  0.8906 -0.1212
   56MOL    O3629846   0.296   0.454   1.561 -0.4252 -0.0992  0.1036
   56MOL    C3729847   0.102   0.315   1.503 -0.1573 -0.2459 -0.2210
   56MOL    C3829848   0.039   0.200   1.581  0.0050  0.1426  0.4330
   56MOL    C3929849   0.027   0.448   1.511  0.3617 -0.0941  0.7222
   56MOL    H4029850   0.922   0.025   1.454 -0.5034  0.3477 -1.0333
   56MOL    H4129851   0.780   7.786   1.546  1.2523 -0.9984 -1.1933
   56MOL    H4229852   0.770   0.051   1.386  0.4242 -0.1763 -0.2765
   56MOL    H4329853   0.824   0.259   1.462 -1.4553 -0.2868 -0.2991
   56MOL    H4429854   0.911   0.181   1.594  1.0916  0.0908 -1.0043
   56MOL    H4529855   0.703   0.297   1.680 -0.0194 -0.8487  2.5192
   56MOL    H4629856   0.687   0.125   1.702 -1.4531  0.4216  0.5504
   56MOL    H4729857   0.551   0.284   1.468 -0.9488  1.5049  1.3519
   56MOL    H4829858   0.546   0.118   1.497 -2.6720 -0.1690  1.3508
   56MOL    H4929859   0.462   0.315   1.706  2.6328 -0.4217 -1.1160
   56MOL    H5029860   0.441   0.141   1.707  0.3379  0.6660  1.3812
   56MOL    H5129861   7.751   0.182   1.548  0.4874 -0.3695 -0.7853
   56MOL    H5229862   0.031   0.226   1.687  0.9173  0.5425  0.4085
   56MOL    H5329863   0.093   0.107   1.566 -2.9191 -1.3302 -1.4379
   56MOL    H5429864   7.756   0.435   1.444  0.0744  0.7297  0.9209
   56MOL    H5529865   0.082   0.518   1.449  0.1800  1.0747  1.8635
   56MOL    C5629866   0.597   0.859   1.802 -0.1875 -0.4124  0.0569
   56MOL    C5729867   0.484   0.853   1.701 -0.0712 -0.2019 -0.4711
   56MOL    C5829868   0.384   0.741   1.718 -0.2664 -1.0882  0.5490
   56MOL    C5929869   0.300   0.751   1.842  0.3248 -0.3519 -0.1098
   56MOL    C6029870   0.220   0.631   1.867  0.1696 -0.0615 -0.6108
   56MOL    O6129871   0.127   0.613   1.767  0.3494 -0.4641 -0.0843
   56MOL    C6229872   0.049   0.508   1.768 -0.0547 -0.4168  0.3157
   56MOL    O6329873   0.045   0.427   1.862 -0.7600 -0.0737  0.6196
   56MOL    C6429874   7.770   0.517   1.640  0.2420 -0.8534  0.3006
   56MOL    C6529875   7.639   0.436   1.672 -0.1379 -0.3578 -0.6830
   56MOL    C6629876   7.733   0.664   1.599 -0.2010  0.5429  0.1226
   56MOL    H6729877   0.569   0.869   1.907 -0.4468 -0.8642  0.0299
   56MOL    H6829878   0.673   0.933   1.777 -0.9268  0.3509  0.0140
   56MOL    H6929879   0.642   0.761   1.810  0.4029 -0.1015  0.5340
   56MOL    H7029880   0.431   0.949   1.706  0.9325  0.3577 -0.3149
   56MOL    H7129881   0.533   0.849   1.603 -0.5239  3.1267 -0.9221
   56MOL    H7229882   0.315   0.751   1.635 -0.2424  1.2072  0.7513
   56MOL    H7329883   0.432   0.644   1.708 -0.9027 -1.5460  1.8079
   56MOL    H7429884   0.235   0.838   1.828 -1.1114 -1.5969 -1.4154
   56MOL    H7529885   0.357   0.759   1.934 -0.7869 -1.0360  0.6597
   56MOL    H7629886   0.298   0.555   1.876 -0.1748 -0.3588 -0.1159
   56MOL    H7729887   0.174   0.641   1.965 -3.2281 -0.1851 -2.1004
   56MOL    H7829888   7.588   0.384   1.592 -1.0159 -1.0292  0.2983
   56MOL    H7929889   7.560   0.505   1.703  1.5206  1.7811 -1.1353
   56MOL    H8029890   7.641   0.378   1.765 -2.4067 -1.2042 -1.1353
   56MOL    H8129891   7.671   0.650   1.511 -0.8529 -4.0351  1.1915
   56MOL    H8229892   0.010   0.714   1.564 -2.0371  2.9949 -1.2426
   56MOL    C8329893   7.025   1.111   1.488 -0.5902  0.1108 -0.2466
   56MOL    C8429894   7.090   1.075   1.357  0.0796 -0.9409  1.1544
   56MOL    C8529895   7.161   0.946   1.354  0.2218 -0.0534  0.0202
   56MOL    C8629896   7.274   0.929   1.449  0.2213  0.7632  0.2085
   56MOL    C8729897   7.340   0.792   1.455 -0.7700  0.0958 -0.3505
   56MOL    O8829898   7.471   0.800   1.517  0.0442 -0.2037 -0.2425
   56MOL    C8929899   7.492   0.758   1.643 -0.0061  0.1754 -0.4506
   56MOL    O9029900   7.403   0.720   1.723  0.2876 -0.6140  0.1333
   56MOL    C9129901   7.648   0.771   1.679  0.0780  0.1018 -1.0311
   56MOL    C9229902   7.653   0.749   1.825  0.5079  0.4873 -0.1502
   56MOL    C9329903   7.702   0.916   1.635  0.3846 -0.6093  0.1523
   56MOL    H9429904   6.963   1.030   1.527 -0.8538  0.8874  0.9552
   56MOL    H9529905   7.109   1.131   1.555  0.6102 -0.2196 -1.6104
   56MOL    H9629906   6.968   1.203   1.482  0.0966  0.6540  1.3535
   56MOL    H9729907   7.158   1.157   1.334 -0.7694 -1.0281 -1.9284
   56MOL    H9829908   7.012   1.083   1.281  0.3419  4.4042  1.2448
   56MOL    H9929909   7.189   0.948   1.249  0.1046  0.6591  0.0025
   56MOL   H10029910   7.091   0.862   1.352  0.0542  0.1184 -1.2322
   56MOL   H10129911   7.237   0.949   1.550  0.3891 -0.2134  0.4654
   56MOL   H10229912   7.355   0.997   1.422  1.3691 -1.1839 -1.3450
   56MOL   H10329913   7.371   0.770   1.353  2.9674  3.2227 -0.0402
   56MOL   H10429914   7.294   0.701   1.493  0.7878 -1.0548 -1.1533
   56MOL   H10529915   7.582   0.804   1.887  0.4035  0.7528 -0.5023
   56MOL   H10629916   7.750   0.767   1.872  0.2085  0.2863  0.5630
   56MOL   H10729917   7.634   0.644   1.848 -0.2023  0.1845 -2.0967
   56MOL   H10829918   7.809   0.925   1.614  0.1338  0.6297 -0.6431
   56MOL   H10929919   7.665   0.940   1.536 -1.7655 -4.4335 -0.0373
   56MOL   C11029920   0.529   1.203   2.167  0.0361 -0.4488  0.6638
   56MOL   C11129921   0.431   1.201   2.047 -0.8624 -0.5796  0.5255
   56MOL   C11229922   0.315   1.104   2.072 -0.0292  0.0760 -0.3544
   56MOL   C11329923   0.200   1.117   1.984 -0.0022 -0.0460  0.0403
   56MOL   C11429924   0.091   1.012   1.999  0.3610  0.4422  0.2016
   56MOL   O11529925   0.029   1.008   1.879  0.5869 -0.0360 -0.0202
   56MOL   C11629926   7.707   1.036   1.868  0.8100 -0.1620 -0.1010
   56MOL   O11729927   7.624   1.040   1.954 -0.2414  0.8789  0.1531
   56MOL   C11829928   7.669   1.052   1.721  0.5849 -0.6578  0.0739
   56MOL   C11929929   7.519   1.072   1.721  0.8361 -0.6716 -0.2192
   56MOL   C12029930   7.747   1.187   1.655  0.2674  0.0615  0.1626
   56MOL   H12129931   0.491   1.265   2.249  0.1363  2.7388 -1.5905
   56MOL   H12229932   0.552   1.105   2.208 -0.5117 -2.1290 -2.8729
   56MOL   H12329933   0.622   1.248   2.131 -0.1290 -0.2462  0.4894
   56MOL   H12429934   0.390   1.302   2.040 -1.9689 -1.0886 -0.6512
   56MOL   H12529935   0.488   1.176   1.957  0.4129 -1.1474  1.4698
   56MOL   H12629936   0.360   1.006   2.056 -0.1349  0.0909 -0.7679
   56MOL   H12729937   0.282   1.096   2.175 -1.5010  2.6850 -0.5679
   56MOL   H12829938   0.237   1.119   1.882 -0.2133  1.5184 -0.0193
   56MOL   H12929939   0.168   1.220   2.000  2.6523  0.5810  1.5742
   56MOL   H13029940   0.137   0.919   2.033 -2.0829 -0.1638  1.9572
   56MOL   H13129941   0.028   1.042   2.082  0.4930 -2.3700  1.3918
   56MOL   H13229942   7.473   0.986   1.770 -1.5316 -1.0598 -2.9805
   56MOL   H13329943   7.493   1.162   1.776 -1.8276 -1.0709 -0.7838
   56MOL   H13429944   7.476   1.080   1.621 -0.3115  1.1374  0.4010
   56MOL   H13529945   0.038   1.167   1.676  0.1106 -1.0061 -0.0577
   56MOL   H13629946   7.735   1.178   1.547 -0.1121  1.7948  0.0370
   56MOL   C13729947   6.917   1.437   1.638 -0.4638 -0.5619 -0.0550
   56MOL   C13829948   7.064   1.427   1.666 -0.0734 -0.1720 -0.0914
   56MOL   C13929949   7.119   1.501   1.788  1.2443 -0.2191  0.4082
   56MOL   C14029950   7.262   1.457   1.819 -0.5163  0.8966 -0.2145
   56MOL   C14129951   7.367   1.475   1.704 -0.2400  0.0792 -0.0399
   56MOL   O14229952   7.490   1.410   1.738 -0.4187 -0.3296 -0.2285
   56MOL   C14329953   7.574   1.384   1.641  0.1263 -0.2593  0.2156
   56MOL   O14429954   7.553   1.397   1.524 -0.4508 -0.6909 -0.0319
   56MOL   C14529955   7.716   1.339   1.696 -0.6981  0.2577  0.3257
   56MOL   C14629956   7.718   1.359   1.844 -0.2994  0.2396 -0.0929
   56MOL   C14729957   0.011   1.439   1.624 -0.3722  0.4662  0.5378
   56MOL   H14829958   6.867   1.393   1.725 -1.1355  0.4497  0.0740
   56MOL   H14929959   6.888   1.387   1.546  0.1755 -0.2784 -0.4133
   56MOL   H15029960   6.894   1.543   1.634  1.8175 -0.0727 -1.5784
   56MOL   H15129961   7.110   1.472   1.577  1.3609 -0.8824  0.2874
   56MOL   H15229962   7.092   1.323   1.682 -0.7681 -0.2520  0.6279
   56MOL   H15329963   7.117   1.610   1.784 -1.5932 -0.3217 -2.8237
   56MOL   H15429964   7.061   1.468   1.875 -1.4243  0.5092 -1.0434
   56MOL   H15529965   7.301   1.511   1.905 -1.2982  3.1831 -1.2642
   56MOL   H15629966   7.267   1.350   1.843 -0.4847  0.7910 -0.6828
   56MOL   H15729967   7.386   1.582   1.705  0.3254 -0.0023 -1.0993
   56MOL   H15829968   7.327   1.441   1.608 -0.6997 -0.9444  0.5038
   56MOL   H15929969   7.688   1.460   1.871  0.9878  0.4803  0.5067
   56MOL   H16029970   0.008   1.348   1.878 -0.3379  1.9029  0.6123
   56MOL   H16129971   7.648   1.292   1.893 -1.3128  1.6026  0.3380
   56MOL   H16229972   0.104   1.384   1.622 -0.3885  0.3652  2.1918
   56MOL   H16329973   0.006   1.440   1.515 -0.7797  1.1147  0.5572
   56MOL   C16429974   0.566   1.654   2.274 -0.2830  0.9881  0.2130
   56MOL   C16529975   0.457   1.633   2.167  0.3045  0.0504 -0.2697
   56MOL   C16629976   0.318   1.674   2.199 -0.8689 -0.6896  0.0590
   56MOL   C16729977   0.209   1.654   2.090 -0.3939 -0.0834  0.3895
   56MOL   C16829978   0.238   1.725   1.958 -0.6730 -0.2787  0.7091
   56MOL   O16929979   0.137   1.712   1.860 -0.3875 -0.5476  0.0903
   56MOL   C17029980   0.126   1.589   1.796 -0.5832  0.1495 -0.1322
   56MOL   O17129981   0.198   1.495   1.831 -0.6229 -0.3623 -0.2165
   56MOL   C17229982   0.034   1.590   1.669 -0.0843 -0.1379  0.5072
   56MOL   C17329983   7.721   1.676   1.707  0.4830 -0.4499  0.3939
   56MOL   C17429984   0.121   1.653   1.555 -0.1123 -0.1619 -0.1337
   56MOL   H17529985   0.559   1.592   2.363  0.3073  0.8651  0.1782
   56MOL   H17629986   0.555   1.750   2.325 -2.1454  0.8333  0.1317
   56MOL   H17729987   0.662   1.633   2.228  0.6788  0.6359  2.3277
   56MOL   H17829988   0.450   1.526   2.146 -1.7441 -0.0490  0.8143
   56MOL   H17929989   0.476   1.687   2.074 -0.1790  0.9081  0.1271
   56MOL   H18029990   0.270   1.629   2.286 -1.8438  2.4126  1.1907
   56MOL   H18129991   0.336   1.780   2.217 -1.5889 -0.3395 -1.1734
   56MOL   H18229992   0.111   1.676   2.132 -0.3202 -0.1888  0.6178
   56MOL   H18329993   0.205   1.546   2.074 -0.6435  0.1375 -1.0476
   56MOL   H18429994   0.328   1.686   1.911 -1.1552  2.7085 -2.9145
   56MOL   H18529995   0.265   1.828   1.980  0.5190 -0.7571  1.5332
   56MOL   H18629996   7.744   1.781   1.729  0.4811 -0.2558 -0.5050
   56MOL   H18729997   7.661   1.632   1.786  0.5808  0.5597  1.0438
   56MOL   H18829998   7.642   1.686   1.631  0.1401 -1.8708  0.5593
   56MOL   H18929999   0.193   1.720   1.602 -0.9877  1.3143 -0.8707
   56MOL   H19030000   0.187   1.576   1.514 -1.1116 -0.8487 -0.4752
   56MOL   C19130001   7.194   1.796   1.527 -0.9884  0.8242 -0.7075
   56MOL   C19230002   7.312   1.887   1.574  0.3413 -0.4580  0.1205
   56MOL   C19330003   7.428   1.899   1.478 -0.4412 -0.2615  0.3333
   56MOL   C19430004   7.540   2.002   1.532  0.2395  0.3065  0.3163
   56MOL   C19530005   7.653   2.033   1.433 -0.4510 -0.4234  0.0042
   56MOL   O19630006   7.713   1.912   1.405 -0.0278 -0.1858  0.0080
   56MOL   C19730007   0.016   1.878   1.461  0.1091 -0.0519  0.1112
   56MOL   O19830008   0.086   1.954   1.524 -0.1608 -0.0658 -0.4163
   56MOL   C19930009   0.061   1.730   1.427  0.3604 -0.0536  0.3171
   56MOL   C20030010   7.759   1.641   1.367  0.2960  0.3091  0.5895
   56MOL   C20130011   0.166   1.738   1.315 -0.5826 -0.2035  0.3036
   56MOL   H20230012   7.111   1.794   1.598 -0.3611 -1.3677  0.0005
   56MOL   H20330013   7.143   1.829   1.436 -1.0828 -0.6867 -1.2161
   56MOL   H20430014   7.218   1.690   1.518 -0.5884  0.7499  1.0603
   56MOL   H20530015   7.362   1.848   1.663  1.7884 -0.8875 -0.8629
   56MOL   H20630016   7.272   1.981   1.612  2.2008  0.5863 -0.4560
   56MOL   H20730017   7.375   1.926   1.387  0.4300 -0.6349 -0.2822
   56MOL   H20830018   7.483   1.805   1.470 -0.7312 -0.7651  3.5599
   56MOL   H20930019   7.496   2.100   1.552 -0.7208 -0.1132  0.2828
   56MOL   H21030020   7.581   1.962   1.624 -0.3898 -0.1586  0.3993
   56MOL   H21130021   7.617   2.087   1.345  2.6513  1.8712  0.0411
   56MOL   H21230022   7.734   2.090   1.478 -1.2080  0.3015  0.4620
   56MOL   H21330023   7.803   1.551   1.324 -1.3714 -1.0854  1.7517
   56MOL   H21430024   7.699   1.690   1.291  1.0163  0.0091 -0.1821
   56MOL   H21530025   7.684   1.612   1.440 -2.1026  0.7948 -1.6091
   56MOL   H21630026   0.103   1.736   1.226  0.5367  0.2537 -0.5081
   56MOL   H21730027   0.211   1.639   1.314  0.6809  0.3790 -1.0494
   56MOL   C21830028   0.459   2.129   0.873 -0.0281 -0.3541 -0.3969
   56MOL   C21930029   0.328   2.100   0.795 -0.7758  0.5015  0.3547
   56MOL   C22030030   0.224   2.034   0.888 -0.0254 -0.1310  0.4501
   56MOL   C22130031   0.145   2.129   0.985 -0.5214 -0.1704 -0.0416
   56MOL   C22230032   0.052   2.055   1.082 -0.1157 -0.0486 -0.0367
   56MOL   O22330033   0.119   1.948   1.150 -0.5698  0.3574 -0.0088
   56MOL   C22430034   0.217   1.975   1.239  0.4048 -0.1271  0.5925
   56MOL   O22530035   0.240   2.084   1.284 -0.8032  0.0466  0.2415
   56MOL   C22630036   0.281   1.841   1.282  0.4536 -0.8238 -0.3099
   56MOL   C22730037   0.348   1.791   1.156  0.6166 -0.5136  0.8752
   56MOL   C22830038   0.374   1.865   1.404 -0.6032 -0.3629  0.1937
   56MOL   H22930039   0.538   2.149   0.801  1.8308 -0.0791  1.6524
   56MOL   H23030040   0.438   2.229   0.913  3.0131 -0.0443  0.5511
   56MOL   H23130041   0.491   2.054   0.945  0.0630 -1.6664 -1.8043
   56MOL   H23230042   0.343   2.028   0.714  0.0904 -1.5121  2.2375
   56MOL   H23330043   0.305   2.194   0.746  0.4584  0.6559  0.0541
   56MOL   H23430044   0.254   1.945   0.943  0.9716  1.0939  1.8966
   56MOL   H23530045   0.157   1.991   0.813  0.7893 -0.1990 -0.2345
   56MOL   H23630046   0.216   2.185   1.047 -0.3284  0.2318 -0.6135
   56MOL   H23730047   0.094   2.210   0.933  2.3768  1.6147 -0.2164
   56MOL   H23830048   7.771   2.018   1.044 -0.5650  0.5695  0.4773
   56MOL   H23930049   0.023   2.119   1.165  3.4186  0.8304  0.6346
   56MOL   H24030050   0.275   1.768   1.078  1.2749  1.4000 -0.3089
   56MOL   H24130051   0.402   1.697   1.171  1.8060  0.3048  1.6983
   56MOL   H24230052   0.415   1.869   1.122 -0.7982 -0.2130 -1.3168
   56MOL   H24330053   0.314   1.880   1.493  1.4918 -0.5047  1.6665
   56MOL   H24430054   0.410   1.968   1.402 -3.2949  0.6224  0.6101
   56MOL   C24530055   1.057   2.231   1.424  0.4458  0.5673 -0.1799
   56MOL   C24630056   1.031   2.113   1.328  0.4418  0.8571  0.2048
   56MOL   C24730057   0.880   2.089   1.314  0.2646  1.0086  0.2230
   56MOL   C24830058   0.839   1.996   1.203 -0.0089  0.0569 -0.1135
   56MOL   C24930059   0.691   1.995   1.171 -0.1088  1.0443 -0.1425
   56MOL   O25030060   0.616   1.950   1.284  0.0595  0.5819 -0.0359
   56MOL   C25130061   0.612   1.814   1.308 -0.2596 -0.1772  1.1739
   56MOL   O25230062   0.675   1.725   1.248  0.3237  0.2895 -0.0446
   56MOL   C25330063   0.516   1.783   1.424 -0.2989  0.1553 -0.1975
   56MOL   C25430064   0.490   1.631   1.439 -0.2767  0.3899 -0.3410
   56MOL   C25530065   0.575   1.853   1.555  0.1800 -0.9579  0.1712
   56MOL   H25630066   1.164   2.248   1.436  0.7112 -1.5919  0.7464
   56MOL   H25730067   1.010   2.317   1.376 -0.3450 -1.2368 -2.7775
   56MOL   H25830068   1.014   2.196   1.518  2.3808 -1.4402  0.0121
   56MOL   H25930069   1.074   2.133   1.230 -1.2082 -2.0904 -1.1765
   56MOL   H26030070   1.076   2.020   1.363  1.0352  0.8620 -0.5361
   56MOL   H26130071   0.841   2.188   1.291 -0.3901  0.5441 -0.7426
   56MOL   H26230072   0.833   2.075   1.411  1.1027 -0.1209  0.4852
   56MOL   H26330073   0.894   2.033   1.116  0.8197  1.6811  1.0687
   56MOL   H26430074   0.873   1.897   1.232 -1.1670 -1.0107 -2.2530
   56MOL   H26530075   0.656   2.095   1.147 -1.9340  0.6608  0.8510
   56MOL   H26630076   0.666   1.930   1.088 -1.8972  1.9594 -0.3315
   56MOL   H26730077   0.574   1.568   1.466 -1.4165 -0.2969  1.7632
   56MOL   H26830078   0.417   1.621   1.520  0.2613  2.7070  0.4623
   56MOL   H26930079   0.441   1.576   1.358  2.6255 -3.0250  0.1101
   56MOL   H27030080   0.598   1.956   1.529 -3.0835 -0.3412 -0.4007
   56MOL   H27130081   0.492   1.850   1.626  0.9857  0.0219  1.1894
   56MOL   C27230082   0.852   1.076   1.994  0.6780 -0.0129  0.4764
   56MOL   C27330083   0.834   1.213   1.920  0.0881 -0.0809 -0.5792
   56MOL   C27430084   0.889   1.338   2.000 -0.1210 -0.3998 -0.0655
   56MOL   C27530085   0.881   1.471   1.916 -0.0785  0.6612 -0.3071
   56MOL   C27630086   0.737   1.511   1.866  0.0709 -0.7558  0.3516
   56MOL   O27730087   0.758   1.612   1.771 -0.5614  0.0408  0.4102
   56MOL   C27830088   0.654   1.671   1.717 -0.2867 -0.3108  0.2475
   56MOL   O27930089   0.537   1.641   1.745  0.1304  0.2557 -0.1158
   56MOL   C28030090   0.701   1.794   1.628  0.2600 -0.5112 -0.0086
   56MOL   C28130091   0.809   1.741   1.530  0.0132  0.1525  0.0354
   56MOL   C28230092   0.786   1.902   1.713  0.1896 -0.3116 -0.5269
   56MOL   H28330093   0.802   1.077   2.091  0.7898  0.7048  0.5308
   56MOL   H28430094   0.828   0.985   1.939  0.8348 -0.2441  0.7938
   56MOL   H28530095   0.956   1.057   2.019  1.5749 -1.8972 -4.1402
   56MOL   H28630096   0.871   1.206   1.818 -1.4333 -1.3829 -1.0604
   56MOL   H28730097   0.725   1.215   1.913  0.1037  1.2916 -0.4309
   56MOL   H28830098   0.843   1.341   2.098  0.5701 -2.3667  0.3347
   56MOL   H28930099   0.994   1.313   2.009 -0.0666  0.0135  0.4239
   56MOL   H29030100   0.931   1.549   1.974  0.1846  0.1165  0.2017
   56MOL   H29130101   0.952   1.452   1.836 -0.2494  0.9375 -0.5259
   56MOL   H29230102   0.678   1.549   1.949  0.2114 -0.4813  0.3269
   56MOL   H29330103   0.674   1.431   1.827 -0.7612 -0.0320  0.2269
   56MOL   H29430104   0.775   1.655   1.472 -0.9485  1.7187 -1.7833
   56MOL   H29530105   0.862   1.819   1.476 -0.1669  0.3783  0.1822
   56MOL   H29630106   0.885   1.691   1.589 -0.4477 -0.6345 -0.0313
   56MOL   H29730107   0.878   1.845   1.728 -0.8275 -1.8169  0.0751
   56MOL   H29830108   0.812   1.980   1.641  1.2841 -0.3025 -0.1349
   56MOL   C29930109   0.548   2.348   1.185 -0.4407  0.4272  0.4070
   56MOL   C30030110   0.520   2.391   1.333  0.3596  0.0147  0.4335
   56MOL   C30130111   0.548   2.284   1.436 -0.2205  0.6812  0.1465
   56MOL   C30230112   0.497   2.316   1.570  0.3495  0.5207 -0.5379
   56MOL   C30330113   0.478   2.196   1.669  0.1243 -0.1919  0.1317
   56MOL   O30430114   0.603   2.140   1.713  0.0778 -0.2440 -0.5139
   56MOL   C30530115   0.605   2.050   1.816 -0.0096 -0.8022  0.0381
   56MOL   O30630116   0.505   2.029   1.876  0.0501  0.3521 -0.1140
   56MOL   C30730117   0.740   1.976   1.845  0.0359 -0.0103 -0.6208
   56MOL   C30830118   0.716   1.879   1.958 -0.1641  0.1111 -0.2332
   56MOL   C30930119   0.841   2.087   1.888 -0.2058 -0.4938 -0.1749
   56MOL   H31030120   0.490   2.260   1.161 -1.2429  0.8832  0.6441
   56MOL   H31130121   0.652   2.324   1.165 -1.2058 -0.6337 -2.4558
   56MOL   H31230122   0.522   2.423   1.110 -0.1919 -0.8712 -0.9803
   56MOL   H31330123   0.413   2.412   1.326  0.1591 -0.4035  2.0678
   56MOL   H31430124   0.557   2.488   1.368 -0.3333  0.1961  0.6854
   56MOL   H31530125   0.656   2.269   1.430 -0.2969  0.8208 -1.9920
   56MOL   H31630126   0.496   2.199   1.393  1.6761  0.5257 -1.9590
   56MOL   H31730127   0.398   2.359   1.556 -1.0556 -1.8944  1.4781
   56MOL   H31830128   0.569   2.371   1.630  0.8604  0.8720 -1.4798
   56MOL   H31930129   0.421   2.223   1.758  0.2582  1.3441 -0.2415
   56MOL   H32030130   0.425   2.112   1.624  1.2768 -1.9473  1.9279
   56MOL   H32130131   0.805   1.819   1.977 -0.6339 -0.2011  1.0321
   56MOL   H32230132   0.689   1.935   2.049  3.4376  0.8555  0.4722
   56MOL   H32330133   0.641   1.805   1.930 -0.2185 -0.7860  2.1335
   56MOL   H32430134   0.795   2.143   1.970 -2.6050  0.0027 -1.7937
   56MOL   H32530135   0.850   2.163   1.811  1.9693 -0.2298  0.3064
   56MOL   C32630136   0.546   1.910   2.576  0.0625  1.1204  0.3968
   56MOL   C32730137   0.652   2.021   2.590  0.1861  0.1243 -1.1142
   56MOL   C32830138   0.784   1.997   2.518  1.2527  0.8743 -0.0959
   56MOL   C32930139   0.781   2.036   2.370  0.2205 -0.3649  0.2914
   56MOL   C33030140   0.904   2.003   2.291  0.4587 -0.1777  0.5672
   56MOL   O33130141   0.905   2.048   2.158  0.4423 -0.1152 -0.2011
   56MOL   C33230142   0.995   2.000   2.073 -0.5101  0.8802 -0.5751
   56MOL   O33330143   1.078   1.916   2.098  0.6211 -0.2462  0.0995
   56MOL   C33430144   0.991   2.064   1.934  0.6803 -0.4584 -0.2583
   56MOL   C33530145   1.078   1.973   1.844  0.5923  0.0453 -0.3019
   56MOL   C33630146   1.080   2.194   1.933  0.6342  0.0149 -0.2366
   56MOL   H33730147   0.602   1.824   2.613  0.7198  1.0728 -0.6855
   56MOL   H33830148   0.512   1.885   2.476  0.7798  1.1316  0.1430
   56MOL   H33930149   0.473   1.921   2.656 -1.7741  1.4609 -1.2927
   56MOL   H34030150   0.685   2.029   2.694  0.2054 -1.2450 -1.0023
   56MOL   H34130151   0.624   2.120   2.556  0.7759  0.0898 -1.7183
   56MOL   H34230152   0.821   1.895   2.527  0.9596  0.8594  0.9955
   56MOL   H34330153   0.852   2.066   2.567  0.6583  1.3196  0.1032
   56MOL   H34430154   0.758   2.143   2.362  0.7041  0.2097  5.1404
   56MOL   H34530155   0.690   1.986   2.339 -1.8579  2.1562  2.1110
   56MOL   H34630156   0.916   1.896   2.275  3.4652  0.2212 -0.0077
   56MOL   H34730157   0.995   2.037   2.340  1.2029 -0.8389 -0.3380
   56MOL   H34830158   1.038   1.873   1.824 -0.7910  0.6986 -0.8829
   56MOL   H34930159   1.179   1.966   1.883  0.5257  2.4372  0.3564
   56MOL   H35030160   1.095   2.011   1.743 -2.4302 -0.6109 -1.1359
   56MOL   H35130161   1.123   2.211   1.834 -0.5614  1.6991 -0.4886
   56MOL   H35230162   1.173   2.179   1.986 -0.0999  0.0214  1.0741
   56MOL   C35330163   0.746   2.697   1.268  0.2468  0.1901 -0.0549
   56MOL   C35430164   0.856   2.684   1.372 -0.1404 -0.6383 -0.0446
   56MOL   C35530165   0.819   2.584   1.485  0.0915  0.2037  0.3559
   56MOL   C35630166   0.935   2.558   1.592 -0.0498  0.5154 -0.5400
   56MOL   C35730167   0.863   2.472   1.698 -0.6918 -0.2685 -0.0134
   56MOL   O35830168   0.954   2.443   1.803  0.3929 -0.2045 -0.4684
   56MOL   C35930169   0.911   2.398   1.917  0.7423 -0.5567 -0.2411
   56MOL   O36030170   0.796   2.406   1.958 -0.0770  0.6278  0.4330
   56MOL   C36130171   1.033   2.336   1.992 -0.2272 -0.3223  0.2457
   56MOL   C36230172   1.149   2.436   1.971  0.7318  0.8257 -0.0501
   56MOL   C36330173   0.997   2.325   2.150  0.0559 -0.0698 -0.1972
   56MOL   H36430174   0.658   2.739   1.317  0.8358 -1.8441  2.8820
   56MOL   H36530175   0.718   2.605   1.217  0.6083 -0.2751  0.5807
   56MOL   H36630176   0.761   2.762   1.182 -0.1673  2.7607  1.7556
   56MOL   H36730177   0.950   2.652   1.326  0.8574 -0.2495  1.6527
   56MOL   H36830178   0.878   2.779   1.421 -1.4995  0.8383 -2.2511
   56MOL   H36930179   0.784   2.497   1.429  1.1879 -0.1802  0.2533
   56MOL   H37030180   0.726   2.610   1.535 -0.2263  2.2114 -1.2434
   56MOL   H37130181   0.987   2.644   1.634  1.6953  0.0595 -1.6836
   56MOL   H37230182   1.010   2.491   1.549  1.4914  0.8154  1.6241
   56MOL   H37330183   0.786   2.535   1.743 -0.9100 -1.8743  1.9581
   56MOL   H37430184   0.815   2.381   1.664 -0.3776 -1.6333  3.0109
   56MOL   H37530185   1.122   2.542   1.979  0.4463  0.9271 -2.0213
   56MOL   H37630186   1.224   2.420   2.049  1.1358  1.0041 -0.4022
   56MOL   H37730187   1.203   2.422   1.878 -0.2808  1.3832 -0.7284
   56MOL   H37830188   0.895   2.285   2.150 -1.1003  2.6175 -3.3983
   56MOL   H37930189   1.048   2.238   2.192 -0.8587 -1.7160 -2.3560
   56MOL   C38030190   1.590   2.584   2.709  0.0168  0.4444 -0.0877
   56MOL   C38130191   1.595   2.633   2.566 -0.2983 -0.1954  0.0769
   56MOL   C38230192   1.572   2.523   2.460  0.5939 -0.3937 -0.2627
   56MOL   C38330193   1.425   2.492   2.445  0.8306 -0.8777 -0.0918
   56MOL   C38430194   1.378   2.408   2.321 -0.4568  0.6630 -0.8578
   56MOL   O38530195   1.236   2.365   2.307 -0.3570 -0.2025  0.5270
   56MOL   C38630196   1.155   2.475   2.281  0.0710 -0.2612  0.4607
   56MOL   O38730197   1.194   2.594   2.267 -0.0965 -0.0159  0.6691
   56MOL   C38830198   1.008   2.444   2.253  0.5028  0.4608  0.3008
   56MOL   C38930199   0.923   2.567   2.201 -0.7451 -0.2979 -0.7960
   56MOL   C39030200   0.937   2.393   2.391 -0.6811  0.7878  0.2090
   56MOL   H39130201   1.607   2.657   2.789 -1.4814  1.2047 -0.4441
   56MOL   H39230202   1.495   2.536   2.732  1.1079 -1.6449  0.1427
   56MOL   H39330203   1.667   2.512   2.733 -1.0962 -0.0298  2.2051
   56MOL   H39430204   1.697   2.671   2.554 -0.0174 -0.7457  0.7062
   56MOL   H39530205   1.530   2.720   2.560  1.1462  0.8247 -1.2516
   56MOL   H39630206   1.612   2.553   2.364  2.3014 -1.3110  0.1316
   56MOL   H39730207   1.625   2.432   2.490 -0.4665 -1.4486 -1.5438
   56MOL   H39830208   1.395   2.441   2.537 -1.6967  0.1392 -0.3101
   56MOL   H39930209   1.362   2.581   2.452  0.1542 -1.4191  0.9109
   56MOL   H40030210   1.432   2.314   2.321  1.8592  1.8479  3.1536
   56MOL   H40130211   1.411   2.451   2.227 -0.0602  0.9421 -0.5935
   56MOL   H40230212   0.949   2.646   2.271 -1.8120 -1.1757  0.6339
   56MOL   H40330213   0.814   2.559   2.194 -0.6195 -1.4984 -1.7501
   56MOL   H40430214   0.947   2.606   2.102 -2.4185 -0.8935 -1.4698
   56MOL   H40530215   1.000   2.320   2.442 -1.5995  0.0627  0.3056
   56MOL   H40630216   0.848   2.338   2.362  1.3899 -1.7956 -1.4664
   56MOL   C40730217   0.162   2.839   2.653  0.0419 -0.4455  0.3892
   56MOL   C40830218   0.245   2.711   2.638 -0.1703 -0.2453 -0.0506
   56MOL   C40930219   0.326   2.696   2.508 -0.3581 -0.6621 -0.2127
   56MOL   C41030220   0.442   2.598   2.534  0.4337 -0.6716 -0.3588
   56MOL   C41130221   0.538   2.591   2.420  0.3611  0.1768 -0.3172
   56MOL   O41230222   0.665   2.518   2.444  0.5862 -0.2046  0.5089
   56MOL   C41330223   0.777   2.579   2.467 -0.5851  0.2361 -0.7090
   56MOL   O41430224   0.790   2.702   2.450 -0.2290  0.1194  0.1930
   56MOL   C41530225   0.891   2.494   2.512  0.1132 -0.1496  0.7514
   56MOL   C41630226   0.843   2.401   2.623  0.1775  0.1209  0.2621
   56MOL   C41730227   1.019   2.578   2.561 -0.2008  0.5663 -0.6625
   56MOL   H41830228   0.082   2.837   2.728  1.8361 -1.2916  2.3388
   56MOL   H41930229   0.225   2.925   2.672 -0.9647  0.8925 -2.0532
   56MOL   H42030230   0.112   2.860   2.559  1.5279  0.4184 -0.2216
   56MOL   H42130231   0.180   2.625   2.651  0.8774 -1.2985 -1.5929
   56MOL   H42230232   0.305   2.714   2.729  1.6776 -0.5958 -1.2381
   56MOL   H42330233   0.256   2.667   2.430  1.3717  2.5154 -3.0973
   56MOL   H42430234   0.370   2.793   2.483 -1.3967 -0.4850 -1.3901
   56MOL   H42530235   0.396   2.501   2.550 -3.0121  0.7986 -0.9919
   56MOL   H42630236   0.504   2.634   2.616 -0.3595 -0.9581  0.3743
   56MOL   H42730237   0.486   2.547   2.335 -0.5287 -1.2847  0.9492
   56MOL   H42830238   0.566   2.693   2.396 -0.4218  0.4594 -0.0437
   56MOL   H42930239   0.922   2.332   2.654 -0.0528 -0.8434 -1.2707
   56MOL   H43030240   0.762   2.343   2.581  1.2739 -1.7608  0.6897
   56MOL   H43130241   0.796   2.456   2.705 -2.0242  1.0045 -1.5452
   56MOL   H43230242   1.035   2.659   2.489 -2.2501  0.1352 -1.6370
   56MOL   H43330243   1.104   2.513   2.542 -1.3607 -1.2066  0.0782
   56MOL   C43430244   1.269   1.981   2.489 -0.1007  0.4339 -0.0664
   56MOL   C43530245   1.333   2.072   2.604 -0.5783 -0.4502  0.2149
   56MOL   C43630246   1.228   2.174   2.673 -0.5010  0.9382  0.0045
   56MOL   C43730247   1.280   2.240   2.799 -0.0072 -0.2292 -0.3405
   56MOL   C43830248   1.175   2.333   2.860  0.3756 -0.3801  0.8769
   56MOL   O43930249   1.153   2.442   2.772  0.1734 -0.0231 -0.1379
   56MOL   C44030250   1.055   2.528   2.811 -0.5190  0.2098  1.0523
   56MOL   O44130251   0.989   2.523   2.915 -0.8208  0.5382  0.3541
   56MOL   C44230252   1.036   2.644   2.709 -0.7837 -0.2446 -0.0288
   56MOL   C44330253   0.906   2.715   2.752  0.0440  0.7931 -0.0363
   56MOL   C44430254   1.166   2.732   2.695 -0.0730  0.2007  0.5032
   56MOL   H44530255   1.174   1.929   2.505  0.9721 -0.7534  2.7270
   56MOL   H44630256   1.246   2.049   2.407 -3.0524 -1.2348 -0.6986
   56MOL   H44730257   1.350   1.921   2.447 -1.2466  0.0209 -1.7481
   56MOL   H44830258   1.354   2.000   2.683 -1.0439 -1.4395 -0.5496
   56MOL   H44930259   1.429   2.114   2.575  1.1598 -3.7344  0.9920
   56MOL   H45030260   1.209   2.255   2.603  1.7428 -0.2057 -2.0335
   56MOL   H45130261   1.133   2.126   2.696  0.1099  0.2756  1.2113
   56MOL   H45230262   1.365   2.304   2.772  0.3406 -0.2076  0.8027
   56MOL   H45330263   1.320   2.171   2.873 -0.4143  2.6669  2.7261
   56MOL   H45430264   1.208   2.371   2.957 -0.2362  0.1377  0.8867
   56MOL   H45530265   1.080   2.284   2.882  0.0971 -0.5181 -0.6316
   56MOL   H45630266   0.910   2.757   2.852 -0.9099  0.9076 -0.0465
   56MOL   H45730267   0.877   2.803   2.695  1.3267  0.6028 -1.0103
   56MOL   H45830268   0.823   2.645   2.747  2.7072 -2.5145 -0.1858
   56MOL   H45930269   1.153   2.787   2.602  0.8076 -2.6836 -1.3883
   56MOL   H46030270   1.240   2.652   2.684 -0.0827  0.2360  0.1801
   56MOL   C46130271   1.289   3.387   2.519 -0.7288  0.2704  0.4272
   56MOL   C46230272   1.302   3.266   2.614 -0.2900 -0.1172 -0.4583
   56MOL   C46330273   1.242   3.284   2.756  0.1357 -0.4200 -0.5478
   56MOL   C46430274   1.090   3.266   2.772  0.8641 -0.3635  0.3425
   56MOL   C46530275   1.027   3.149   2.696 -0.5310  0.5899 -0.0190
   56MOL   O46630276   1.108   3.028   2.705 -0.3722  0.2030 -0.5853
   56MOL   C46730277   1.105   2.952   2.811  0.5400  0.5343  0.2344
   56MOL   O46830278   1.020   2.978   2.899 -0.0933  0.7341 -0.3100
   56MOL   C46930279   1.208   2.838   2.806 -0.9268  0.1188  0.1311
   56MOL   C47030280   1.344   2.901   2.752  0.6055 -0.7110  0.0073
   56MOL   C47130281   1.229   2.775   2.952  0.3944  0.9056  0.0448
   56MOL   H47230282   1.328   3.480   2.561  0.4543  0.9551 -2.0856
   56MOL   H47330283   1.185   3.398   2.490 -0.8132  3.1196  1.6340
   56MOL   H47430284   1.344   3.368   2.427 -1.4251  1.9416 -0.3641
   56MOL   H47530285   1.410   3.262   2.629  0.0292  0.4654 -2.4025
   56MOL   H47630286   1.274   3.175   2.562 -1.3657  0.3785 -0.7568
   56MOL   H47730287   1.257   3.386   2.791 -2.5720 -0.4860  0.9162
   56MOL   H47830288   1.287   3.213   2.826 -0.3439  2.5535  2.9125
   56MOL   H47930289   1.045   3.360   2.739  1.9740 -0.5594 -1.8349
   56MOL   H48030290   1.066   3.246   2.876 -2.4614 -0.0990 -0.3143
   56MOL   H48130291   0.925   3.122   2.726 -1.0401  1.0227 -1.3240
   56MOL   H48230292   1.029   3.159   2.588 -1.3482 -4.1648 -0.5788
   56MOL   H48330293   1.378   2.988   2.808  2.8947 -2.6640  1.7475
   56MOL   H48430294   1.334   2.916   2.645 -0.4856 -0.8607  0.0834
   56MOL   H48530295   1.420   2.824   2.765  0.2975 -0.7967  1.4001
   56MOL   H48630296   1.269   2.675   2.937 -0.8575 -0.0391  2.7012
   56MOL   H48730297   1.127   2.764   2.989 -1.3893  2.7212 -4.0837
   56MOL   C48830298   1.751   2.347   3.362 -0.3805 -0.1153  0.1843
   56MOL   C48930299   1.770   2.397   3.218 -0.2453 -0.5168 -0.3050
   56MOL   C49030300   1.711   2.535   3.196 -0.1063  0.6074 -0.8759
   56MOL   C49130301   1.718   2.589   3.055 -0.1985 -0.4364 -0.2074
   56MOL   C49230302   1.664   2.733   3.050  0.1417  0.4199 -0.8880
   56MOL   O49330303   1.524   2.730   3.052  0.2101  0.2442  0.4722
   56MOL   C49430304   1.462   2.847   3.037  0.0211 -0.4725 -0.4297
   56MOL   O49530305   1.512   2.953   3.000 -0.2343 -0.0570  0.4279
   56MOL   C49630306   1.312   2.838   3.068 -0.3005  0.2384  0.0715
   56MOL   C49730307   1.290   2.737   3.189 -0.6523 -0.0405 -0.0181
   56MOL   C49830308   1.257   2.981   3.103 -0.1749 -1.0880 -0.8716
   56MOL   H49930309   1.645   2.324   3.372 -0.3871 -0.4730 -0.6655
   56MOL   H50030310   1.812   2.257   3.372  2.0239  1.6625  2.2957
   56MOL   H50130311   1.782   2.425   3.431 -0.8495 -1.0356  1.4468
   56MOL   H50230312   1.713   2.325   3.159  0.6343 -2.8436  1.6260
   56MOL   H50330313   1.877   2.394   3.194 -0.1870 -0.2512 -0.0828
   56MOL   H50430314   1.604   2.524   3.214 -0.3203  1.0261 -1.8433
   56MOL   H50530315   1.753   2.605   3.268 -0.1586 -1.3321  1.0799
   56MOL   H50630316   1.664   2.523   2.987  0.3857 -0.4398 -0.6691
   56MOL   H50730317   1.818   2.594   3.012 -0.3912 -0.4148 -0.6531
   56MOL   H50830318   1.691   2.799   3.132 -2.7371  1.9924 -1.1265
   56MOL   H50930319   1.698   2.783   2.960 -2.4188 -1.0144 -2.7142
   56MOL   H51030320   1.363   2.757   3.268 -0.1351 -0.7277 -0.3158
   56MOL   H51130321   1.301   2.636   3.149 -0.3081 -0.2726  0.6556
   56MOL   H51230322   1.185   2.750   3.215 -0.8650  1.6030 -1.6289
   56MOL   H51330323   1.149   2.967   3.095 -0.3127 -0.2999 -0.4190
   56MOL   H51430324   1.270   3.043   3.015 -1.3463  3.4487  1.9878
   56MOL   C51530325   0.750   3.268   3.678 -1.2629 -0.8440  0.6895
   56MOL   C51630326   0.689   3.138   3.629 -0.7186 -0.2932  0.7427
   56MOL   C51730327   0.792   3.032   3.580 -0.1786  0.1013 -0.5461
   56MOL   C51830328   0.899   3.084   3.482 -0.3207  0.3395 -0.3779
   56MOL   C51930329   0.973   2.968   3.423 -0.2802  0.6616  0.4660
   56MOL   O52030330   1.064   3.015   3.327  0.1273  0.4526 -0.1168
   56MOL   C52130331   1.207   3.013   3.347  0.1815  0.2442  0.2231
   56MOL   O52230332   1.261   2.958   3.440 -0.4866 -0.2361 -0.2834
   56MOL   C52330333   1.285   3.076   3.227 -0.1489 -0.4571  0.3958
   56MOL   C52430334   1.214   3.208   3.190 -0.1295 -0.5851  0.0677
   56MOL   C52530335   1.436   3.093   3.260  1.0673  0.4440  0.6415
   56MOL   H52630336   0.675   3.346   3.681 -1.3395 -0.8709 -0.3309
   56MOL   H52730337   0.813   3.266   3.766  1.6838  0.8522 -1.2838
   56MOL   H52830338   0.815   3.314   3.603  1.3919 -3.2233  1.4422
   56MOL   H52930339   0.628   3.097   3.711 -0.7110  1.3789  1.6059
   56MOL   H53030340   0.624   3.151   3.543  0.3315 -2.1452 -0.3500
   56MOL   H53130341   0.845   2.998   3.669 -0.3998  1.3688  0.0851
   56MOL   H53230342   0.738   2.946   3.540  0.1123 -1.0253  1.3752
   56MOL   H53330343   0.961   3.160   3.530  0.5938 -1.4662  1.3429
   56MOL   H53430344   0.851   3.144   3.404 -0.1575 -1.1084 -1.6254
   56MOL   H53530345   1.015   2.914   3.508  1.1872 -1.6670 -1.6895
   56MOL   H53630346   0.907   2.891   3.384  0.9767 -1.0274  1.5830
   56MOL   H53730347   1.110   3.194   3.162 -1.4990  2.8138  3.1188
   56MOL   H53830348   1.265   3.256   3.106 -1.6073  0.0583 -0.4726
   56MOL   H53930349   1.208   3.285   3.267 -1.4929 -0.8661  0.2399
   56MOL   H54030350   1.483   3.003   3.300  1.5203  0.8439  1.0067
   56MOL   H54130351   1.429   3.164   3.343 -3.5517  0.4865  0.3826
   56MOL   H54230352   1.494   3.138   3.179  0.4968  0.7988  0.4232
   57MOL     C130353   1.333   0.976   7.395  0.7829  0.3773  0.2541
   57MOL     C230354   1.360   1.128   7.405  0.2016 -0.1891  1.1474
   57MOL     C330355   1.344   1.213   7.270 -0.1119 -0.3714 -0.7109
   57MOL     C430356   1.432   1.176   7.148 -0.9177  0.3083  0.2715
   57MOL     C530357   1.579   1.171   7.179  0.2408  0.4873 -0.0821
   57MOL     O630358   1.665   1.165   7.065 -0.0784  0.3053  0.0519
   57MOL     C730359   1.675   1.047   6.998 -0.4460  0.3571 -0.7337
   57MOL     O830360   1.619   0.944   7.040 -0.7061  0.5209 -0.1457
   57MOL     C930361   1.752   1.060   6.867  0.1569 -0.4896 -0.1024
   57MOL    C1030362   1.685   1.173   6.790  1.1316 -0.3879  0.0833
   57MOL    C1130363   1.748   0.923   6.782  0.3883 -0.1558  0.1668
   57MOL    H1230364   1.401   0.932   7.322 -0.4155  0.8511 -1.1758
   57MOL    H1330365   1.231   0.952   7.367  0.3928 -0.8663  2.6536
   57MOL    H1430366   1.326   0.919   7.487  0.0958 -0.9515 -0.6162
   57MOL    H1530367   1.282   1.165   7.471 -1.8232 -0.9508 -0.7428
   57MOL    H1630368   1.462   1.131   7.444  0.9484  1.4072 -0.8370
   57MOL    H1730369   1.240   1.218   7.238  0.0519  1.7810 -0.9683
   57MOL    H1830370   1.368   1.317   7.290 -1.4730 -0.6112  2.3522
   57MOL    H1930371   1.417   1.258   7.078 -1.3771 -0.1273 -0.1362
   57MOL    H2030372   1.409   1.087   7.091 -0.2468  1.5895 -2.0635
   57MOL    H2130373   1.614   1.236   7.259  2.2166 -1.1934  0.4505
   57MOL    H2230374   1.596   1.082   7.238  4.0400 -0.1790 -1.9954
   57MOL    H2330375   1.677   1.268   6.844  1.2727  0.2287 -0.9518
   57MOL    H2430376   1.580   1.161   6.764  0.5318  1.3025  1.5747
   57MOL    H2530377   1.740   1.193   6.698  0.4403  1.2342 -0.0068
   57MOL    H2630378   1.738   0.954   6.678 -0.0330 -0.4393  0.1241
   57MOL    H2730379   1.663   0.863   6.813  0.2795 -0.2254 -0.2657
   57MOL    H2830380   1.851   1.103   6.878 -1.2110  2.6588  0.5157
   57MOL    C2930381   1.258   0.546   7.122 -0.2752 -0.1211 -0.4480
   57MOL    C3030382   1.403   0.498   7.109 -0.1994  0.7429  0.3149
   57MOL    C3130383   1.511   0.609   7.120  0.1854  0.5822 -0.6167
   57MOL    C3230384   1.654   0.552   7.090  0.1312  0.0289 -0.2728
   57MOL    C3330385   1.753   0.664   7.093  0.0425 -0.1907  0.5927
   57MOL    O3430386   1.782   0.709   6.964  0.0209  0.7035 -0.0995
   57MOL    C3530387   1.897   0.774   6.931  0.3986  0.3460  0.4727
   57MOL    O3630388   1.998   0.780   7.000 -0.0538 -0.2578 -0.8995
   57MOL    C3730389   1.878   0.834   6.788  0.1799 -0.1465 -0.3562
   57MOL    C3830390   1.996   0.917   6.739  0.1401 -0.0574 -0.3423
   57MOL    C3930391   1.858   0.723   6.681  0.0416 -0.2934 -0.5179
   57MOL    H4030392   1.221   0.570   7.022  0.7929  2.4634 -0.2614
   57MOL    H4130393   1.189   0.463   7.138  2.5965 -2.7551 -1.2139
   57MOL    H4230394   1.245   0.625   7.196  0.1940  0.6453 -1.1631
   57MOL    H4330395   1.426   0.447   7.015 -0.7957  2.2896 -0.6844
   57MOL    H4430396   1.411   0.422   7.187  0.1765 -0.9227 -1.3121
   57MOL    H4530397   1.502   0.654   7.219 -2.5860 -0.5134 -0.3134
   57MOL    H4630398   1.482   0.686   7.049  1.6109  2.2360  0.5707
   57MOL    H4730399   1.685   0.477   7.163 -0.4768  0.2078  0.1796
   57MOL    H4830400   1.663   0.499   6.996 -2.6451  1.9928 -1.7137
   57MOL    H4930401   1.845   0.626   7.136  0.4471  0.2960  0.1634
   57MOL    H5030402   1.725   0.746   7.159  0.2713  0.7445 -0.4666
   57MOL    H5130403   2.004   1.001   6.807 -1.1711 -0.2576  0.0754
   57MOL    H5230404   1.982   0.956   6.639  0.5328 -1.8767 -1.1326
   57MOL    H5330405   2.090   0.862   6.738  1.2941  1.8678 -0.5010
   57MOL    H5430406   1.848   0.772   6.584  0.3814  0.7273 -0.0449
   57MOL    H5530407   1.760   0.682   6.705 -0.7279  1.8337  0.0914
   57MOL    C5630408   2.487   0.849   7.062 -0.8764 -0.1377  0.7935
   57MOL    C5730409   2.452   0.933   6.939 -0.2831  0.3718 -0.0776
   57MOL    C5830410   2.346   0.864   6.859 -0.4043  0.0457 -0.4406
   57MOL    C5930411   2.403   0.732   6.797  0.3303  0.0706 -0.2061
   57MOL    C6030412   2.322   0.688   6.677  0.0186  0.0345  0.0921
   57MOL    O6130413   2.186   0.652   6.712 -0.2204 -0.3238  0.0393
   57MOL    C6230414   2.093   0.632   6.614  0.3282  0.3322  0.2624
   57MOL    O6330415   2.125   0.634   6.495 -0.6992 -0.7997 -0.1836
   57MOL    C6430416   1.950   0.592   6.657  0.3538  0.0976 -0.1768
   57MOL    C6530417   1.889   0.525   6.530  0.1217 -0.2629 -0.0793
   57MOL    C6630418   1.940   0.497   6.782 -0.8655  0.1523  0.0985
   57MOL    H6730419   2.396   0.821   7.115 -1.1344  0.7142  0.8153
   57MOL    H6830420   2.549   0.908   7.129  1.2714  1.1815 -2.2231
   57MOL    H6930421   2.540   0.755   7.051 -1.0538 -0.0668 -0.8979
   57MOL    H7030422   2.419   1.033   6.967 -0.6485  0.1148  0.4125
   57MOL    H7130423   2.545   0.951   6.887 -0.6936  2.5116 -0.1154
   57MOL    H7230424   2.256   0.840   6.916  1.4361 -1.0376  2.1020
   57MOL    H7330425   2.330   0.937   6.780 -2.1223 -0.3973 -0.5249
   57MOL    H7430426   2.414   0.644   6.859  1.9015 -0.0764 -0.6855
   57MOL    H7530427   2.505   0.754   6.764  0.3200  1.3046  0.5284
   57MOL    H7630428   2.325   0.775   6.610 -0.3352 -0.2989 -0.3645
   57MOL    H7730429   2.356   0.605   6.615  0.2500  0.1260  0.0969
   57MOL    H7830430   1.935   0.432   6.499 -0.8641 -0.5547 -0.6869
   57MOL    H7930431   1.898   0.579   6.435 -0.7213  1.3225  0.7211
   57MOL    H8030432   1.782   0.518   6.549  0.3076  2.0274  2.0950
   57MOL    H8130433   1.838   0.517   6.817 -0.7342  1.3888 -0.1927
   57MOL    H8230434   2.008   0.547   6.851  1.7018 -0.5380 -1.8828
   57MOL    C8330435   1.393   0.611   6.729 -0.3525  0.2529  0.1061
   57MOL    C8430436   1.413   0.488   6.647  0.7069  0.1826  0.0257
   57MOL    C8530437   1.486   0.374   6.722 -0.5069  0.4832 -0.0376
   57MOL    C8630438   1.549   0.262   6.634 -0.3843  0.5908  0.2867
   57MOL    C8730439   1.650   0.172   6.713 -0.0573 -0.6969 -0.0310
   57MOL    O8830440   1.751   0.260   6.763  0.1925 -0.0439  0.2558
   57MOL    C8930441   1.877   0.249   6.709  0.1397  0.5933  0.1927
   57MOL    O9030442   1.911   0.183   6.608  0.5759  0.3689 -0.3361
   57MOL    C9130443   1.976   0.342   6.788  0.5805 -0.7870  0.2693
   57MOL    C9230444   2.118   0.329   6.731  0.2861  0.1247 -0.6191
   57MOL    C9330445   1.972   0.302   6.940 -0.3330  0.1149  0.6776
   57MOL    H9430446   1.369   0.588   6.833  0.2041 -0.9334 -0.0275
   57MOL    H9530447   1.483   0.671   6.715  0.7420 -1.9281 -2.6006
   57MOL    H9630448   1.313   0.665   6.679 -1.5027 -2.5066 -1.1341
   57MOL    H9730449   1.482   0.512   6.565  1.0420 -2.7634 -0.6318
   57MOL    H9830450   1.326   0.461   6.587  1.1467  0.8466 -0.9216
   57MOL    H9930451   1.404   0.336   6.784 -0.5999  0.3363 -0.2508
   57MOL   H10030452   1.551   0.422   6.795 -0.5910  0.1721  0.2442
   57MOL   H10130453   1.612   0.312   6.561 -1.4184 -1.0332 -1.8020
   57MOL   H10230454   1.474   0.192   6.596  0.8430 -1.2538  1.1657
   57MOL   H10330455   1.691   0.099   6.643  2.4395  0.6071 -0.0017
   57MOL   H10430456   1.606   0.116   6.795 -1.8120  1.5107  0.6003
   57MOL   H10530457   2.149   0.227   6.706  0.6932  0.4876 -1.6226
   57MOL   H10630458   2.190   0.364   6.804  0.7666 -0.2943 -0.8883
   57MOL   H10730459   2.130   0.378   6.634 -0.9403 -0.7647 -1.2410
   57MOL   H10830460   2.050   0.363   6.986 -1.7476  0.7632  2.2624
   57MOL   H10930461   1.886   0.355   6.982 -2.7413 -0.1757 -3.5067
   57MOL   C11030462   1.681   0.590   7.449  0.3706 -0.2905 -0.0805
   57MOL   C11130463   1.709   0.465   7.535 -0.0854  0.1806 -0.0972
   57MOL   C11230464   1.792   0.361   7.461  0.1430  0.5804  0.2904
   57MOL   C11330465   1.924   0.417   7.395  0.0358  0.3385 -0.0829
   57MOL   C11430466   2.020   0.302   7.348 -0.8060 -0.1711  0.2005
   57MOL   O11530467   1.974   0.256   7.220  0.1014 -0.0550  0.6398
   57MOL   C11630468   2.048   0.179   7.142 -0.3345 -0.4111  0.8396
   57MOL   O11730469   2.153   0.136   7.177  0.0523  0.2851 -0.2672
   57MOL   C11830470   1.989   0.155   7.000 -0.2463 -0.0050  0.2431
   57MOL   C11930471   2.089   0.074   6.914  0.1167 -0.3880 -0.6814
   57MOL   C12030472   1.845   0.085   6.992  0.4741 -0.5499 -0.3114
   57MOL   H12130473   1.615   0.563   7.366 -0.7105 -3.0479  1.6265
   57MOL   H12230474   1.621   0.659   7.508  1.8503  0.0549  1.0421
   57MOL   H12330475   1.767   0.631   7.394  0.1570  0.4625  0.1397
   57MOL   H12430476   1.764   0.505   7.621  1.5919  0.7227 -1.3872
   57MOL   H12530477   1.614   0.421   7.563  0.7554 -1.1387  0.7227
   57MOL   H12630478   1.834   0.293   7.535  0.3586 -0.4317 -0.7468
   57MOL   H12730479   1.741   0.302   7.385 -0.6918 -0.5617  1.7071
   57MOL   H12830480   1.991   0.473   7.460 -2.4379 -0.0803  3.0238
   57MOL   H12930481   1.898   0.470   7.303  0.1674  0.9286  0.2136
   57MOL   H13030482   2.119   0.337   7.322 -1.0563 -0.4436 -1.1214
   57MOL   H13130483   2.033   0.223   7.423  0.7019  1.3414  1.5716
   57MOL   H13230484   2.178   0.136   6.904 -1.1617  1.4098 -1.1908
   57MOL   H13330485   2.125   7.799   6.965 -0.3630 -0.2222 -0.0519
   57MOL   H13430486   2.044   0.048   6.818 -0.9813 -2.7578  0.4388
   57MOL   H13530487   1.772   0.166   7.000  1.1950  0.0480  0.3040
   57MOL   H13630488   1.839   0.052   6.888  0.9940  0.0754 -0.5461
   57MOL   C13730489   1.028   0.243   6.904  0.1128  0.0391  0.5196
   57MOL   C13830490   1.158   0.225   6.974  0.2234 -0.4215 -0.3775
   57MOL   C13930491   1.222   0.096   6.927 -0.0446  0.2222 -0.2326
   57MOL   C14030492   1.367   0.091   6.981  0.8636 -0.2778  0.0439
   57MOL   C14130493   1.453   7.779   6.964  0.0741 -0.0749  0.2290
   57MOL   O14230494   1.583   7.812   7.018  0.4314  0.1257 -0.9922
   57MOL   C14330495   1.677   7.721   7.020 -0.7989 -0.0538  0.1721
   57MOL   O14430496   1.663   7.605   6.983  0.4432 -0.1400 -0.4589
   57MOL   C14530497   1.802   7.777   7.081  0.0579 -0.1126 -0.3895
   57MOL   C14630498   1.906   7.670   7.066 -0.0727 -0.4238 -0.0200
   57MOL   C14730499   1.778   0.000   7.235 -0.0827 -0.0010  0.0740
   57MOL   H14830500   0.953   0.169   6.930 -1.0465  0.2622 -2.0317
   57MOL   H14930501   1.030   0.238   6.795  1.6952 -0.6423  0.5698
   57MOL   H15030502   0.999   0.343   6.937  1.5544  0.4837  0.4866
   57MOL   H15130503   1.133   0.232   7.079 -1.0350 -1.5596 -0.6026
   57MOL   H15230504   1.233   0.300   6.945  2.9164 -2.2067  1.7281
   57MOL   H15330505   1.165   0.009   6.961  0.5046  0.3346  0.9942
   57MOL   H15430506   1.223   0.096   6.818  0.1175  0.9000 -0.2316
   57MOL   H15530507   1.418   0.171   6.929 -0.4141  1.3777  1.2737
   57MOL   H15630508   1.367   0.107   7.089  0.5652 -0.4915  0.0754
   57MOL   H15730509   1.464   7.758   6.858 -0.1522  0.0356  0.1826
   57MOL   H15830510   1.414   7.691   7.017  0.0868 -0.5551 -0.5576
   57MOL   H15930511   1.884   7.571   7.107  2.0518 -1.0840 -0.4160
   57MOL   H16030512   1.997   7.701   7.118 -1.2300  0.2067  1.6423
   57MOL   H16130513   1.919   7.653   6.959  1.0516  0.0348  0.0362
   57MOL   H16230514   1.871   0.035   7.282  1.3913 -1.5954 -1.5641
   57MOL   H16330515   1.716   0.089   7.226  0.6204  0.7800  2.5026
   57MOL   C16430516   2.436   7.427   7.702  0.5237  0.2899  0.3569
   57MOL   C16530517   2.377   7.536   7.629 -0.0418  0.0035 -0.6273
   57MOL   C16630518   2.246   7.491   7.560 -0.4158 -0.4422  0.5515
   57MOL   C16730519   2.167   7.597   7.476  0.0324 -0.0117 -0.2616
   57MOL   C16830520   2.022   7.551   7.449 -0.6183  0.2648 -0.4888
   57MOL   O16930521   1.932   7.648   7.406  0.9428 -0.7065 -0.3613
   57MOL   C17030522   1.805   7.610   7.392  0.2197  0.0426 -0.4556
   57MOL   O17130523   1.763   7.498   7.394 -0.0078  0.0772  0.0075
   57MOL   C17230524   1.711   7.733   7.352 -0.2277  0.4795  0.0322
   57MOL   C17330525   1.571   7.676   7.314 -0.1833  0.1735  0.5679
   57MOL   C17430526   1.690   0.021   7.469  0.5509 -0.6492  0.7426
   57MOL   H17530527   2.470   7.353   7.630  2.5402  1.1724  0.3644
   57MOL   H17630528   2.367   7.376   7.769 -1.3522  1.1826 -0.8780
   57MOL   H17730529   2.528   7.458   7.752  0.9686 -1.1930  0.4969
   57MOL   H17830530   2.446   7.575   7.554  3.7858 -1.4426  1.9892
   57MOL   H17930531   2.344   7.614   7.698 -0.7908 -0.2564 -0.6935
   57MOL   H18030532   2.256   7.400   7.501  1.6665  0.8029 -1.0806
   57MOL   H18130533   2.184   7.457   7.643  1.8701  0.3720  2.6569
   57MOL   H18230534   2.206   7.616   7.376  0.3068 -1.4195 -0.4324
   57MOL   H18330535   2.164   7.693   7.526 -2.0459  0.3343 -1.0022
   57MOL   H18430536   1.984   7.510   7.543 -0.2914  1.3403  0.1150
   57MOL   H18530537   2.022   7.475   7.371  0.8237  0.8771 -1.0958
   57MOL   H18630538   1.521   7.754   7.256  0.3347  0.4127  0.4449
   57MOL   H18730539   1.498   7.644   7.388  0.7319  0.3607  1.5569
   57MOL   H18830540   1.572   7.591   7.246 -1.1715  0.4705  0.1633
   57MOL   H18930541   1.783   0.078   7.473  0.1726  0.2064 -1.9120
   57MOL   H19030542   1.619   0.100   7.447  0.2506 -1.0840  0.1157
   57MOL   C19130543   2.127   0.475   7.785  0.2624  0.9874 -0.1594
   57MOL   C19230544   2.181   0.349   7.723 -0.1552  0.3743 -0.2092
   57MOL   C19330545   2.086   0.238   7.753  0.3555  0.0036 -0.3297
   57MOL   C19430546   2.139   0.098   7.713 -0.2682  0.8244 -0.3086
   57MOL   C19530547   2.025   7.808   7.746 -0.3964 -0.1037  0.5244
   57MOL   O19630548   1.910   0.031   7.679 -0.4134  0.4821  0.2506
   57MOL   C19730549   1.802   7.757   7.691  0.0505  0.2686  0.5903
   57MOL   O19830550   1.815   7.644   7.739  0.0407 -0.9294  0.0564
   57MOL   C19930551   1.672   7.799   7.623  0.0923  0.0335  0.6737
   57MOL   C20030552   1.562   7.686   7.632  0.5543  0.2028 -0.3761
   57MOL   C20130553   1.604   0.112   7.690  0.3563 -0.6071  0.3089
   57MOL   H20230554   2.106   0.452   0.075 -0.0344  0.0781 -0.4164
   57MOL   H20330555   2.197   0.559   7.781  1.0875  0.3124 -0.0954
   57MOL   H20430556   2.033   0.510   7.742  0.3110  0.5038 -0.6562
   57MOL   H20530557   2.279   0.330   7.768  1.2921 -0.0339 -3.4232
   57MOL   H20630558   2.185   0.359   7.615 -0.4416 -0.7013 -0.3296
   57MOL   H20730559   1.990   0.266   7.712 -0.2326 -1.2964  0.1287
   57MOL   H20830560   2.076   0.245   0.047  0.2131 -0.0158 -0.3426
   57MOL   H20930561   2.168   0.089   7.608 -0.9553 -0.9411 -0.3543
   57MOL   H21030562   2.225   0.074   7.775  1.8759  1.8948 -2.7700
   57MOL   H21130563   2.056   7.708   7.715 -1.6416  0.4307 -2.6522
   57MOL   H21230564   2.005   7.806   0.039 -0.8515 -0.5947  0.4336
   57MOL   H21330565   1.464   7.718   7.598  1.5571  2.2054 -1.4786
   57MOL   H21430566   1.568   7.651   7.735 -0.0643  0.4130 -0.2663
   57MOL   H21530567   1.601   7.605   7.570  2.1919 -0.6554  1.6863
   57MOL   H21630568   1.511   0.140   7.639 -0.4210 -0.2513  1.8986
   57MOL   H21730569   1.672   0.194   7.666 -0.2989 -0.4410 -1.0153
   57MOL   C21830570   1.177   0.630   7.467 -0.1508  0.2028  0.4119
   57MOL   C21930571   1.162   0.682   7.611 -0.5878 -1.3500  0.4136
   57MOL   C22030572   1.285   0.660   7.695  0.1561  0.2949 -0.0843
   57MOL   C22130573   1.311   0.510   7.720 -0.3571 -0.3371  0.0349
   57MOL   C22230574   1.420   0.467   0.002 -0.0500  0.2310  0.1910
   57MOL   O22330575   1.453   0.330   7.807 -0.1570 -0.4408 -0.5179
   57MOL   C22430576   1.553   0.272   0.062 -0.7010  0.3099  0.7456
   57MOL   O22530577   1.621   0.340   0.143 -0.0677 -0.3436  0.4437
   57MOL   C22630578   1.575   0.123   0.038  0.4213  0.2645  0.1428
   57MOL   C22730579   1.691   0.076   0.121 -0.7561  0.3041 -0.1228
   57MOL   C22830580   1.441   0.052   0.085 -0.1253 -0.0941  0.0265
   57MOL   H22930581   1.086   0.640   7.409  0.3625  0.6259 -0.3158
   57MOL   H23030582   1.258   0.685   7.419 -0.9767 -0.6600 -2.0116
   57MOL   H23130583   1.202   0.524   7.460  0.0173  0.2068  0.8842
   57MOL   H23230584   1.070   0.653   7.662 -1.5548 -0.6840 -0.9220
   57MOL   H23330585   1.149   0.789   7.601  1.0815 -1.0829  1.0292
   57MOL   H23430586   1.274   0.714   7.789 -0.0658  0.3310 -0.1305
   57MOL   H23530587   1.377   0.699   7.649 -0.1359 -0.2615 -1.1707
   57MOL   H23630588   1.218   0.466   7.755 -0.2723  0.0185  0.7211
   57MOL   H23730589   1.330   0.447   7.634 -0.3573 -0.6151  0.2378
   57MOL   H23830590   1.403   0.492   0.107  2.6126 -2.7283  1.4196
   57MOL   H23930591   1.506   0.532   7.800 -0.1224  0.3141  0.1398
   57MOL   H24030592   1.684   7.781   0.132  2.0346  0.1238  0.1750
   57MOL   H24130593   1.696   0.115   0.223  0.2976  3.5866 -1.3909
   57MOL   H24230594   1.784   0.111   0.077 -0.8433  0.1859 -0.4010
   57MOL   H24330595   1.461   7.761   0.066  1.1938  0.0323  0.6189
   57MOL   H24430596   1.366   0.075   0.009  1.5978  0.9855 -1.3845
   57MOL   C24530597   1.800   7.324   0.052 -0.3483  0.2238 -0.4611
   57MOL   C24630598   1.803   7.414   0.181 -0.6751 -0.1456  0.3675
   57MOL   C24730599   1.653   7.446   0.225 -0.3585  1.0900 -0.1736
   57MOL   C24830600   1.656   7.514   0.365 -0.0655 -0.7600 -0.1093
   57MOL   C24930601   1.511   7.545   0.402  0.6069 -0.1794  0.1889
   57MOL   O25030602   1.448   7.643   0.317 -0.1278  0.3633  0.7031
   57MOL   C25130603   1.463   7.770   0.332 -0.1000 -0.3002  0.1443
   57MOL   O25230604   1.551   0.008   0.397 -0.0461 -0.0101 -0.5119
   57MOL   C25330605   1.380   0.049   0.236 -0.2840 -0.3570  0.3778
   57MOL   C25430606   1.236   7.804   0.220 -0.4343  0.3313 -1.1066
   57MOL   C25530607   1.364   0.196   0.299 -0.7730  0.2972 -0.2568
   57MOL   H25630608   1.759   7.383   7.784 -2.2231 -1.1312 -0.5163
   57MOL   H25730609   1.900   7.299   0.014 -0.5697 -1.6210  0.1071
   57MOL   H25830610   1.732   7.242   0.076 -0.7078  0.4118 -0.8442
   57MOL   H25930611   1.847   7.363   0.267  2.6629 -0.5278 -1.5263
   57MOL   H26030612   1.858   7.506   0.164  1.0076 -1.5795 -2.2518
   57MOL   H26130613   1.589   7.358   0.226  1.5455 -0.3900 -2.5177
   57MOL   H26230614   1.601   7.504   0.149 -1.0177  0.4950 -0.1827
   57MOL   H26330615   1.691   7.443   0.440  2.2710 -0.3788 -0.7898
   57MOL   H26430616   1.716   7.605   0.361 -0.9235 -0.1625  0.4275
   57MOL   H26530617   1.446   7.458   0.392 -1.1048  1.0219  0.7127
   57MOL   H26630618   1.506   7.566   0.509  0.8189  0.9179 -0.0145
   57MOL   H26730619   1.185   7.799   0.317  0.1278 -5.8766 -0.8783
   57MOL   H26830620   1.189   0.068   0.160 -1.3790  0.5557 -0.1194
   57MOL   H26930621   1.244   7.704   0.177 -0.6666 -0.2666  0.1861
   57MOL   H27030622   1.464   0.239   0.308  0.0738 -1.4554 -0.9475
   57MOL   H27130623   1.323   0.259   0.221 -1.6523 -0.4055 -0.3672
   57MOL   C27230624   0.763   0.748   0.011 -0.4082 -0.3099  0.3497
   57MOL   C27330625   0.887   0.705   0.088  0.2671  0.2135 -0.6706
   57MOL   C27430626   0.878   0.556   0.127  0.6403 -0.7063  0.4597
   57MOL   C27530627   1.009   0.501   0.194  0.6591  0.3492  0.0159
   57MOL   C27630628   0.989   0.367   0.263  0.0318 -0.8812  0.2104
   57MOL   O27730629   1.119   0.318   0.292 -0.3101 -0.0222  0.3006
   57MOL   C27830630   1.136   0.234   0.394 -0.4815 -0.1116 -0.0125
   57MOL   O27930631   1.043   0.181   0.453  0.4677 -0.1193  0.0211
   57MOL   C28030632   1.285   0.229   0.435  0.1559  0.4810  0.1817
   57MOL   C28130633   1.307   0.118   0.538 -1.1780 -0.0167 -0.0817
   57MOL   C28230634   1.332   0.376   0.479  0.1436 -0.4435 -0.5702
   57MOL   H28330635   0.756   0.716   7.722 -0.1883  1.3011 -0.1796
   57MOL   H28430636   0.676   0.719   0.070 -1.1521  0.8969 -0.1484
   57MOL   H28530637   0.756   0.857   0.011 -0.6285 -0.3238  0.2746
   57MOL   H28630638   0.976   0.723   0.027  1.0858 -2.7213 -0.4154
   57MOL   H28730639   0.890   0.748   0.189 -2.7765 -2.2544  0.5730
   57MOL   H28830640   0.792   0.554   0.193 -0.2705  2.2814 -0.5393
   57MOL   H28930641   0.853   0.496   0.039 -1.2273  0.3394  0.2536
   57MOL   H29030642   1.092   0.497   0.124  0.5486 -1.1724 -0.0482
   57MOL   H29130643   1.032   0.574   0.271 -0.8352  3.4821 -2.3743
   57MOL   H29230644   0.957   0.300   0.183  0.4040 -0.0672 -0.6287
   57MOL   H29330645   0.917   0.376   0.344 -1.6963 -4.3453 -0.7936
   57MOL   H29430646   1.410   0.095   0.563 -0.7310 -0.0771 -1.9470
   57MOL   H29530647   1.251   0.138   0.629  0.4089  0.9272  0.6996
   57MOL   H29630648   1.258   0.030   0.495  0.7803 -1.0305 -0.2786
   57MOL   H29730649   1.441   0.377   0.477  0.1363  0.7586 -0.8271
   57MOL   H29830650   1.319   0.438   0.390  1.7993 -0.0838 -0.5863
   57MOL   C29930651   1.637   0.629   1.220 -0.7813 -0.2308 -0.5166
   57MOL   C30030652   1.544   0.509   1.223  0.3047  0.3898 -0.6901
   57MOL   C30130653   1.557   0.407   1.115  0.1113 -0.0155  0.1760
   57MOL   C30230654   1.505   0.448   0.978 -0.0946 -0.6812 -0.1530
   57MOL   C30330655   1.515   0.339   0.866  0.6954  0.4703 -0.0426
   57MOL   O30430656   1.458   0.380   0.745  0.1206  0.0228  0.8155
   57MOL   C30530657   1.325   0.379   0.729  0.4524 -0.1923  0.2296
   57MOL   O30630658   1.247   0.320   0.800  0.5514 -0.0007 -0.4183
   57MOL   C30730659   1.278   0.458   0.601 -0.2727 -1.2095  0.0609
   57MOL   C30830660   1.348   0.594   0.594  0.1954  0.2449 -0.2126
   57MOL   C30930661   1.120   0.477   0.600  0.2601  0.3058  0.0728
   57MOL   H31030662   1.595   0.704   1.287 -1.1708  0.8373 -1.9234
   57MOL   H31130663   1.645   0.667   1.118  0.8149  1.7011  0.3177
   57MOL   H31230664   1.734   0.596   1.258 -1.0219 -1.4811 -0.9453
   57MOL   H31330665   1.443   0.549   1.214 -0.3082 -1.1367 -0.5559
   57MOL   H31430666   1.534   0.468   1.323  2.4182  0.7136 -0.3244
   57MOL   H31530667   1.491   0.326   1.145 -1.5068  1.0155 -0.5140
   57MOL   H31630668   1.657   0.364   1.125 -0.5491 -0.8438  4.3021
   57MOL   H31730669   1.556   0.540   0.951  1.8908 -1.8191 -0.3653
   57MOL   H31830670   1.398   0.468   0.988  0.2142  1.3135 -0.7911
   57MOL   H31930671   1.619   0.325   0.837  1.1129  1.9906  0.6615
   57MOL   H32030672   1.466   0.246   0.896  3.5742 -0.5532  1.7126
   57MOL   H32130673   1.447   0.577   0.551 -0.9616 -0.5145 -2.7045
   57MOL   H32230674   1.306   0.672   0.530  0.1633  0.4678  0.0826
   57MOL   H32330675   1.370   0.631   0.694 -1.9185  0.0987  0.3197
   57MOL   H32430676   1.079   0.377   0.607 -1.9858  1.3018  1.5905
   57MOL   H32530677   1.100   0.492   0.494  0.4147 -0.4854 -0.0696
   57MOL   C32630678   0.349   0.637   0.284  0.1626  0.0026 -0.5123
   57MOL   C32730679   0.477   0.615   0.358  0.9852  0.3444 -0.1141
   57MOL   C32830680   0.466   0.652   0.509  0.0720 -0.0604  0.5173
   57MOL   C32930681   0.613   0.661   0.577 -0.6028  0.3191 -0.1024
   57MOL   C33030682   0.679   0.517   0.572  0.0691  0.5702 -0.7675
   57MOL   O33130683   0.799   0.517   0.648  0.2639 -0.1049  0.0348
   57MOL   C33230684   0.904   0.586   0.602 -0.2285  0.4497 -0.2997
   57MOL   O33330685   0.912   0.660   0.504 -0.0354  0.3412  0.2514
   57MOL   C33430686   1.033   0.573   0.690  0.1720 -0.1307 -0.2559
   57MOL   C33530687   0.996   0.502   0.822  0.2977  0.0192  0.4237
   57MOL   C33630688   1.092   0.713   0.732  0.2947  0.2407 -0.0205
   57MOL   H33730689   0.261   0.615   0.344  1.0660 -0.0424  0.8138
   57MOL   H33830690   0.343   0.582   0.190  1.2043 -0.9660 -0.0197
   57MOL   H33930691   0.337   0.743   0.260  2.1982  1.0458  2.8248
   57MOL   H34030692   0.557   0.676   0.315  1.5889  0.3369  0.9947
   57MOL   H34130693   0.511   0.512   0.357 -0.6317 -0.2117  0.0996
   57MOL   H34230694   0.412   0.575   0.564 -1.3091 -1.3261 -2.4832
   57MOL   H34330695   0.421   0.750   0.519 -0.8951 -0.4297 -0.1415
   57MOL   H34430696   0.604   0.686   0.683 -0.0389 -1.3347  0.3502
   57MOL   H34530697   0.670   0.739   0.528  2.0540 -1.2633  0.3599
   57MOL   H34630698   0.696   0.500   0.466 -5.0335  1.5708 -1.9170
   57MOL   H34730699   0.605   0.446   0.608 -1.8691  2.4923 -0.8015
   57MOL   H34830700   0.969   0.399   0.801  0.0999  0.3772 -1.1419
   57MOL   H34930701   0.905   0.545   0.864  2.5385  2.1536  3.2846
   57MOL   H35030702   1.071   0.514   0.900  1.0720 -0.0350 -0.2995
   57MOL   H35130703   1.108   0.759   0.635 -0.8355  1.7062  0.4594
   57MOL   H35230704   1.186   0.683   0.777  0.2619 -1.1918 -0.8820
   57MOL   C35330705   1.368   0.781   1.587 -0.1541 -1.0148  0.3739
   57MOL   C35430706   1.286   0.849   1.481 -0.5733 -0.5308 -0.0047
   57MOL   C35530707   1.205   0.756   1.391  0.2852  0.1503  0.4766
   57MOL   C35630708   1.189   0.812   1.249  0.0552  0.1193  0.0494
   57MOL   C35730709   1.124   0.703   1.156  0.3635  0.1021  0.1562
   57MOL   O35830710   1.127   0.748   1.024 -0.4778  0.2351  0.1384
   57MOL   C35930711   1.010   0.802   0.971 -0.5266  0.5247 -0.6121
   57MOL   O36030712   0.900   0.814   1.030  0.3475 -0.0910  0.2369
   57MOL   C36130713   1.021   0.835   0.812 -0.2016  0.4828 -0.5587
   57MOL   C36230714   0.877   0.868   0.766 -0.2262  0.0313  0.8356
   57MOL   C36330715   1.114   0.963   0.789 -0.8873 -0.3733  0.2246
   57MOL   H36430716   1.296   0.725   1.648 -2.4633 -0.5492 -1.8694
   57MOL   H36530717   1.419   0.849   1.655 -0.4313  0.3582 -0.7762
   57MOL   H36630718   1.437   0.702   1.558 -0.2906 -0.3542 -1.7862
   57MOL   H36730719   1.223   0.932   1.512 -2.8507 -1.0548 -3.0078
   57MOL   H36830720   1.360   0.904   1.422  0.0642 -0.4387  0.8718
   57MOL   H36930721   1.105   0.746   1.434  0.3728  0.7413  0.8196
   57MOL   H37030722   1.243   0.654   1.394  0.5391  0.2666  1.4130
   57MOL   H37130723   1.275   0.873   1.222 -0.3056  0.4317 -0.4298
   57MOL   H37230724   1.109   0.887   1.250 -0.8716 -0.7591 -2.8137
   57MOL   H37330725   1.175   0.607   1.152 -0.1326 -0.1268 -0.8640
   57MOL   H37430726   1.023   0.687   1.196 -0.8038  1.2135 -2.2469
   57MOL   H37530727   0.807   0.784   0.771  0.6685 -0.7031  1.1104
   57MOL   H37630728   0.832   0.942   0.833 -0.9670  2.0877 -1.8418
   57MOL   H37730729   0.873   0.900   0.662 -2.7284 -3.2440 -0.1612
   57MOL   H37830730   1.212   0.939   0.829 -0.7033 -1.5378 -0.8712
   57MOL   H37930731   1.141   0.970   0.684 -0.5704 -0.2314  0.3173
   57MOL   C38030732   0.523   1.030   0.190 -0.8167 -0.0617 -0.0796
   57MOL   C38130733   0.629   0.980   0.286  0.0201  0.3966 -0.3370
   57MOL   C38230734   0.713   1.096   0.341 -0.0079  0.3419 -0.0784
   57MOL   C38330735   0.818   1.063   0.442  0.1576  0.4777  0.1836
   57MOL   C38430736   0.904   1.176   0.502 -0.3641 -0.4698  0.0976
   57MOL   O38530737   0.993   1.146   0.607  0.2694  0.0560  0.1148
   57MOL   C38630738   0.967   1.156   0.736  0.0158  0.1607 -0.1143
   57MOL   O38730739   0.858   1.193   0.780 -0.1867 -0.1006  0.2555
   57MOL   C38830740   1.080   1.116   0.820 -0.5812  0.2805  0.0153
   57MOL   C38930741   1.042   1.128   0.970  0.2531  0.2491  0.6033
   57MOL   C39030742   1.208   1.204   0.793  0.5035 -0.5690 -0.1192
   57MOL   H39130743   0.560   1.050   0.090 -0.4360 -0.2709  0.0191
   57MOL   H39230744   0.442   0.959   0.173 -2.0721  1.6080 -1.2763
   57MOL   H39330745   0.490   1.132   0.210  0.6478  0.3117  0.5191
   57MOL   H39430746   0.691   0.908   0.232 -0.8200 -0.5365 -0.0566
   57MOL   H39530747   0.590   0.919   0.367 -1.4452  1.7294 -0.0284
   57MOL   H39630748   0.760   1.140   0.254 -2.0387  3.6312  0.3807
   57MOL   H39730749   0.641   1.169   0.379 -1.3629 -0.7189 -0.5720
   57MOL   H39830750   0.761   1.014   0.522 -0.4405  0.7547 -0.0729
   57MOL   H39930751   0.889   0.987   0.408 -0.9447 -1.2365  1.5488
   57MOL   H40030752   0.844   1.262   0.531 -0.7753  0.0168 -2.0583
   57MOL   H40130753   0.974   1.211   0.426  0.1373  1.3730  1.3740
   57MOL   H40230754   0.954   1.065   0.980 -0.1366  0.0354 -3.2643
   57MOL   H40330755   1.011   1.228   1.001 -0.6752  0.1212  0.1136
   57MOL   H40430756   1.125   1.083   1.023  1.2636  0.4223 -0.7861
   57MOL   H40530757   1.240   1.173   0.694  0.8070 -0.2505 -0.1227
   57MOL   H40630758   1.280   1.147   0.851  1.2021  0.8591  0.4403
   57MOL   C40730759   1.769   1.508   1.139 -0.6627 -0.2653  0.1979
   57MOL   C40830760   1.808   1.439   1.011  0.2131  0.0325 -0.1786
   57MOL   C40930761   1.686   1.427   0.919  0.6340 -0.4828 -0.3888
   57MOL   C41030762   1.699   1.344   0.797 -0.2732 -0.0709 -0.0735
   57MOL   C41130763   1.582   1.358   0.695 -0.1040 -0.3530 -0.1837
   57MOL   O41230764   1.453   1.325   0.751  0.8570 -0.3823  0.0467
   57MOL   C41330765   1.345   1.397   0.718  0.4843 -0.4706  0.0703
   57MOL   O41430766   1.341   1.473   0.621  0.4515  0.2190  0.8398
   57MOL   C41530767   1.223   1.362   0.812 -0.1695  0.1415  0.7981
   57MOL   C41630768   1.093   1.438   0.767  0.1388  0.0516  0.1396
   57MOL   C41730769   1.270   1.386   0.962 -0.6533 -0.3917  0.3702
   57MOL   H41830770   1.860   1.541   1.189 -1.8055  0.0229  2.1091
   57MOL   H41930771   1.701   1.593   1.128 -1.6613 -1.1791 -0.8365
   57MOL   H42030772   1.719   1.442   1.210 -0.5492  1.0805  1.5378
   57MOL   H42130773   1.851   1.340   1.027 -0.2335 -0.5859 -2.6598
   57MOL   H42230774   1.885   1.496   0.959 -0.2022 -0.6414 -1.5536
   57MOL   H42330775   1.605   1.394   0.984 -0.2300 -1.4677 -1.9537
   57MOL   H42430776   1.652   1.527   0.890  0.0108 -0.6243 -0.1519
   57MOL   H42530777   1.699   1.238   0.821 -1.9792 -0.6608 -2.4637
   57MOL   H42630778   1.792   1.375   0.748 -0.3503  0.0663 -0.1343
   57MOL   H42730779   1.588   1.463   0.665 -0.4712 -0.6394 -1.2829
   57MOL   H42830780   1.594   1.294   0.607  0.1373 -0.7052  0.1046
   57MOL   H42930781   1.101   1.546   0.758  0.8021  0.1006  1.1325
   57MOL   H43030782   1.012   1.424   0.839  0.1222  0.3835  0.1835
   57MOL   H43130783   1.061   1.403   0.669 -1.4582 -0.6396  0.8888
   57MOL   H43230784   1.379   1.380   0.958 -0.5044  1.5869  0.6709
   57MOL   H43330785   1.234   1.306   1.027  0.0864 -1.2347 -0.2529
   57MOL   C43430786   0.422   1.334   1.147 -0.7705  0.4399 -1.1437
   57MOL   C43530787   0.571   1.300   1.138  0.7988  0.6882 -0.3968
   57MOL   C43630788   0.665   1.417   1.167  0.8727 -0.2048  0.0210
   57MOL   C43730789   0.808   1.377   1.116  0.5552 -0.9453  0.1751
   57MOL   C43830790   0.907   1.492   1.164  0.0679 -0.2457 -0.0063
   57MOL   O43930791   1.038   1.469   1.119 -0.3335  0.2248 -0.0360
   57MOL   C44030792   1.106   1.561   1.058 -0.0538  0.1738  0.2095
   57MOL   O44130793   1.061   1.670   1.018 -0.2233 -0.1244 -0.1547
   57MOL   C44230794   1.254   1.521   1.041  0.4943 -0.3342 -0.2344
   57MOL   C44330795   1.331   1.631   0.947 -1.0035  0.3654  0.0777
   57MOL   C44430796   1.325   1.493   1.183 -0.0991  0.1525  0.0354
   57MOL   H44530797   0.401   1.411   1.073  0.6534  1.3564 -0.6147
   57MOL   H44630798   0.359   1.247   1.131 -2.2075  0.8228  2.0163
   57MOL   H44730799   0.393   1.382   1.241  0.2242  2.0503 -1.6363
   57MOL   H44830800   0.583   1.223   1.214  1.7058 -0.9847 -2.1889
   57MOL   H44930801   0.596   1.260   1.040  0.9833 -1.9880  0.7065
   57MOL   H45030802   0.625   1.505   1.115  2.8396  0.2474 -0.7837
   57MOL   H45130803   0.660   1.441   1.273  0.2659  1.3649 -0.3432
   57MOL   H45230804   0.803   1.387   1.007 -1.9971  0.1958  0.3712
   57MOL   H45330805   0.849   1.282   1.152  3.0191 -0.2497 -0.6567
   57MOL   H45430806   0.898   1.500   1.272  3.7631  1.7162  0.2218
   57MOL   H45530807   0.865   1.589   1.135 -0.7249  0.3295  2.8983
   57MOL   H45630808   1.439   1.618   0.935 -1.1117 -0.1945 -0.3082
   57MOL   H45730809   1.290   1.645   0.847 -0.2905  2.5890  0.0621
   57MOL   H45830810   1.318   1.732   0.986  1.4473  1.8940 -2.8591
   57MOL   H45930811   1.432   1.481   1.174  0.0143 -0.4734  1.9756
   57MOL   H46030812   1.291   1.395   1.219  2.1086 -0.6252  0.0552
   57MOL   C46130813   0.823   1.028   1.299 -0.3232  0.5115  0.9515
   57MOL   C46230814   0.852   1.046   1.446 -0.5716  0.1667 -0.5641
   57MOL   C46330815   0.875   1.201   1.484 -0.1848  0.2631 -0.0780
   57MOL   C46430816   0.999   1.261   1.421 -0.5381 -0.1724  0.4909
   57MOL   C46530817   1.032   1.406   1.481  0.0023  0.8755 -0.3932
   57MOL   O46630818   1.143   1.448   1.404  0.0818 -0.0598  0.8426
   57MOL   C46730819   1.180   1.577   1.386  0.1083  0.3348 -0.3265
   57MOL   O46830820   1.131   1.671   1.442 -0.1165  0.0714 -0.0208
   57MOL   C46930821   1.312   1.594   1.306  0.1740 -0.1457  0.3581
   57MOL   C47030822   1.326   1.744   1.273  0.1424 -0.0096 -0.5852
   57MOL   C47130823   1.434   1.569   1.402 -0.7897 -0.1303  0.2515
   57MOL   H47230824   0.718   1.055   1.287  0.1035  2.4736  1.4604
   57MOL   H47330825   0.828   0.920   1.284 -2.0434  0.8007 -2.3241
   57MOL   H47430826   0.890   1.083   1.233  1.6455 -1.6328  1.0630
   57MOL   H47530827   0.935   0.979   1.469 -0.2809  0.3421 -1.0899
   57MOL   H47630828   0.764   1.003   1.494  0.1057  1.4589  1.9153
   57MOL   H47730829   0.885   1.204   1.593 -0.9458  1.2505 -0.0280
   57MOL   H47830830   0.793   1.258   1.440 -0.9168 -1.8152 -1.4680
   57MOL   H47930831   0.996   1.271   1.312 -0.9681 -0.1777  0.5024
   57MOL   H48030832   1.089   1.201   1.431 -1.7263 -2.4077 -1.7864
   57MOL   H48130833   0.951   1.478   1.475 -3.2668 -2.5831  0.7782
   57MOL   H48230834   1.059   1.389   1.585 -1.0885  0.5974 -0.1534
   57MOL   H48330835   1.325   1.811   1.359 -0.6322  2.0822 -2.1635
   57MOL   H48430836   1.240   1.780   1.216 -0.5498  1.2178  1.1867
   57MOL   H48530837   1.417   1.751   1.213 -0.7547 -0.6488 -2.0487
   57MOL   H48630838   1.445   1.663   1.456  0.2756 -1.6517  2.7851
   57MOL   H48730839   1.522   1.562   1.337 -0.6568 -0.9618  0.5185
   57MOL   C48830840   1.532   0.881   0.872  0.1007  0.7566 -0.0889
   57MOL   C48930841   1.581   1.012   0.925  0.5164  0.4951 -0.5418
   57MOL   C49030842   1.507   1.034   1.062 -0.1965  0.2054 -0.6652
   57MOL   C49130843   1.570   1.140   1.154  0.0325  0.3074 -0.1314
   57MOL   C49230844   1.489   1.160   1.281 -0.3687 -0.1976 -0.2093
   57MOL   O49330845   1.510   1.290   1.341 -0.5747 -0.2428  0.4889
   57MOL   C49430846   1.439   1.323   1.442  0.5208 -0.2584  0.7862
   57MOL   O49530847   1.348   1.254   1.483  0.3866 -0.6470 -0.3516
   57MOL   C49630848   1.465   1.456   1.501 -0.0513 -0.3925  0.5505
   57MOL   C49730849   1.378   1.479   1.623 -0.2792  0.4379  0.6179
   57MOL   C49830850   1.611   1.471   1.546 -0.3834 -0.0678 -0.6831
   57MOL   H49930851   1.424   0.867   0.868  0.2537 -0.2560 -0.9240
   57MOL   H50030852   1.564   0.866   0.769 -2.9470 -2.1594 -0.7075
   57MOL   H50130853   1.571   0.799   0.931 -0.0890  0.3976 -0.4572
   57MOL   H50230854   1.572   1.093   0.854  2.2760  2.0375  0.9230
   57MOL   H50330855   1.688   0.998   0.939  0.1278 -1.0416  1.0441
   57MOL   H50430856   1.400   1.048   1.045 -0.2473  0.8250  0.0827
   57MOL   H50530857   1.500   0.938   1.112  0.8345  0.4458 -0.0345
   57MOL   H50630858   1.588   1.235   1.104  0.8531 -0.3362 -1.0793
   57MOL   H50730859   1.673   1.129   1.187 -0.0941  1.0574  0.5246
   57MOL   H50830860   1.383   1.140   1.264 -0.5015  0.2037  0.1614
   57MOL   H50930861   1.526   1.092   1.357  1.3005  0.2170 -0.6325
   57MOL   H51030862   1.415   1.430   1.713  0.5552 -0.2922 -0.1015
   57MOL   H51130863   1.276   1.447   1.606  0.1740  0.3963 -2.2306
   57MOL   H51230864   1.373   1.583   1.655 -2.1072  0.2893  0.8354
   57MOL   H51330865   1.603   1.553   1.618 -0.7616 -1.6841  1.1329
   57MOL   H51430866   1.681   1.518   1.476 -0.0617  0.7944  0.1957
   57MOL   C51530867   2.323   1.138   1.552  0.9698 -0.2579  0.3230
   57MOL   C51630868   2.211   1.216   1.610  0.1271 -0.4751  0.5689
   57MOL   C51730869   2.133   1.295   1.505 -0.2906  0.5177 -0.4815
   57MOL   C51830870   2.050   1.212   1.412  0.1765  0.1238 -0.0267
   57MOL   C51930871   1.941   1.287   1.341  0.3918 -0.6711 -0.1057
   57MOL   O52030872   1.846   1.339   1.438 -0.3392  0.7611  0.3379
   57MOL   C52130873   1.770   1.263   1.518 -0.5291 -0.5169 -0.8719
   57MOL   O52230874   1.773   1.142   1.532  0.1657 -0.1314  0.2987
   57MOL   C52330875   1.693   1.353   1.624  0.3425  0.0747  0.8095
   57MOL   C52430876   1.611   1.268   1.722 -0.3934 -0.6012  0.9671
   57MOL   C52530877   1.796   1.422   1.712  0.0875  0.5395 -0.3007
   57MOL   H52630878   2.418   1.190   1.555  1.3104 -0.9489  2.3292
   57MOL   H52730879   2.337   1.049   1.614  1.8062  0.3272  0.9872
   57MOL   H52830880   2.293   1.111   1.451 -1.3314  0.5034  0.7563
   57MOL   H52930881   2.146   1.146   1.664 -0.3186 -0.0461  0.5955
   57MOL   H53030882   2.248   1.292   1.678 -0.3854 -0.3521  0.7171
   57MOL   H53130883   2.073   1.368   1.559 -0.8117  0.1551 -0.5703
   57MOL   H53230884   2.209   1.350   1.449  2.3185 -0.8447  1.5847
   57MOL   H53330885   2.009   1.118   1.449 -2.0163  0.5682 -1.2753
   57MOL   H53430886   2.113   1.170   1.333 -0.7531 -0.0352 -0.6901
   57MOL   H53530887   2.001   1.349   1.275 -1.2956 -0.2217 -1.2479
   57MOL   H53630888   1.894   1.218   1.271 -0.0288  0.1692 -0.6599
   57MOL   H53730889   1.524   1.221   1.676 -0.4690  0.8353 -0.4232
   57MOL   H53830890   1.598   1.318   1.817  0.9518 -2.1351  1.9873
   57MOL   H53930891   1.671   1.181   1.748 -1.1268 -1.0512  1.1627
   57MOL   H54030892   1.744   1.493   1.777  1.3615 -0.4025  1.7689
   57MOL   H54130893   1.858   1.490   1.653  1.0519 -0.2670 -0.2266
   57MOL   H54230894   1.847   1.345   1.769  0.5881  0.4265 -0.8968
   58MOL     C130895   0.338   4.087   2.144  0.5016  0.4336 -1.0885
   58MOL     C230896   0.389   3.993   2.036  0.3442 -0.3461  0.3765
   58MOL     C330897   0.324   4.009   1.898  0.0722 -0.0491 -0.1333
   58MOL     C430898   0.350   3.891   1.804  0.0639  0.4423 -0.3868
   58MOL     C530899   0.282   3.920   1.673  0.7449  0.2373  0.6602
   58MOL     O630900   0.296   3.811   1.578 -0.1216 -0.2965  0.0135
   58MOL     C730901   0.199   3.724   1.551  0.2620  0.4481  0.2021
   58MOL     O830902   0.087   3.736   1.593 -0.4662  0.0111 -0.0706
   58MOL     C930903   0.244   3.591   1.487 -0.2450 -0.0245  0.1633
   58MOL    C1030904   0.131   3.513   1.408 -0.6710  0.1001  0.0813
   58MOL    C1130905   0.312   3.497   1.589 -0.4377  0.2713 -0.5687
   58MOL    H1230906   0.409   4.081   2.227  0.3792 -3.4415 -1.1517
   58MOL    H1330907   0.241   4.056   2.184  0.9817 -1.8176 -1.6226
   58MOL    H1430908   0.329   4.189   2.108 -1.9620 -0.5275 -3.4041
   58MOL    H1530909   0.497   3.987   2.022  0.0150  0.5145 -2.8252
   58MOL    H1630910   0.378   3.899   2.090 -0.3444 -1.6182 -1.9053
   58MOL    H1730911   0.217   4.015   1.918  0.6314 -0.5330  3.2785
   58MOL    H1830912   0.357   4.104   1.855  0.2976 -0.4476 -0.8462
   58MOL    H1930913   0.322   3.796   1.850  1.3983  0.1269 -0.2200
   58MOL    H2030914   0.453   3.885   1.769  0.2440 -3.2960  0.5505
   58MOL    H2130915   0.177   3.943   1.688  1.0600  2.7691 -0.7023
   58MOL    H2230916   0.342   4.002   1.633  1.2137 -0.5718 -0.3135
   58MOL    H2330917   0.043   3.495   1.471 -1.1520  0.6072 -0.4345
   58MOL    H2430918   0.162   3.415   1.372  0.0643  0.9701 -1.6947
   58MOL    H2530919   0.103   3.569   1.319 -1.8137  0.4008  0.6150
   58MOL    H2630920   0.255   3.404   1.591  0.8989 -0.5473  0.1926
   58MOL    H2730921   0.296   3.547   1.684 -0.3223 -1.8217  0.5824
   58MOL    H2830922   0.321   3.622   1.417  3.0221 -2.5030  2.4797
   58MOL    C2930923   0.697   3.722   2.040  0.5612  0.5467 -0.3039
   58MOL    C3030924   0.670   3.596   1.964 -0.2895  0.0872 -0.3453
   58MOL    C3130925   0.734   3.466   2.003 -0.0816  0.0556 -0.0212
   58MOL    C3230926   0.644   3.346   1.985  0.3863  0.3358  0.6624
   58MOL    C3330927   0.645   3.281   1.847 -0.5594  0.3045  0.4335
   58MOL    O3430928   0.624   3.365   1.731 -0.4019 -0.0143  0.3348
   58MOL    C3530929   0.501   3.390   1.701 -0.3807 -0.4310  0.4479
   58MOL    O3630930   0.407   3.346   1.766  0.5811 -0.1825  0.0748
   58MOL    C3730931   0.466   3.468   1.577  0.1489  0.7035  0.8756
   58MOL    C3830932   0.545   3.597   1.577  0.0290  0.0392 -0.7145
   58MOL    C3930933   0.483   3.394   1.442  0.2507 -0.7011 -0.0137
   58MOL    H4030934   0.629   3.804   2.018 -1.4690 -0.7557  0.8926
   58MOL    H4130935   0.690   3.714   2.149  0.9071 -1.1759 -0.3871
   58MOL    H4230936   0.793   3.762   2.006  0.6633 -0.7705 -1.6241
   58MOL    H4330937   0.703   3.625   1.864 -1.6957  2.1837 -0.2197
   58MOL    H4430938   0.564   3.576   1.953 -0.0840 -0.2715 -1.8852
   58MOL    H4530939   0.768   3.467   2.107  1.7513  2.7862 -0.5831
   58MOL    H4630940   0.831   3.448   1.959  1.0388 -0.5331  2.5819
   58MOL    H4730941   0.666   3.269   2.060  1.1651 -0.2078 -0.1137
   58MOL    H4830942   0.542   3.367   2.017  0.8061  0.0928  2.2270
   58MOL    H4930943   0.576   3.198   1.837  0.9035 -0.6127 -2.9073
   58MOL    H5030944   0.742   3.240   1.819 -1.1929 -0.1886 -1.0989
   58MOL    H5130945   0.522   3.670   1.654  0.6606  1.3045 -1.6868
   58MOL    H5230946   0.533   3.649   1.481 -0.5978  1.4701  0.1248
   58MOL    H5330947   0.653   3.586   1.587  0.0171  0.9769  0.5876
   58MOL    H5430948   0.464   3.469   1.365  0.8550 -0.6160 -0.0856
   58MOL    H5530949   0.397   3.328   1.433 -1.5531  1.3646  1.6285
   58MOL    C5630950   0.406   2.654   1.678  0.1070  0.1587  0.2610
   58MOL    C5730951   0.429   2.692   1.530 -0.6959 -0.4398 -0.3704
   58MOL    C5830952   0.345   2.806   1.474 -0.2997  0.0038  0.4466
   58MOL    C5930953   0.342   2.926   1.564 -0.1597 -0.9507  1.5045
   58MOL    C6030954   0.475   2.999   1.578 -0.4277 -0.0621 -0.0548
   58MOL    O6130955   0.489   3.107   1.479  0.0464  0.3337 -0.3386
   58MOL    C6230956   0.603   3.175   1.485 -0.3640  0.1976 -0.0100
   58MOL    O6330957   0.709   3.143   1.543  0.1512  0.5718  0.0113
   58MOL    C6430958   0.604   3.302   1.400  0.1027 -0.0602 -0.2312
   58MOL    C6530959   0.738   3.385   1.406 -0.1128  0.6239  0.3614
   58MOL    C6630960   0.574   3.259   1.249  0.3412  0.4901 -0.5164
   58MOL    H6730961   0.475   2.703   1.746  2.6018 -1.6639 -0.8843
   58MOL    H6830962   0.425   2.549   1.700  1.5158  0.5226  0.8342
   58MOL    H6930963   0.306   2.669   1.719  1.2903  2.0050  2.5415
   58MOL    H7030964   0.536   2.710   1.520 -0.8082  0.3183 -0.1990
   58MOL    H7130965   0.399   2.595   1.491 -1.4201 -0.6268  0.6096
   58MOL    H7230966   0.382   2.835   1.376 -0.9737  1.5262  0.6284
   58MOL    H7330967   0.248   2.759   1.455  0.5497 -0.8038 -2.1881
   58MOL    H7430968   0.327   2.891   1.666 -2.0029  1.9725  2.3004
   58MOL    H7530969   0.262   2.997   1.542 -0.6046 -1.2964  2.0122
   58MOL    H7630970   0.473   3.048   1.675 -1.9718 -1.6157  0.7196
   58MOL    H7730971   0.567   2.941   1.574  0.9607  2.0814 -0.3626
   58MOL    H7830972   0.738   3.476   1.346 -2.3761  0.1938 -0.3302
   58MOL    H7930973   0.823   3.326   1.371 -0.6056 -1.1186  2.0246
   58MOL    H8030974   0.767   3.425   1.503  2.4271 -1.1500  0.4026
   58MOL    H8130975   0.569   3.348   1.187 -0.5714  1.6389  1.1613
   58MOL    H8230976   0.473   3.217   1.249  1.2768 -1.8581  0.4256
   58MOL    C8330977   0.902   3.806   0.635 -0.0780 -0.7074 -0.3370
   58MOL    C8430978   0.820   3.715   0.731  0.2357  0.0008  0.6558
   58MOL    C8530979   0.899   3.612   0.815 -0.0185  0.5818 -0.0387
   58MOL    C8630980   0.820   3.548   0.931  0.5662  0.2535 -0.6387
   58MOL    C8730981   0.889   3.428   0.994 -0.1522  0.2133  0.0435
   58MOL    O8830982   0.783   3.355   1.057  0.3089  0.4207 -0.1453
   58MOL    C8930983   0.808   3.243   1.125 -0.1778  0.8145 -0.4310
   58MOL    O9030984   0.921   3.208   1.157 -0.0102 -0.1031  0.1378
   58MOL    C9130985   0.680   3.164   1.164 -0.5575 -0.5576 -0.6647
   58MOL    C9230986   0.702   3.025   1.233  0.1964  0.3300 -0.0275
   58MOL    C9330987   0.604   3.135   1.025  0.1620 -0.0739 -0.5854
   58MOL    H9430988   0.957   3.739   0.568  0.0882  0.0543 -0.9674
   58MOL    H9530989   0.844   3.868   0.567  0.9666  1.7546  0.9701
   58MOL    H9630990   0.976   3.876   0.675  0.7958  0.7414 -4.2299
   58MOL    H9730991   0.754   3.658   0.665 -0.8144  2.8736 -0.8547
   58MOL    H9830992   0.745   3.771   0.787  0.4469  1.3502 -0.3949
   58MOL    H9930993   0.999   3.646   0.841  0.2484  1.1830 -1.8390
   58MOL   H10030994   0.920   3.531   0.744 -0.0378  1.5110 -1.1081
   58MOL   H10130995   0.715   3.531   0.906 -0.5228  2.9280  1.7668
   58MOL   H10230996   0.807   3.630   1.003  0.2493 -1.2161  1.0148
   58MOL   H10330997   0.973   3.449   1.060 -0.4174  0.2314  0.3761
   58MOL   H10430998   0.931   3.369   0.913  0.4389  1.9973 -0.9730
   58MOL   H10530999   0.622   2.953   1.247 -0.0726  0.1457 -2.3451
   58MOL   H10631000   0.767   3.038   1.320  0.6800 -1.0910 -0.1559
   58MOL   H10731001   0.772   2.966   1.173 -0.6775 -1.4463  0.6675
   58MOL   H10831002   0.504   3.097   1.046  0.2280 -0.4001 -0.8519
   58MOL   H10931003   0.581   3.230   0.978 -1.9766 -0.0092  0.5147
   58MOL   C11031004   0.865   2.193   0.774 -1.0950 -0.4555  0.5759
   58MOL   C11131005   0.878   2.349   0.761 -1.0803  0.2738 -0.0018
   58MOL   C11231006   0.761   2.431   0.830  0.0547 -0.1586 -0.4279
   58MOL   C11331007   0.772   2.583   0.814  0.5494  0.1248  0.2973
   58MOL   C11431008   0.653   2.658   0.875 -0.2332 -0.0801  0.0500
   58MOL   O11531009   0.688   2.798   0.887  0.0944 -0.4059  0.4263
   58MOL   C11631010   0.615   2.883   0.947 -0.2955 -0.2363  0.1692
   58MOL   O11731011   0.521   2.851   1.017 -0.2185 -0.1997 -0.3562
   58MOL   C11831012   0.659   3.032   0.918  0.4950  0.0197 -0.4957
   58MOL   C11931013   0.814   3.042   0.888  0.5737  0.0567 -0.1314
   58MOL   C12031014   0.605   3.091   0.780 -0.0637 -0.8345  0.3759
   58MOL   H12131015   0.854   2.137   0.866 -2.3940 -0.0001  0.7159
   58MOL   H12231016   0.778   2.175   0.711  0.4925 -0.5060 -1.6903
   58MOL   H12331017   0.951   2.154   0.719 -1.2269  3.1812 -2.4557
   58MOL   H12431018   0.975   2.379   0.801  0.3398 -2.3762 -1.3322
   58MOL   H12531019   0.884   2.379   0.657 -2.8458  0.9092  0.0630
   58MOL   H12631020   0.664   2.409   0.786 -0.7411  0.7760  0.8337
   58MOL   H12731021   0.757   2.414   0.938 -0.8388 -0.4961 -0.5088
   58MOL   H12831022   0.783   2.609   0.709  0.5446  0.9719  0.5053
   58MOL   H12931023   0.861   2.625   0.859 -0.5732  0.5672  2.1733
   58MOL   H13031024   0.568   2.648   0.808 -1.5495  0.1258  1.6647
   58MOL   H13131025   0.625   2.618   0.972 -1.3252 -1.1226 -0.6832
   58MOL   H13231026   0.851   2.983   0.804 -0.7035 -1.1104  0.0985
   58MOL   H13331027   0.842   3.145   0.864 -0.0339 -0.0780 -1.4646
   58MOL   H13431028   0.872   3.017   0.977 -1.0307  0.9331  1.1886
   58MOL   H13531029   0.646   3.190   0.761 -0.2404 -0.8062  0.1435
   58MOL   H13631030   0.642   3.023   0.703 -0.8956 -0.4147 -0.4005
   58MOL   C13731031   0.784   3.569   0.100  0.1254 -0.6444 -0.5640
   58MOL   C13831032   0.771   3.520   0.239  0.5180 -0.1441 -0.1769
   58MOL   C13931033   0.667   3.403   0.258  0.2785  0.0039  0.5507
   58MOL   C14031034   0.633   3.373   0.400  0.1132 -0.0274  0.2206
   58MOL   C14131035   0.522   3.264   0.412 -0.6576 -0.8628 -0.0035
   58MOL   O14231036   0.506   3.236   0.552 -0.0456 -0.1576 -0.3579
   58MOL   C14331037   0.451   3.117   0.594  0.4241  0.0794 -0.7475
   58MOL   O14431038   0.402   3.032   0.515  0.2323 -0.0769 -0.1435
   58MOL   C14531039   0.454   3.099   0.747 -0.0985  0.2249 -0.2698
   58MOL   C14631040   0.384   2.957   0.761 -0.3719 -0.4175 -0.0958
   58MOL   C14731041   0.375   3.210   0.828 -0.5197 -0.1824 -0.9174
   58MOL   H14831042   0.885   3.561   0.060  0.6444  1.3545  0.2833
   58MOL   H14931043   0.751   3.669   0.070 -0.0765 -0.4873  0.1710
   58MOL   H15031044   0.722   3.498   0.046 -0.2723  0.1149 -1.1264
   58MOL   H15131045   0.731   3.609   0.287  1.7096  1.0766 -1.4094
   58MOL   H15231046   0.869   3.503   0.284 -0.2751  0.2385  1.7323
   58MOL   H15331047   0.574   3.421   0.205  0.0958 -0.3665  0.7459
   58MOL   H15431048   0.712   3.312   0.217 -0.8416 -1.1516  1.8290
   58MOL   H15531049   0.727   3.344   0.447  0.4063 -0.4508 -0.6355
   58MOL   H15631050   0.600   3.466   0.447 -0.9832  1.0040 -2.5259
   58MOL   H15731051   0.545   3.178   0.349 -0.1359  0.5642 -1.8119
   58MOL   H15831052   0.425   3.305   0.381 -0.1992  1.1222  1.0793
   58MOL   H15931053   0.365   2.944   0.867 -1.3126 -1.6074 -0.3949
   58MOL   H16031054   0.440   2.875   0.715 -0.3229  0.3276 -1.3855
   58MOL   H16131055   0.283   2.949   0.721 -0.1455 -0.9793 -0.5688
   58MOL   H16231056   0.361   3.193   0.935 -1.6811 -0.5014 -1.1136
   58MOL   H16331057   0.437   3.300   0.824 -0.1368 -0.4089 -0.1311
   58MOL   C16431058   7.665   2.836   1.186  0.4119 -0.1206 -0.8403
   58MOL   C16531059   7.773   2.895   1.285 -0.7233 -0.1612 -0.3480
   58MOL   C16631060   0.077   2.955   1.224 -0.1832  0.3550  0.1895
   58MOL   C16731061   0.141   2.886   1.092 -0.1993  1.0625 -0.1174
   58MOL   C16831062   0.105   2.952   0.955 -0.0147  0.1774  0.5694
   58MOL   O16931063   0.158   3.082   0.943  0.2399  0.5428 -0.0653
   58MOL   C17031064   0.131   3.145   0.830 -0.0523  1.2668  0.6064
   58MOL   O17131065   0.044   3.101   0.756 -0.0208 -0.1491 -0.6249
   58MOL   C17231066   0.227   3.258   0.799  0.0442  0.3130  0.0342
   58MOL   C17331067   0.208   3.296   0.651 -0.6334  0.1180  0.4513
   58MOL   C17431068   0.202   3.384   0.896 -0.4619  0.5690 -0.4754
   58MOL   H17531069   7.568   2.825   1.236  0.3459 -0.2307 -0.9908
   58MOL   H17631070   7.693   2.740   1.144 -0.5418 -0.8640  0.1690
   58MOL   H17731071   7.639   2.899   1.101 -0.2355 -1.1609 -1.4342
   58MOL   H17831072   7.803   2.814   1.352  1.4840  0.3148 -0.7284
   58MOL   H17931073   7.728   2.971   1.349 -5.2912 -0.6293 -2.8255
   58MOL   H18031074   0.051   3.057   1.193 -0.9118  0.5973  1.5478
   58MOL   H18131075   0.148   2.967   1.306  0.4368  0.8768 -0.4141
   58MOL   H18231076   0.115   2.780   1.094  0.8415  0.8098  0.5256
   58MOL   H18331077   0.250   2.888   1.091 -0.2186  1.8455 -0.4877
   58MOL   H18431078   7.813   2.928   0.945  0.3181 -1.9139  1.7156
   58MOL   H18531079   0.154   2.890   0.880 -0.1950  0.1588  0.4646
   58MOL   H18631080   0.111   3.346   0.642 -0.9347 -0.1272  2.0326
   58MOL   H18731081   0.205   3.212   0.583 -1.9194  0.9298 -0.5314
   58MOL   H18831082   0.280   3.367   0.611 -2.6236  1.1920 -1.3168
   58MOL   H18931083   0.179   3.332   0.989 -2.8947  0.7630 -0.9365
   58MOL   H19031084   0.297   3.429   0.927  0.0443 -0.0338 -1.1309
   58MOL   C19131085   0.500   3.802   0.250  0.2569 -0.2250 -0.3207
   58MOL   C19231086   0.436   3.721   0.360 -0.7072 -0.5276  0.4378
   58MOL   C19331087   0.470   3.794   0.487 -0.1512  0.0809  0.3311
   58MOL   C19431088   0.435   3.724   0.613 -0.1341 -0.2350  0.9581
   58MOL   C19531089   0.286   3.687   0.622 -0.0894  0.1841  0.5851
   58MOL   O19631090   0.251   3.619   0.747 -0.9220 -0.2846  0.0673
   58MOL   C19731091   0.129   3.569   0.747  0.3652  0.2717 -0.3474
   58MOL   O19831092   0.047   3.581   0.655  0.4655  0.5538  0.0858
   58MOL   C19931093   0.094   3.492   0.878  0.5623  0.1005 -0.1676
   58MOL   C20031094   0.119   3.599   0.990 -0.1765  0.2289 -0.9513
   58MOL   C20131095   7.755   3.444   0.880  0.0492 -0.1250 -0.3825
   58MOL   H20231096   0.434   3.878   0.207  0.4444  0.8049  1.1832
   58MOL   H20331097   0.597   3.847   0.268  0.8165 -1.0561 -1.2683
   58MOL   H20431098   0.522   3.736   0.166 -0.6944  2.1819 -2.5595
   58MOL   H20531099   0.474   3.620   0.366  0.5129  0.0355  2.9998
   58MOL   H20631100   0.328   3.714   0.342 -0.6780  0.1336 -0.0172
   58MOL   H20731101   0.404   3.881   0.489  0.9532  0.9102  0.8511
   58MOL   H20831102   0.570   3.836   0.500 -0.3809  0.6076  0.4278
   58MOL   H20931103   0.499   3.639   0.635  1.5098  0.4372 -0.9909
   58MOL   H21031104   0.461   3.791   0.695 -1.4967 -0.0916  1.2825
   58MOL   H21131105   0.230   3.780   0.611 -2.6502 -0.9347  3.2821
   58MOL   H21231106   0.264   3.631   0.532  2.9437  1.7919 -1.2200
   58MOL   H21331107   0.041   3.676   0.994 -2.5279 -2.1361 -0.1090
   58MOL   H21431108   0.209   3.660   0.987 -0.1350  0.1248 -2.4525
   58MOL   H21531109   0.113   3.568   1.094 -0.0452  4.7630  0.5544
   58MOL   H21631110   7.750   3.349   0.827  3.1722 -0.3083 -0.4274
   58MOL   H21731111   7.697   3.508   0.815  0.5658 -0.0612 -0.7848
   58MOL   C21831112   7.606   4.077   0.720  0.1504 -0.5941  0.5239
   58MOL   C21931113   7.689   3.977   0.794  0.7349 -0.3930  0.1022
   58MOL   C22031114   7.598   3.864   0.850 -0.3139  0.2335  0.3411
   58MOL   C22131115   7.587   3.856   1.005  0.8355 -0.2703 -0.3057
   58MOL   C22231116   7.494   3.747   1.054  0.5261  0.4769 -0.0670
   58MOL   O22331117   7.552   3.635   0.996  0.4922 -0.7372 -0.2145
   58MOL   C22431118   7.634   3.561   1.077 -0.5647  0.6910  0.8145
   58MOL   O22531119   7.687   3.595   1.187 -0.2605 -0.1741  0.0494
   58MOL   C22631120   7.669   3.422   1.014 -0.1029  0.3257 -0.2662
   58MOL   C22731121   7.748   3.333   1.108 -0.2897 -0.3054 -0.9968
   58MOL   C22831122   7.533   3.348   0.981 -0.1518 -0.2708 -0.4391
   58MOL   H22931123   7.573   4.048   0.620 -0.2594  0.6673  0.2827
   58MOL   H23031124   7.509   4.091   0.767 -0.9369 -2.1126 -1.1768
   58MOL   H23131125   7.652   4.175   0.707 -1.3159 -0.1173 -1.3669
   58MOL   H23231126   7.751   4.024   0.871 -0.0016  0.9886 -0.1446
   58MOL   H23331127   7.754   3.923   0.726 -1.5517 -1.3889 -1.3403
   58MOL   H23431128   7.647   3.771   0.821  0.0509  0.3648  0.5255
   58MOL   H23531129   7.504   3.855   0.797  0.1171  1.0059 -0.5660
   58MOL   H23631130   7.682   3.841   1.055  1.5918  0.3872 -1.5312
   58MOL   H23731131   7.547   3.954   1.032  0.0916 -0.6184 -0.1276
   58MOL   H23831132   7.395   3.750   1.009  0.9224 -1.0899 -1.0520
   58MOL   H23931133   7.478   3.733   1.161 -0.0691 -0.0558 -0.2274
   58MOL   H24031134   7.774   3.235   1.067 -0.7990 -0.5181 -0.8067
   58MOL   H24131135   7.706   3.322   1.208 -0.9969  0.9684 -1.1395
   58MOL   H24231136   0.027   3.386   1.130  0.3444 -1.2649 -1.3047
   58MOL   H24331137   7.554   3.277   0.902  0.7905  0.1428 -0.5634
   58MOL   H24431138   7.469   3.415   0.924  1.9963  0.9913 -1.4086
   58MOL   C24531139   0.030   3.157   1.586  0.8045  0.8636  0.5184
   58MOL   C24631140   7.720   3.233   1.630 -0.0446  0.7067  0.1990
   58MOL   C24731141   7.628   3.252   1.513  0.7313  0.8675  0.0882
   58MOL   C24831142   7.491   3.305   1.550  0.6482 -0.3601  0.2751
   58MOL   C24931143   7.413   3.386   1.445  0.3751  0.3292 -0.3228
   58MOL   O25031144   7.431   3.311   1.323 -0.7303 -0.7544  0.0698
   58MOL   C25131145   7.405   3.372   1.209  0.2446 -0.3129  0.4451
   58MOL   O25231146   7.369   3.492   1.194  0.0172 -0.0148 -0.3080
   58MOL   C25331147   7.424   3.281   1.084 -0.2012 -0.5764 -0.7372
   58MOL   C25431148   7.484   3.137   1.121  0.0273 -0.9434  0.0876
   58MOL   C25531149   7.285   3.266   1.009  0.3512 -0.0309 -0.1395
   58MOL   H25631150   0.087   3.132   1.675 -0.6566  3.1794  2.1678
   58MOL   H25731151   0.015   3.066   1.528 -2.5349  0.8256  1.3182
   58MOL   H25831152   0.081   3.218   1.512 -0.6554  0.4514 -0.8736
   58MOL   H25931153   7.666   3.176   1.705  0.4500  0.3579  0.2903
   58MOL   H26031154   7.740   3.322   1.689 -1.0324  0.5660  0.7675
   58MOL   H26131155   7.618   3.156   1.463  0.2429  0.0188  1.7500
   58MOL   H26231156   7.676   3.333   1.459  2.6780  0.6389  1.4236
   58MOL   H26331157   7.429   3.218   1.570  0.7042 -0.6848 -0.9210
   58MOL   H26431158   7.486   3.349   1.650 -0.9170 -1.1376  0.5531
   58MOL   H26531159   7.307   3.395   1.468  0.3488 -0.9917  0.0943
   58MOL   H26631160   7.457   3.486   1.434 -0.5608  0.8982  0.9798
   58MOL   H26731161   7.467   3.070   1.036 -1.0115 -0.4133 -0.1265
   58MOL   H26831162   7.590   3.125   1.145  0.3995  0.4525 -0.7717
   58MOL   H26931163   7.427   3.093   1.203 -0.6238  1.3537  0.8910
   58MOL   H27031164   7.256   3.364   0.971  1.1468 -0.4377 -1.8274
   58MOL   H27131165   7.296   3.210   0.916  1.9470  0.0177 -0.0020
   58MOL   C27231166   6.841   2.814   0.567 -0.2769  0.1608 -0.1554
   58MOL   C27331167   6.992   2.806   0.595  0.0671  0.1679 -0.0433
   58MOL   C27431168   7.019   2.848   0.744 -0.6013  0.7041  0.3969
   58MOL   C27531169   7.164   2.817   0.792  0.1248 -0.2195  0.0614
   58MOL   C27631170   7.200   2.848   0.938 -0.1517  0.0563 -0.3254
   58MOL   O27731171   7.199   2.987   0.945 -0.6672 -0.0446  0.1596
   58MOL   C27831172   7.178   3.040   1.073 -0.5575  0.0110 -0.2615
   58MOL   O27931173   7.170   2.972   1.179  0.4328  0.4924  0.3860
   58MOL   C28031174   7.155   3.193   1.076 -0.0749 -0.3317 -0.1911
   58MOL   C28131175   7.117   3.228   1.223 -0.8083  0.3913 -0.0123
   58MOL   C28231176   7.024   3.221   0.983 -0.1769  0.1458  0.0443
   58MOL   H28331177   6.816   2.795   0.462  1.4205 -2.1260 -0.1789
   58MOL   H28431178   6.795   2.728   0.616  1.0830 -1.6120 -1.9251
   58MOL   H28531179   6.801   2.908   0.606  1.0838  0.4247  0.6528
   58MOL   H28631180   7.028   2.705   0.577  1.3390  1.1723 -3.6647
   58MOL   H28731181   7.035   2.880   0.527  0.4701 -1.7140 -1.9105
   58MOL   H28831182   7.017   2.957   0.748 -0.4277  0.7458 -0.5437
   58MOL   H28931183   6.937   2.817   0.809  0.2477 -1.4810  0.4660
   58MOL   H29031184   7.192   2.713   0.774  1.1543 -0.0094  0.4413
   58MOL   H29131185   7.239   2.866   0.731  0.1878  1.3885  1.3946
   58MOL   H29231186   7.297   2.802   0.957 -0.4170 -0.5929 -0.4946
   58MOL   H29331187   7.130   2.807   1.012  1.0659  0.0829  0.8589
   58MOL   H29431188   7.103   3.336   1.232 -2.6331  0.1471  0.3363
   58MOL   H29531189   7.026   3.180   1.258  0.7331 -2.1279  0.6848
   58MOL   H29631190   7.193   3.194   1.293  0.5579  0.0144 -1.6300
   58MOL   H29731191   7.058   3.205   0.880 -1.3392 -0.4844 -0.2517
   58MOL   H29831192   6.950   3.141   0.991 -0.8953  0.7888 -0.1129
   58MOL   C29931193   7.560   3.644   0.530  0.1875  0.0666  0.3231
   58MOL   C30031194   7.449   3.557   0.588 -0.0636  0.1705  0.0398
   58MOL   C30131195   7.353   3.623   0.680 -0.1390 -0.5148  0.3252
   58MOL   C30231196   7.242   3.536   0.715  0.2040  0.4347  0.6413
   58MOL   C30331197   7.172   3.586   0.841 -0.9156 -0.0302  0.2816
   58MOL   O30431198   7.071   3.496   0.861 -0.5866 -0.2955  0.3111
   58MOL   C30531199   7.016   3.478   0.979 -0.0886  0.2616 -0.1175
   58MOL   O30631200   7.046   3.550   1.077 -0.1154  0.0057 -0.2343
   58MOL   C30731201   6.931   3.344   0.988  0.2015 -1.0461  0.2034
   58MOL   C30831202   6.844   3.343   0.860 -0.2323 -0.5933  0.2462
   58MOL   C30931203   6.842   3.331   1.118  0.5848  0.3159  0.1693
   58MOL   H31031204   7.521   3.712   0.454 -2.6314 -2.2425 -0.3917
   58MOL   H31131205   7.632   3.582   0.476  1.4394  0.1941  1.7980
   58MOL   H31231206   7.619   3.690   0.609  0.0615  2.7356 -1.1024
   58MOL   H31331207   7.493   3.475   0.646 -0.4862 -0.0718  0.0149
   58MOL   H31431208   7.401   3.524   0.496  0.5498  1.0195 -0.5892
   58MOL   H31531209   7.316   3.708   0.622  2.5858 -1.0598 -2.3780
   58MOL   H31631210   7.401   3.669   0.766  0.1205 -0.9415  0.4100
   58MOL   H31731211   7.288   3.437   0.724  0.1221  0.4150  0.8278
   58MOL   H31831212   7.179   3.521   0.627 -0.2205  2.0626  0.6688
   58MOL   H31931213   7.245   3.586   0.922 -0.4878 -3.9058 -0.0288
   58MOL   H32031214   7.127   3.684   0.825 -1.7273 -0.5434 -0.5599
   58MOL   H32131215   6.768   3.421   0.854  0.9655  0.6479  0.7425
   58MOL   H32231216   6.902   3.332   0.768  1.5771 -0.3980  1.3331
   58MOL   H32331217   6.787   3.251   0.859  0.7239 -1.2164  1.4647
   58MOL   H32431218   6.894   3.345   1.213  0.3233 -1.1397  0.5453
   58MOL   H32531219   6.837   3.223   1.132  1.7286  0.1033 -1.0000
   58MOL   C32631220   7.120   3.204   1.599  0.6226 -0.6798  0.1148
   58MOL   C32731221   7.009   3.115   1.553 -0.4889  0.3230 -0.1757
   58MOL   C32831222   6.873   3.181   1.531  0.1156  0.3336 -0.0573
   58MOL   C32931223   6.763   3.084   1.476  0.1082  0.5975 -0.4821
   58MOL   C33031224   6.639   3.158   1.439 -0.5134 -0.4683 -0.3793
   58MOL   O33131225   6.648   3.209   1.307  0.3492  0.5924 -0.5354
   58MOL   C33231226   6.661   3.348   1.291  0.3607 -0.1004 -0.1921
   58MOL   O33331227   6.647   3.438   1.386 -0.0673  0.0227 -0.0513
   58MOL   C33431228   6.693   3.387   1.141 -0.9606  0.0175  0.1503
   58MOL   C33531229   6.711   3.541   1.134  0.7888  0.4625 -0.8220
   58MOL   C33631230   6.578   3.323   1.051 -0.2477 -0.0742 -0.0205
   58MOL   H33731231   7.142   3.286   1.530 -0.0669 -0.9306 -0.4103
   58MOL   H33831232   7.207   3.141   1.619  0.1826 -0.7731  1.8090
   58MOL   H33931233   7.084   3.251   1.690 -0.3940  1.5576 -1.3990
   58MOL   H34031234   6.992   3.044   1.633 -0.5410 -0.9146 -1.2660
   58MOL   H34131235   7.035   3.059   1.463  1.0692 -0.3252  0.6529
   58MOL   H34231236   6.893   3.259   1.458  0.5895 -0.6077 -0.9493
   58MOL   H34331237   6.833   3.222   1.624 -0.5972 -1.0463  0.2574
   58MOL   H34431238   6.741   3.009   1.552  0.5479  2.7420  1.8436
   58MOL   H34531239   6.793   3.024   1.390 -1.0259 -2.0072  0.8653
   58MOL   H34631240   6.612   3.231   1.516 -0.8260 -1.1156  0.1253
   58MOL   H34731241   6.556   3.088   1.440 -0.1634 -0.8879  0.9607
   58MOL   H34831242   6.812   3.579   1.143  1.4550 -0.2914 -4.1206
   58MOL   H34931243   6.649   3.592   1.207 -0.4045 -0.9113 -0.8374
   58MOL   H35031244   6.685   3.580   1.035  1.5403  0.8485 -0.8640
   58MOL   H35131245   6.592   3.216   1.069  1.4246 -0.0263 -0.9440
   58MOL   H35231246   6.584   3.349   0.945  0.7040 -0.5542 -0.0911
   58MOL   C35331247   5.973   4.068   1.166  0.5689  0.1164 -0.8970
   58MOL   C35431248   6.017   3.918   1.165 -0.6234 -0.4173 -0.2471
   58MOL   C35531249   6.152   3.872   1.217 -0.6455 -0.2366 -0.2692
   58MOL   C35631250   6.193   3.731   1.165 -0.1710  0.0298  0.1132
   58MOL   C35731251   6.333   3.686   1.218  0.0958 -0.0550  0.2313
   58MOL   O35831252   6.353   3.546   1.198 -0.7201 -0.3140 -0.8342
   58MOL   C35931253   6.394   3.500   1.075 -0.5386  0.1219 -0.3941
   58MOL   O36031254   6.411   3.570   0.973  0.4945 -0.0161  0.1617
   58MOL   C36131255   6.419   3.346   1.072  0.0896  0.2708  0.6550
   58MOL   C36231256   6.357   3.274   1.192 -0.0584  0.3387 -0.2889
   58MOL   C36331257   6.361   3.288   0.939  0.2173 -0.2026  0.1933
   58MOL   H36431258   5.958   4.124   1.259 -2.8716  2.3375 -2.6947
   58MOL   H36531259   5.888   4.087   1.100  1.7901  1.2526 -2.1768
   58MOL   H36631260   6.060   4.126   1.136  0.8992 -0.4385 -1.0099
   58MOL   H36731261   5.937   3.854   1.202 -0.1995 -0.7363  0.1258
   58MOL   H36831262   6.012   3.899   1.058  2.0329  1.8189 -0.8149
   58MOL   H36931263   6.163   3.870   1.325 -0.0497 -0.3026 -0.3290
   58MOL   H37031264   6.234   3.934   1.181 -0.9091  1.1483  1.4731
   58MOL   H37131265   6.199   3.737   1.056 -0.0844  0.1029  0.1223
   58MOL   H37231266   6.111   3.662   1.186 -2.4401  1.7389 -2.7981
   58MOL   H37331267   6.421   3.742   1.185 -0.7468  1.6919  0.8889
   58MOL   H37431268   6.335   3.697   1.327  0.3651  0.7175  0.1512
   58MOL   H37531269   6.387   3.170   1.196 -1.4737 -0.0190  2.4443
   58MOL   H37631270   6.380   3.321   1.288  0.6775  1.9858 -1.2527
   58MOL   H37731271   6.249   3.287   1.197 -0.0905  0.1342 -0.4602
   58MOL   H37831272   6.402   3.333   0.849 -2.2443 -1.7748 -1.7780
   58MOL   H37931273   6.406   3.188   0.938 -2.1687 -1.3169  0.6959
   58MOL   C38031274   5.507   3.270   1.099  0.0870  0.4570  0.6654
   58MOL   C38131275   5.568   3.139   1.055 -0.0922  1.2746  0.5123
   58MOL   C38231276   5.723   3.145   1.043  0.2888  1.1241  0.4745
   58MOL   C38331277   5.783   3.009   1.017 -0.2501 -0.1311  0.2463
   58MOL   C38431278   5.939   3.010   1.027  0.8461 -0.1222  0.3672
   58MOL   O38531279   6.007   3.128   0.977  0.1660  0.5066  0.4087
   58MOL   C38631280   6.144   3.129   0.982 -0.0828  0.0440 -0.0412
   58MOL   O38731281   6.217   3.047   1.033 -0.2707  0.0620 -0.0019
   58MOL   C38831282   6.205   3.257   0.909 -0.2228  0.5891 -0.1722
   58MOL   C38931283   6.117   3.383   0.942  0.4619 -0.2980 -0.2291
   58MOL   C39031284   6.173   3.238   0.761 -0.2761  0.2057 -0.3583
   58MOL   H39131285   5.514   3.348   1.023  2.4648  0.5355  0.9307
   58MOL   H39231286   5.398   3.267   1.108 -0.1484  1.3860 -1.7141
   58MOL   H39331287   5.555   3.308   1.189  0.3714  0.5618  0.4690
   58MOL   H39431288   5.528   3.107   0.959 -1.3358  1.4859  0.9520
   58MOL   H39531289   5.542   3.062   1.128 -1.4372 -0.0534 -1.3236
   58MOL   H39631290   5.749   3.220   0.968  0.9647 -0.3466 -0.7989
   58MOL   H39731291   5.761   3.179   1.139  2.5459 -0.4133  0.1533
   58MOL   H39831292   5.737   2.935   1.082 -0.0294 -1.8538 -1.5031
   58MOL   H39931293   5.758   2.981   0.915 -1.1324  0.2387  0.3603
   58MOL   H40031294   5.978   2.928   0.966  0.8393  0.2206 -0.1036
   58MOL   H40131295   5.964   2.999   1.132  0.1331  0.1565  0.5651
   58MOL   H40231296   6.023   3.388   0.888  0.2873  1.0400  0.1964
   58MOL   H40331297   6.169   3.473   0.909 -0.4251  0.4676  0.4439
   58MOL   H40431298   6.102   3.389   1.050 -0.4012 -2.2881 -0.2130
   58MOL   H40531299   6.218   3.323   0.709  0.0852  0.6583  0.6857
   58MOL   H40631300   6.068   3.246   0.733 -1.1458  0.1569  2.7248
   58MOL   C40731301   6.682   3.336   0.259  0.5487  0.1497 -0.3475
   58MOL   C40831302   6.760   3.297   0.384 -0.1140  0.8274  0.5706
   58MOL   C40931303   6.674   3.189   0.461  0.1324  0.2171  0.0535
   58MOL   C41031304   6.690   3.199   0.613  0.5246 -0.1129 -0.3372
   58MOL   C41131305   6.589   3.105   0.688 -0.4119  0.1902 -0.1331
   58MOL   O41231306   6.452   3.138   0.670 -0.4749  0.4764  0.2455
   58MOL   C41331307   6.358   3.063   0.714 -0.3576 -0.5209  0.1505
   58MOL   O41431308   6.373   2.955   0.779 -0.1439 -0.0891 -0.2551
   58MOL   C41531309   6.214   3.108   0.673  0.0960 -0.7372  0.0339
   58MOL   C41631310   6.113   2.994   0.697 -0.0824  0.1353  0.3834
   58MOL   C41731311   6.207   3.153   0.518 -0.1565 -0.4360 -0.6991
   58MOL   H41831312   6.647   3.249   0.204  0.9215  0.3545 -0.9247
   58MOL   H41931313   6.603   3.406   0.284 -0.2732 -1.1075  0.6175
   58MOL   H42031314   6.748   3.401   0.200  0.2646 -0.4499 -1.3486
   58MOL   H42131315   6.799   3.384   0.438  1.2398  0.5203  0.1168
   58MOL   H42231316   6.848   3.245   0.345  0.5047  1.9788  0.3973
   58MOL   H42331317   6.569   3.202   0.434  0.3645 -0.4630 -1.2422
   58MOL   H42431318   6.691   3.085   0.431  2.0589  0.4689  0.2139
   58MOL   H42531319   6.686   3.301   0.651  0.4135  0.6200 -2.2692
   58MOL   H42631320   6.792   3.172   0.641  0.5434  0.9281  0.5991
   58MOL   H42731321   6.609   3.003   0.654 -2.7293  0.6773 -3.2036
   58MOL   H42831322   6.600   3.102   0.796 -0.1978 -1.4583 -0.1833
   58MOL   H42931323   6.016   3.029   0.662  0.2788 -0.0998 -0.8821
   58MOL   H43031324   6.113   2.952   0.797  0.7194 -0.0985  0.2882
   58MOL   H43131325   6.121   2.913   0.625 -0.3266  0.2552  0.2216
   58MOL   H43231326   6.268   3.243   0.510 -0.2354 -0.2715  0.3808
   58MOL   H43331327   6.107   3.194   0.500  0.7060  0.8739 -2.7235
   58MOL   C43431328   6.274   2.374   0.249 -0.6120 -0.5581  0.5054
   58MOL   C43531329   6.165   2.478   0.271  0.1328  0.5755 -0.7667
   58MOL   C43631330   6.164   2.591   0.166  0.2410 -0.4973  0.6028
   58MOL   C43731331   6.039   2.682   0.157  0.2050 -0.4701  0.0663
   58MOL   C43831332   6.012   2.756   0.287 -0.4790  0.7776  0.1514
   58MOL   O43931333   6.120   2.846   0.317  0.1143  0.4686 -0.5532
   58MOL   C44031334   6.097   2.957   0.377  0.3177 -0.2194 -0.1782
   58MOL   O44131335   5.985   2.985   0.425 -0.4840  0.3876  0.1894
   58MOL   C44231336   6.222   3.055   0.396 -0.6281 -0.1311  0.4033
   58MOL   C44331337   6.349   2.961   0.407  0.4079 -0.1141 -0.0956
   58MOL   C44431338   6.243   3.129   0.252  0.2477 -0.1784 -0.2224
   58MOL   H44531339   6.238   2.301   0.177 -0.0102  0.9764 -1.3931
   58MOL   H44631340   6.367   2.413   0.209  0.8813 -3.2203  1.3076
   58MOL   H44731341   6.296   2.300   0.326 -0.3291 -1.5447 -0.5108
   58MOL   H44831342   6.068   2.430   0.263  1.1612 -1.6951 -0.1500
   58MOL   H44931343   6.177   2.518   0.371 -1.0288  1.0611 -0.8158
   58MOL   H45031344   6.241   2.651   0.214  0.4812 -0.2237 -0.1272
   58MOL   H45131345   6.209   2.567   0.070 -3.6084  0.4883 -1.5530
   58MOL   H45231346   5.951   2.619   0.146 -2.0507  2.1853  2.2122
   58MOL   H45331347   6.045   2.755   0.075 -0.4482 -1.0262 -0.4737
   58MOL   H45431348   6.007   2.691   0.374 -1.0403 -0.7808 -1.0145
   58MOL   H45531349   5.913   2.798   0.277 -0.4578  0.8990  0.4572
   58MOL   H45631350   6.334   2.897   0.493  0.9825  0.9792  0.8408
   58MOL   H45731351   6.362   2.907   0.314 -0.4035 -0.2105 -0.1562
   58MOL   H45831352   6.444   3.015   0.413  0.3289  0.2717 -2.0534
   58MOL   H45931353   6.245   3.051   0.176 -0.2342  0.8590 -1.3047
   58MOL   H46031354   6.346   3.162   0.256  0.0641  0.2925  1.0474
   58MOL   C46131355   6.145   4.112   0.137  0.0663 -0.6938 -0.0125
   58MOL   C46231356   6.079   3.977   0.168  0.1218  0.0141 -0.2330
   58MOL   C46331357   6.176   3.868   0.222 -0.4693 -0.3341 -0.4489
   58MOL   C46431358   6.107   3.726   0.205 -0.4431  0.3907  0.2188
   58MOL   C46531359   6.199   3.627   0.262 -0.1810 -0.5390 -0.3198
   58MOL   O46631360   6.143   3.493   0.240  0.3345 -0.3471 -0.4712
   58MOL   C46731361   6.221   3.384   0.261  0.7867 -0.6062  0.1527
   58MOL   O46831362   6.331   3.386   0.313  0.2831 -0.4755  0.6647
   58MOL   C46931363   6.162   3.255   0.193  0.4305 -0.0820 -0.2191
   58MOL   C47031364   6.007   3.240   0.226  0.5315  0.0301  0.3052
   58MOL   C47131365   6.187   3.256   0.040  0.5001 -0.1755 -0.3544
   58MOL   H47231366   6.203   4.147   0.223 -0.8038 -0.4796  0.4896
   58MOL   H47331367   6.077   4.194   0.113  0.4352 -0.1390  0.7912
   58MOL   H47431368   6.221   4.098   0.060  1.4921  0.0265  1.2247
   58MOL   H47531369   6.042   3.928   0.078 -0.9206  0.3207  0.0247
   58MOL   H47631370   5.989   3.999   0.225  0.4598  1.6253 -0.2954
   58MOL   H47731371   6.212   3.879   0.324  0.7719  1.6106 -1.0780
   58MOL   H47831372   6.272   3.865   0.171 -1.0758  2.4246 -1.8870
   58MOL   H47931373   6.096   3.707   0.098  0.7650  0.7491  0.0244
   58MOL   H48031374   6.010   3.731   0.255 -1.7680  1.3662 -2.3398
   58MOL   H48131375   6.293   3.632   0.208 -0.1223  0.7411 -0.1252
   58MOL   H48231376   6.220   3.638   0.369 -0.4876  2.0278 -0.5024
   58MOL   H48331377   5.963   3.158   0.169 -0.1946 -1.0091  2.3251
   58MOL   H48431378   5.953   3.330   0.198  0.0174  0.0160  1.2412
   58MOL   H48531379   5.978   3.214   0.328 -0.7000 -1.7368 -0.4651
   58MOL   H48631380   6.144   3.163   0.001  1.2108 -0.0496 -1.4495
   58MOL   H48731381   6.294   3.241   0.032  0.7106  1.6382 -1.0865
   58MOL   C48831382   6.170   4.115   7.573  0.1811 -0.1515  0.0797
   58MOL   C48931383   6.080   3.995   7.578 -0.3604 -0.0407  0.2678
   58MOL   C49031384   6.153   3.870   7.640 -0.6556  0.0141  0.4032
   58MOL   C49131385   6.258   3.800   7.551  0.4108  0.0041  0.9505
   58MOL   C49231386   6.321   3.679   7.623 -0.1467  0.4216  0.8486
   58MOL   O49331387   6.234   3.566   7.643  0.3179 -0.4386  0.0612
   58MOL   C49431388   6.257   3.474   7.736  0.5961  0.2690  0.4111
   58MOL   O49531389   6.353   3.483   0.001 -0.0698 -0.0433 -0.5216
   58MOL   C49631390   6.147   3.365   7.748 -0.3067  0.1357 -0.5801
   58MOL   C49731391   6.019   3.437   7.767 -0.1491  0.3818 -0.5155
   58MOL   C49831392   6.142   3.293   7.606 -1.0725  0.1088  0.9799
   58MOL   H49931393   6.226   4.128   7.665  0.1994  2.4468 -0.2663
   58MOL   H50031394   6.248   4.107   7.498  0.6171  0.4954  0.4604
   58MOL   H50131395   6.114   4.208   7.558 -0.5678 -0.7135 -0.6923
   58MOL   H50231396   6.040   3.979   7.477  2.0466 -0.1840 -0.7121
   58MOL   H50331397   6.002   4.008   7.653  1.0265  0.6264  1.6160
   58MOL   H50431398   6.192   3.896   7.738 -1.0132  0.0949  0.5232
   58MOL   H50531399   6.074   3.798   7.661  1.0212 -1.5455  1.4917
   58MOL   H50631400   6.329   3.873   7.513 -1.6657 -0.6050 -4.4245
   58MOL   H50731401   6.207   3.767   7.461 -1.2036 -0.1508  1.9003
   58MOL   H50831402   6.397   3.647   7.551  0.8183  1.2353  1.4879
   58MOL   H50931403   6.369   3.707   7.717 -0.0030 -0.7760  1.1419
   58MOL   H51031404   5.994   3.495   7.679 -1.8032 -2.3578 -1.9402
   58MOL   H51131405   6.007   3.506   0.036 -5.7430  1.1953 -1.8089
   58MOL   H51231406   5.940   3.362   7.776 -0.0154  0.1530 -1.1715
   58MOL   H51331407   6.231   3.230   7.603 -0.3288  1.1409  0.8802
   58MOL   H51431408   6.173   3.366   7.531 -2.3831 -0.4636 -0.1376
   58MOL   C51531409   5.999   3.694   7.044  0.2496 -1.0560 -0.3452
   58MOL   C51631410   5.951   3.785   7.164  0.1980  0.2298  0.4147
   58MOL   C51731411   5.947   3.706   7.300  0.6053 -0.4424  0.8711
   58MOL   C51831412   5.828   3.611   7.306  0.8358 -0.0012  0.4192
   58MOL   C51931413   5.820   3.522   7.434 -0.1051 -0.1380 -0.0613
   58MOL   O52031414   5.928   3.424   7.437  0.6362  0.5860 -0.2029
   58MOL   C52131415   5.904   3.316   7.519  0.0083  0.3889 -0.2573
   58MOL   O52231416   5.798   3.302   7.580 -0.2843 -0.1360  0.0212
   58MOL   C52331417   6.024   3.221   7.541  0.5986  0.3153  0.4739
   58MOL   C52431418   5.980   3.099   7.633  0.1135  0.1326 -0.3386
   58MOL   C52531419   6.062   3.157   7.409 -0.4153 -0.3380 -0.3252
   58MOL   H52631420   5.919   3.628   7.012 -0.3136 -1.3738  1.6030
   58MOL   H52731421   6.020   3.738   6.947 -0.4563  3.0851  1.2843
   58MOL   H52831422   6.085   3.633   7.073  1.0425  0.1484 -0.1535
   58MOL   H52931423   6.033   3.856   7.172  0.9697 -0.5126 -0.7745
   58MOL   H53031424   5.866   3.851   7.152 -0.2854 -0.4343  0.1133
   58MOL   H53131425   6.047   3.663   7.309  1.1817  0.4125 -1.2115
   58MOL   H53231426   5.944   3.763   7.393  0.7645  1.2006 -0.1111
   58MOL   H53331427   5.829   3.546   7.219 -0.3475 -1.3581  1.3999
   58MOL   H53431428   5.732   3.662   7.298  0.1983 -1.4025 -1.3552
   58MOL   H53531429   5.815   3.584   7.523  0.5601 -0.1444 -0.0202
   58MOL   H53631430   5.727   3.465   7.426 -1.0236  1.3827 -0.6403
   58MOL   H53731431   6.061   3.028   7.652 -0.8261 -0.8498  0.0031
   58MOL   H53831432   5.904   3.047   7.575 -0.9114  2.0538 -0.7512
   58MOL   H53931433   5.940   3.131   7.729 -0.7480 -1.5869 -0.1130
   58MOL   H54031434   6.149   3.092   7.417 -0.1186  0.2587  1.5134
   58MOL   H54131435   6.093   3.240   7.345  1.3876 -2.6253 -2.5438
   58MOL   H54231436   5.985   3.095   7.365 -0.2310  0.0913 -1.2850
   59MOL     C131437   7.402   3.630   5.804  0.0763  0.4325 -0.2848
   59MOL     C231438   7.428   3.771   5.757  0.0608 -0.0838 -0.0530
   59MOL     C331439   7.391   3.878   5.855  0.4519  0.3343  0.1226
   59MOL     C431440   7.430   4.026   5.826  0.6080 -0.1537 -0.1266
   59MOL     C531441   7.411   4.127   5.942  0.0804  0.5019 -0.1103
   59MOL     O631442   7.443   4.255   5.901 -0.1338 -0.6724  0.5320
   59MOL     C731443   7.369   4.369   5.938  0.4300  0.1172 -0.2577
   59MOL     O831444   7.255   4.363   5.992 -0.2782 -0.4179  0.4447
   59MOL     C931445   7.431   4.497   5.885  0.2872 -0.0804  0.3325
   59MOL    C1031446   7.438   4.490   5.733  0.1743 -0.0911  0.3692
   59MOL    C1131447   7.572   4.527   5.946  0.3844  0.0137 -0.3330
   59MOL    H1231448   7.405   3.550   5.731 -0.4898  0.6067 -0.4964
   59MOL    H1331449   7.297   3.628   5.834 -0.0388  0.4014 -0.6969
   59MOL    H1431450   7.456   3.603   5.895  0.0338  0.2357 -0.3165
   59MOL    H1531451   7.531   3.784   5.724 -0.9384 -0.9660 -3.6792
   59MOL    H1631452   7.385   3.777   5.657  1.2757 -0.3445 -0.5943
   59MOL    H1731453   7.286   3.878   5.882  0.1595 -0.6731 -0.9889
   59MOL    H1831454   7.431   3.854   5.954  1.0912  0.9788  0.0326
   59MOL    H1931455   7.372   4.054   5.738  1.7342  2.5857 -0.0157
   59MOL    H2031456   7.528   4.021   5.780 -0.1417 -1.2476 -1.6538
   59MOL    H2131457   7.314   4.119   5.992  0.4604  2.0902  0.9039
   59MOL    H2231458   7.469   4.102   6.031 -0.5649 -0.1983  0.1167
   59MOL    H2331459   7.352   4.459   5.675  0.8316  0.3810 -0.8712
   59MOL    H2431460   7.520   4.427   5.699  0.9554 -0.1098  2.2248
   59MOL    H2531461   7.469   4.587   5.696  3.8747 -1.2977  0.0638
   59MOL    H2631462   7.623   4.587   5.869 -1.5503 -1.1562 -2.5807
   59MOL    H2731463   7.620   4.430   5.936  0.3699 -0.1564  1.2252
   59MOL    H2831464   7.359   4.569   5.924  0.3318 -1.5477  3.2958
   59MOL    C2931465   7.389   4.650   6.929  0.1119  0.3734  0.0457
   59MOL    C3031466   7.471   4.666   6.806  0.3980 -0.5296  0.2882
   59MOL    C3131467   7.428   4.559   6.695 -0.6068  0.3600 -0.0401
   59MOL    C3231468   7.499   4.595   6.561  0.0777 -0.0069 -0.2106
   59MOL    C3331469   7.471   4.494   6.441 -0.1587 -0.8845 -0.2056
   59MOL    O3431470   7.508   4.567   6.321  0.4729  0.7716  0.6303
   59MOL    C3531471   7.530   4.506   6.208 -0.0970 -0.1217  0.0649
   59MOL    O3631472   7.529   4.389   6.196 -0.2763  0.0019 -0.0147
   59MOL    C3731473   7.573   4.600   6.093  0.1285  0.0703 -0.5200
   59MOL    C3831474   7.466   4.714   6.095  0.1431 -0.1629 -0.2197
   59MOL    C3931475   7.718   4.669   6.120  0.9268  0.1022 -0.0653
   59MOL    H4031476   7.440   4.713   7.002 -0.6210  1.9042 -0.7560
   59MOL    H4131477   7.288   4.690   6.930  0.5481  1.5146 -1.0491
   59MOL    H4231478   7.395   4.548   6.968  1.6754  0.4358  0.0201
   59MOL    H4331479   7.577   4.654   6.829  0.9695 -0.8675 -2.3443
   59MOL    H4431480   7.460   4.766   6.764  0.0223 -1.2780 -1.4247
   59MOL    H4531481   7.322   4.550   6.673 -0.3679  1.1417 -1.5254
   59MOL    H4631482   7.450   4.457   6.727 -1.2993  0.8140  1.9834
   59MOL    H4731483   7.482   4.699   6.531 -1.0680 -0.1469 -0.0573
   59MOL    H4831484   7.604   4.580   6.584  0.3756  0.1138 -1.4477
   59MOL    H4931485   7.364   4.479   6.428 -0.7715  1.8465  1.3996
   59MOL    H5031486   7.530   4.403   6.450  1.5903  0.0684 -1.6677
   59MOL    H5131487   7.492   4.776   6.010  0.1188  0.3888  0.1741
   59MOL    H5231488   7.484   4.770   6.187  3.9427 -0.6054 -0.5890
   59MOL    H5331489   7.366   4.672   6.089  0.3789 -0.7762  0.0063
   59MOL    H5431490   7.708   4.747   6.195 -2.7884 -0.0609 -0.2770
   59MOL    H5531491   7.728   4.728   6.030 -1.0741  1.7321  0.7310
   59MOL    C5631492   0.297   3.975   6.354 -0.0876  0.1040  0.1170
   59MOL    C5731493   0.184   3.972   6.247 -0.5630 -0.5173 -0.1324
   59MOL    C5831494   0.157   4.107   6.187  0.4301 -0.6279 -0.3144
   59MOL    C5931495   0.049   4.116   6.077  0.0126  0.0003 -0.1686
   59MOL    C6031496   0.051   4.243   5.995  0.4270  0.0119  0.2523
   59MOL    O6131497   0.028   4.360   6.072 -0.0568  0.0057  0.1626
   59MOL    C6231498   0.059   4.484   6.034 -0.3894  0.0577  0.5985
   59MOL    O6331499   0.100   4.508   5.924  0.1590 -0.5166  0.3719
   59MOL    C6431500   0.040   4.587   6.142 -0.3162 -0.2861  1.0114
   59MOL    C6531501   0.031   4.521   6.284 -0.5501 -0.2479 -0.1414
   59MOL    C6631502   0.161   4.694   6.139  0.5085  0.2309 -0.2301
   59MOL    H6731503   0.264   4.040   6.435 -0.6900 -1.9155  1.5293
   59MOL    H6831504   0.394   4.005   6.314 -0.6451  0.5217 -0.9559
   59MOL    H6931505   0.316   3.878   6.400  1.0216  0.5458  0.6299
   59MOL    H7031506   0.217   3.907   6.166  1.0531 -0.3280  0.3608
   59MOL    H7131507   0.089   3.932   6.285 -1.3040  1.6902  0.4194
   59MOL    H7231508   0.144   4.182   6.265  1.3810 -0.6315 -0.1427
   59MOL    H7331509   0.259   4.129   6.157  1.0409 -1.1372  1.3530
   59MOL    H7431510   7.764   4.085   6.112  1.1029 -0.6420  2.4120
   59MOL    H7531511   0.084   4.043   6.004 -0.8479 -1.0640  0.4788
   59MOL    H7631512   0.146   4.255   5.943  1.5871 -4.3243  1.1937
   59MOL    H7731513   7.789   4.223   5.920  1.9888  1.0366 -1.6565
   59MOL    H7831514   7.773   4.439   6.286  0.7865 -1.4252  0.8514
   59MOL    H7931515   7.814   4.590   6.362  0.1081 -1.5369  1.3033
   59MOL    H8031516   0.126   4.481   6.319 -1.5173 -2.6966 -0.1998
   59MOL    H8131517   0.119   4.775   6.198 -0.4633 -1.0721  0.8874
   59MOL    H8231518   0.155   4.734   6.037  1.4228 -1.6113 -1.0316
   59MOL    C8331519   0.224   4.386   6.975 -0.3632 -0.2522  0.5771
   59MOL    C8431520   0.172   4.408   6.838 -0.2836  0.6047 -0.7096
   59MOL    C8531521   0.256   4.507   6.763 -0.0423  0.3712 -0.0281
   59MOL    C8631522   0.216   4.540   6.619  0.1203 -0.7983 -0.6666
   59MOL    C8731523   0.300   4.658   6.560  0.1167 -0.8325  0.3027
   59MOL    O8831524   0.280   4.691   6.423  0.4935  0.2170  0.3127
   59MOL    C8931525   0.334   4.613   6.326 -0.3655 -0.1438 -0.4408
   59MOL    O9031526   0.402   4.513   6.342  0.0198 -0.2218 -0.1696
   59MOL    C9131527   0.314   4.660   6.179 -0.2464 -0.7685  0.7648
   59MOL    C9231528   0.365   4.557   6.075  0.3033  0.1081  0.1143
   59MOL    C9331529   0.385   4.799   6.170  0.3171  0.0739  0.0874
   59MOL    H9431530   0.326   4.348   6.970 -0.3310 -0.3779  2.0332
   59MOL    H9531531   0.230   4.482   7.027  0.4200  0.7955 -1.3902
   59MOL    H9631532   0.159   4.323   7.036 -1.1962 -1.3237 -1.3642
   59MOL    H9731533   0.068   4.437   6.856  0.3150  1.8777  0.8509
   59MOL    H9831534   0.186   4.314   6.786 -1.0042 -0.7998  1.5953
   59MOL    H9931535   0.358   4.470   6.775  0.6962  2.3514  0.0444
   59MOL   H10031536   0.252   4.598   6.823  0.2444  1.6308 -1.8481
   59MOL   H10131537   0.111   4.562   6.601  0.3509  0.7645 -0.1711
   59MOL   H10231538   0.233   4.457   6.550 -1.0921 -1.4199 -0.2355
   59MOL   H10331539   0.404   4.633   6.581  0.5556  0.5584 -0.2122
   59MOL   H10431540   0.278   4.743   6.624 -0.8840 -2.2262  1.8668
   59MOL   H10531541   0.337   4.584   5.973 -0.0220 -2.0902 -0.4084
   59MOL   H10631542   0.320   4.459   6.089 -1.5821  0.9357  0.0235
   59MOL   H10731543   0.473   4.549   6.086  0.2160  0.1337  1.0005
   59MOL   H10831544   0.351   4.838   6.074  1.1637  0.4558 -0.0607
   59MOL   H10931545   0.333   4.864   6.240 -2.3351 -2.2654  0.3795
   59MOL   C11031546   0.688   4.684   5.579 -0.3097 -0.8484 -0.5040
   59MOL   C11131547   0.838   4.676   5.614  0.4713  0.0831 -0.2676
   59MOL   C11231548   0.893   4.795   5.686  0.0619  0.5504 -0.1103
   59MOL   C11331549   0.819   4.854   5.808  0.6368 -0.8821  0.2501
   59MOL   C11431550   0.827   4.762   5.929 -0.3027  0.3156 -0.4599
   59MOL   O11531551   0.746   4.807   6.041  0.1173  0.0935 -0.4186
   59MOL   C11631552   0.608   4.782   6.042  0.2092  0.5355  0.1210
   59MOL   O11731553   0.546   4.735   5.950 -0.2074 -0.0127  0.4308
   59MOL   C11831554   0.539   4.829   6.175  0.0680 -0.0232 -0.1728
   59MOL   C11931555   0.611   4.749   6.292 -0.0987  0.5376 -0.3497
   59MOL   C12031556   0.581   4.980   6.193 -0.2758  0.5186  0.1958
   59MOL   H12131557   0.655   4.770   5.520 -0.3366 -2.5982 -3.0621
   59MOL   H12231558   0.650   4.591   5.537  1.0510 -1.3957 -0.5473
   59MOL   H12331559   0.631   4.697   5.671  0.7399 -1.9211  0.3133
   59MOL   H12431560   0.855   4.593   5.683  0.2934 -0.5936 -1.0234
   59MOL   H12531561   0.887   4.657   5.518 -1.3562 -0.7733 -1.0685
   59MOL   H12631562   0.997   4.787   5.718 -0.8391  1.9135  3.4502
   59MOL   H12731563   0.879   4.872   5.611  0.4339 -1.1639 -1.9665
   59MOL   H12831564   0.712   4.872   5.795  0.6915 -0.2619  0.6208
   59MOL   H12931565   0.859   4.953   5.832  0.1645 -0.1040 -1.9684
   59MOL   H13031566   0.793   4.661   5.905 -1.9345  1.2834 -2.3927
   59MOL   H13131567   0.931   4.744   5.955 -0.5788 -2.2608 -0.9862
   59MOL   H13231568   0.557   4.763   6.386 -1.0176  0.1729 -0.8152
   59MOL   H13331569   0.609   4.640   6.285  0.6539  0.5469 -0.7326
   59MOL   H13431570   0.714   4.782   6.304 -1.1482  2.9424  2.7202
   59MOL   H13531571   0.557   5.002   6.297 -3.7950  0.8380 -0.6245
   59MOL   H13631572   0.690   4.980   6.198 -0.2939 -0.7094  0.8164
   59MOL   C13731573   0.006   4.874   6.495  0.6041 -1.5011 -0.2809
   59MOL   C13831574   0.088   4.984   6.430 -0.1016  0.0771 -0.3697
   59MOL   C13931575   0.129   5.091   6.531 -0.1112 -0.1897 -0.3539
   59MOL   C14031576   0.269   5.153   6.500  0.3295  1.0368 -0.2719
   59MOL   C14131577   0.265   5.230   6.369 -0.0657 -0.0940 -0.6261
   59MOL   O14231578   0.389   5.202   6.292  0.3071 -0.0898 -0.4526
   59MOL   C14331579   0.385   5.133   6.171 -0.6489  0.0650 -0.4413
   59MOL   O14431580   0.286   5.098   6.107 -0.3244 -0.2616  0.2115
   59MOL   C14531581   0.532   5.110   6.124  0.4085  0.2502  0.2555
   59MOL   C14631582   0.637   5.220   6.168  0.6991  1.0610 -0.7678
   59MOL   C14731583   0.535   5.074   5.966  0.0134  0.1146  0.4801
   59MOL   H14831584   7.719   4.904   6.523  1.0248 -2.0105  1.8362
   59MOL   H14931585   0.054   4.842   6.587  0.1425 -0.2720  0.3952
   59MOL   H15031586   0.013   4.789   6.426  1.0358 -0.8570 -1.0429
   59MOL   H15131587   0.041   5.033   6.344 -2.8453 -2.8317 -0.6006
   59MOL   H15231588   0.173   4.927   6.393 -0.6268  0.4401 -2.1817
   59MOL   H15331589   0.059   5.174   6.536  0.1699 -0.0416  1.4238
   59MOL   H15431590   0.129   5.041   6.628  0.3084  0.0517 -0.2296
   59MOL   H15531591   0.292   5.223   6.580  1.4886 -0.1403  0.4386
   59MOL   H15631592   0.349   5.079   6.492  2.8218  3.6126  0.0538
   59MOL   H15731593   0.249   5.337   6.377  2.1647  0.3129 -1.3816
   59MOL   H15831594   0.184   5.190   6.308  0.3739 -1.9365 -0.0429
   59MOL   H15931595   0.628   5.232   6.276 -0.9406  0.3058 -0.7967
   59MOL   H16031596   0.607   5.315   6.123 -0.3953  0.9352 -0.3401
   59MOL   H16131597   0.739   5.200   6.136  0.7789 -1.7281  1.1114
   59MOL   H16231598   0.632   5.024   5.955  1.0791  2.2712 -0.3270
   59MOL   H16331599   0.471   4.990   5.939  2.1125 -0.7878 -1.8483
   59MOL   C16431600   0.730   5.289   5.255  0.6137  0.3230  0.5385
   59MOL   C16531601   0.800   5.392   5.346  0.2513 -0.3685  0.1651
   59MOL   C16631602   0.763   5.373   5.495 -0.0268 -0.2275  0.2121
   59MOL   C16731603   0.838   5.465   5.590 -0.4667 -0.0300 -0.2312
   59MOL   C16831604   0.815   5.417   5.734 -0.0171  0.2253  0.1544
   59MOL   O16931605   0.684   5.360   5.762 -0.1725  0.2017 -0.7694
   59MOL   C17031606   0.678   5.246   5.826  0.2640  0.2127 -0.7512
   59MOL   O17131607   0.779   5.194   5.876  0.5767  0.4529  0.6701
   59MOL   C17231608   0.531   5.180   5.847 -0.1478  0.9346 -0.4172
   59MOL   C17331609   0.436   5.297   5.879  0.4272  0.6945  0.5874
   59MOL   C17431610   0.499   5.103   5.712 -0.0247  0.3690 -0.0308
   59MOL   H17531611   0.622   5.304   5.249  0.7195  1.2049  0.6878
   59MOL   H17631612   0.755   5.187   5.285 -3.4072 -1.2094 -1.0159
   59MOL   H17731613   0.783   5.293   5.160  0.3257 -0.9235  0.3182
   59MOL   H17831614   0.778   5.492   5.308 -0.0430 -1.2513 -2.0648
   59MOL   H17931615   0.906   5.383   5.322  0.6122  1.8495  0.7276
   59MOL   H18031616   0.654   5.369   5.491 -0.0232  0.3897 -0.5496
   59MOL   H18131617   0.794   5.271   5.519 -0.7477 -0.8226 -1.2973
   59MOL   H18231618   0.804   5.569   5.582  1.5292  0.6761  0.2197
   59MOL   H18331619   0.945   5.465   5.571 -0.5371 -2.2956 -0.7720
   59MOL   H18431620   0.810   5.508   5.793 -1.3910 -0.5528  1.2494
   59MOL   H18531621   0.892   5.346   5.765 -2.9734 -2.2889  2.0385
   59MOL   H18631622   0.333   5.262   5.894 -0.1911  2.4457  0.6158
   59MOL   H18731623   0.433   5.362   5.792  2.0871 -1.3355 -1.0204
   59MOL   H18831624   0.463   5.349   5.971 -0.3672  0.5953  0.8844
   59MOL   H18931625   0.549   5.159   5.634  2.9643 -0.4025  1.2576
   59MOL   H19031626   0.571   5.022   5.704  0.6642  1.1286 -1.7808
   59MOL   C19131627   0.331   5.687   5.063 -0.6267 -0.1764  0.1139
   59MOL   C19231628   0.359   5.549   5.126  0.3172 -0.5020  0.0544
   59MOL   C19331629   0.316   5.553   5.281  0.7852 -0.4860 -0.3866
   59MOL   C19431630   0.324   5.417   5.342 -0.1071 -0.3939 -0.0601
   59MOL   C19531631   0.309   5.426   5.497 -0.1300  0.0129 -0.1205
   59MOL   O19631632   0.352   5.295   5.545 -0.5269 -0.4051 -0.3988
   59MOL   C19731633   0.279   5.215   5.631 -0.0001  0.1896 -0.1319
   59MOL   O19831634   0.162   5.238   5.667 -0.5560 -0.4627 -1.3205
   59MOL   C19931635   0.352   5.078   5.657 -0.1561 -0.5245  0.6976
   59MOL   C20031636   0.283   4.992   5.759  0.0880 -0.2269  0.5224
   59MOL   C20131637   0.374   4.995   5.518  1.0284  0.5933  0.3797
   59MOL   H20231638   0.392   5.758   5.118 -0.3046 -0.0235 -0.4421
   59MOL   H20331639   0.348   5.700   4.957 -2.2833  2.3939  0.1427
   59MOL   H20431640   0.226   5.714   5.076 -0.6926 -0.7898  0.9262
   59MOL   H20531641   0.465   5.526   5.121  0.3863 -0.0731 -0.5771
   59MOL   H20631642   0.313   5.470   5.067  3.7400 -0.3782 -2.8787
   59MOL   H20731643   0.216   5.593   5.292  1.3663  1.1545 -0.8696
   59MOL   H20831644   0.376   5.627   5.334 -1.8377  1.5970 -0.2403
   59MOL   H20931645   0.241   5.361   5.299  0.4061 -0.5372 -0.8523
   59MOL   H21031646   0.416   5.373   5.305  1.4881  1.8448  1.1132
   59MOL   H21131647   0.385   5.497   5.529  0.4361  0.2090 -1.8335
   59MOL   H21231648   0.212   5.448   5.541 -1.2551 -0.2627 -2.4036
   59MOL   H21331649   0.264   5.051   5.848 -1.4988 -1.4916  1.0453
   59MOL   H21431650   0.346   4.905   5.778  0.6514  0.2211  0.7206
   59MOL   H21531651   0.183   4.962   5.727  0.0754  0.2312  0.1120
   59MOL   H21631652   0.436   4.915   5.559  0.1023  1.1687  3.0111
   59MOL   H21731653   0.438   5.058   5.457  0.9095  0.3915  0.0460
   59MOL   C21831654   7.766   4.266   5.527 -0.8433  0.0948  0.0845
   59MOL   C21931655   0.103   4.237   5.555 -0.3734  0.3403  0.3477
   59MOL   C22031656   0.169   4.352   5.631  0.1104  0.0466 -0.0649
   59MOL   C22131657   0.217   4.469   5.538  0.1074  0.5282  0.1091
   59MOL   C22231658   0.264   4.598   5.613  0.3634  0.7628 -0.3278
   59MOL   O22331659   0.290   4.709   5.536  0.1663  0.0490 -0.0308
   59MOL   C22431660   0.197   4.806   5.512 -0.0268 -0.5540  0.2861
   59MOL   O22531661   0.082   4.806   5.544  0.4984  0.0524 -0.3041
   59MOL   C22631662   0.258   4.927   5.433  0.0597 -0.2038 -0.3393
   59MOL   C22731663   0.330   4.867   5.317  0.4218 -0.2636 -0.3759
   59MOL   C22831664   0.152   5.041   5.398  0.6339 -0.6483  0.0983
   59MOL   H22931665   7.723   4.205   5.448  1.3262 -2.1194  0.5171
   59MOL   H23031666   7.709   4.246   5.618 -0.6262  0.6996  0.3541
   59MOL   H23131667   7.751   4.371   5.503 -2.4172 -0.0654  0.3067
   59MOL   H23231668   0.145   4.211   5.458  0.0064  1.4186  0.2250
   59MOL   H23331669   0.105   4.154   5.626 -0.0858 -0.9135 -1.1092
   59MOL   H23431670   0.262   4.318   5.677 -0.4775  0.1758  1.2588
   59MOL   H23531671   0.106   4.391   5.712  0.9684  1.3031 -0.0040
   59MOL   H23631672   0.303   4.426   5.486 -2.4671 -2.2602 -2.0500
   59MOL   H23731673   0.150   4.508   5.461 -1.1481 -1.6910  0.0181
   59MOL   H23831674   0.340   4.583   5.691 -2.2825  0.3265  2.2729
   59MOL   H23931675   0.183   4.617   5.684  0.1909 -1.4749  0.1023
   59MOL   H24031676   0.265   4.796   5.265  0.1180  0.8171 -1.5146
   59MOL   H24131677   0.429   4.824   5.334  0.1364 -0.4304  0.8813
   59MOL   H24231678   0.364   4.941   5.245  3.1103  0.3293  1.4376
   59MOL   H24331679   0.202   5.137   5.383 -1.8130  1.0686  2.4565
   59MOL   H24431680   0.085   5.064   5.481 -0.3038  2.7662 -1.5101
   59MOL   C24531681   0.082   5.435   4.675  0.5203  0.7581 -0.4830
   59MOL   C24631682   0.217   5.376   4.717 -0.2933  0.3643 -0.8336
   59MOL   C24731683   0.207   5.215   4.742  0.1996 -0.2576  0.1986
   59MOL   C24831684   0.145   5.172   4.875 -0.3736  0.2436  0.3168
   59MOL   C24931685   0.248   5.158   4.988  0.0764 -0.6200  0.1684
   59MOL   O25031686   0.185   5.145   5.112  0.0864  0.4389  0.3460
   59MOL   C25131687   0.126   5.026   5.147 -0.0216 -0.0573  0.1217
   59MOL   O25231688   0.127   4.925   5.075 -0.2464  0.6951 -0.0138
   59MOL   C25331689   0.049   5.032   5.279 -0.1876 -0.4585  0.0511
   59MOL   C25431690   7.776   5.163   5.294  0.4853  0.0020 -0.4576
   59MOL   C25531691   7.773   4.905   5.295 -0.2475 -0.2117  0.0356
   59MOL   H25631692   0.036   5.393   4.586 -0.7911 -0.3416  0.6751
   59MOL   H25731693   0.004   5.419   4.750  0.7706  2.1836  0.1163
   59MOL   H25831694   0.091   5.544   4.675 -2.5573  1.0811  1.4984
   59MOL   H25931695   0.284   5.400   4.636 -1.2674  1.1941 -1.4042
   59MOL   H26031696   0.273   5.424   4.798  3.4004 -0.3861 -2.8495
   59MOL   H26131697   0.302   5.164   4.726  0.8355  1.1972 -0.7332
   59MOL   H26231698   0.134   5.171   4.675  0.5094 -3.8931  2.0957
   59MOL   H26331699   0.060   5.239   4.889 -0.2800  0.1354  1.4082
   59MOL   H26431700   0.094   5.078   4.857 -0.3126  0.5532 -1.6209
   59MOL   H26531701   0.317   5.076   4.970  0.7864  0.2805 -1.2712
   59MOL   H26631702   0.319   5.240   4.991  0.0534 -0.6424  1.8656
   59MOL   H26731703   7.703   5.167   5.214 -1.2689  0.3615  1.1230
   59MOL   H26831704   7.735   5.175   5.395 -0.5244  0.6762 -0.9462
   59MOL   H26931705   0.027   5.249   5.279  1.2248 -0.6178 -0.8080
   59MOL   H27031706   0.020   4.815   5.293  2.0373  1.3138 -1.5127
   59MOL   H27131707   7.738   4.900   5.399  1.0537  0.6736  0.5384
   59MOL   C27231708   7.689   5.043   5.832  0.2006  0.0363  0.5773
   59MOL   C27331709   7.582   5.060   5.727 -0.8145  0.1188 -0.1301
   59MOL   C27431710   7.502   4.934   5.701 -0.4011 -0.2060 -0.6369
   59MOL   C27531711   7.376   4.952   5.619 -0.1968 -0.3624  0.5125
   59MOL   C27631712   7.411   5.020   5.477  0.1520  0.3564  0.0736
   59MOL   O27731713   7.493   4.938   5.396  0.4452  0.4184 -0.3813
   59MOL   C27831714   7.520   4.965   5.273  0.0573  0.5858  1.1546
   59MOL   O27931715   7.465   5.059   5.209  0.4007  0.6312 -0.5140
   59MOL   C28031716   7.635   4.880   5.216 -0.0920 -0.8320  0.5372
   59MOL   C28131717   7.651   4.916   5.064  0.1673  0.2644 -0.0371
   59MOL   C28231718   7.615   4.723   5.239  0.2384 -0.0488  0.1695
   59MOL   H28331719   7.756   4.959   5.813  1.5658  1.5444 -1.5241
   59MOL   H28431720   7.756   5.129   5.828  2.1113 -1.4371  0.0546
   59MOL   H28531721   7.642   5.032   5.930 -0.5632 -1.7636  0.0321
   59MOL   H28631722   7.514   5.136   5.765 -1.6734 -0.6816 -0.0235
   59MOL   H28731723   7.614   5.080   5.625  0.4250  1.1590  0.4556
   59MOL   H28831724   7.574   4.864   5.660  1.1284  0.2684  1.1985
   59MOL   H28931725   7.464   4.889   5.792  0.3136  2.0791  0.8267
   59MOL   H29031726   7.347   4.851   5.591  1.3327 -0.7678  0.3310
   59MOL   H29131727   7.298   5.002   5.677 -0.0687 -0.4540  0.7666
   59MOL   H29231728   7.434   5.127   5.482  2.5432 -0.0385 -1.4416
   59MOL   H29331729   7.313   5.025   5.430  0.5876 -0.1144 -0.8846
   59MOL   H29431730   7.728   4.857   5.016  0.0742 -0.0402  0.1844
   59MOL   H29531731   7.558   4.911   5.007 -1.1939  2.1926  1.8793
   59MOL   H29631732   7.693   5.015   5.044  1.3035 -0.7202 -2.6499
   59MOL   H29731733   7.710   4.678   5.212  0.7921  0.4933  1.2010
   59MOL   H29831734   7.615   4.704   5.346 -2.5793 -2.5450 -0.2029
   59MOL   C29931735   0.367   4.601   5.060  0.8466  0.1653 -0.2739
   59MOL   C30031736   0.300   4.484   5.145  0.6780  0.5680  0.4209
   59MOL   C30131737   0.151   4.476   5.097  0.0053 -0.1938  0.2162
   59MOL   C30231738   0.067   4.363   5.178 -0.1315 -0.1947  0.1343
   59MOL   C30331739   7.740   4.352   5.121  0.4312  0.1781  0.1526
   59MOL   O30431740   7.667   4.470   5.110  0.4891  0.8194 -0.3073
   59MOL   C30531741   7.552   4.488   5.179  0.3367 -0.2495 -1.2672
   59MOL   O30631742   7.493   4.398   5.244 -0.2924  0.2132 -0.2033
   59MOL   C30731743   7.495   4.632   5.172 -0.5610 -0.1148 -0.0328
   59MOL   C30831744   7.367   4.662   5.251  0.1470 -0.2231  0.3127
   59MOL   C30931745   7.464   4.666   5.021 -0.4573  0.6943 -0.2971
   59MOL   H31031746   0.352   4.576   4.955  0.7051 -1.3163  0.0983
   59MOL   H31131747   0.472   4.607   5.087 -0.0410  0.1080  3.4801
   59MOL   H31231748   0.331   4.701   5.083 -1.0900 -0.5533 -0.0853
   59MOL   H31331749   0.294   4.515   5.249  0.7277  1.3658  0.1913
   59MOL   H31431750   0.356   4.392   5.131  0.6854  0.7083 -0.5112
   59MOL   H31531751   0.151   4.438   4.995 -0.3627 -1.2507  0.5980
   59MOL   H31631752   0.103   4.574   5.101  0.1744 -0.1588  1.6776
   59MOL   H31731753   0.065   4.409   5.277  0.4213  0.2800 -0.0749
   59MOL   H31831754   0.112   4.264   5.177  1.7961  0.6598 -0.4017
   59MOL   H31931755   7.750   4.313   5.020 -0.9857 -1.7166  0.6977
   59MOL   H32031756   7.694   4.265   5.169  2.2573 -0.6443  0.4701
   59MOL   H32131757   7.320   4.753   5.214 -0.5599  0.4496  2.7539
   59MOL   H32231758   7.288   4.587   5.257 -0.2370  0.0856 -0.8167
   59MOL   H32331759   7.383   4.681   5.357 -3.3913  2.1009  0.4833
   59MOL   H32431760   7.565   4.684   4.985 -0.2999 -0.8545 -0.6556
   59MOL   H32531761   7.411   4.762   5.022  1.4400  1.7659 -1.1547
   59MOL   C32631762   7.184   5.313   4.936 -0.7121  0.0376  0.1146
   59MOL   C32731763   7.103   5.184   4.907 -0.2519  0.1067  0.2571
   59MOL   C32831764   7.190   5.069   4.862 -0.3046 -0.2438  0.0667
   59MOL   C32931765   7.107   4.954   4.795 -0.2676  0.3252  0.2542
   59MOL   C33031766   7.207   4.850   4.729 -0.4877  0.7149  0.2456
   59MOL   O33131767   7.258   4.755   4.822 -0.1888 -0.1728  0.4197
   59MOL   C33231768   7.360   4.669   4.797 -0.0598 -0.2488  0.2214
   59MOL   O33331769   7.438   4.680   4.702 -0.1491 -0.2549 -0.8035
   59MOL   C33431770   7.396   4.565   4.911  0.2532  0.2996 -0.2807
   59MOL   C33531771   7.493   4.455   4.854  0.1524  0.5427 -0.0727
   59MOL   C33631772   7.267   4.508   4.973 -0.0983 -0.0140  0.2526
   59MOL   H33731773   7.224   5.352   4.843  3.4212 -1.4515  1.1684
   59MOL   H33831774   7.276   5.296   4.992  1.0423  0.6498 -2.4949
   59MOL   H33931775   7.123   5.387   4.990 -1.1893 -2.0445  2.5459
   59MOL   H34031776   7.034   5.208   4.826  0.9482  1.1425 -0.4749
   59MOL   H34131777   7.047   5.151   4.995 -0.2862  0.6360  0.4363
   59MOL   H34231778   7.257   5.035   4.941  0.8573  0.9271 -0.4115
   59MOL   H34331779   7.260   5.106   4.788  1.0254 -0.2028  1.3165
   59MOL   H34431780   7.039   4.989   4.717 -1.5141 -1.2755  0.5998
   59MOL   H34531781   7.036   4.916   4.868 -1.9545 -0.1413 -1.5802
   59MOL   H34631782   7.282   4.906   4.672 -0.2611  1.3246  1.1328
   59MOL   H34731783   7.158   4.788   4.654  0.1339  0.4679  0.0380
   59MOL   H34831784   7.461   4.420   4.756 -0.2703 -1.7795  0.8786
   59MOL   H34931785   7.528   4.377   4.921  0.1562  0.4331 -0.2033
   59MOL   H35031786   7.587   4.507   4.833  1.6671 -1.8051  0.6931
   59MOL   H35131787   7.214   4.589   5.023 -0.1344 -1.2074  2.1817
   59MOL   H35231788   7.300   4.457   5.063  1.8706 -1.3757 -1.1936
   59MOL   C35331789   7.425   3.602   4.997 -0.0430  1.0633  0.6814
   59MOL   C35431790   7.344   3.723   5.007  0.2201  0.7120  0.0368
   59MOL   C35531791   7.414   3.856   4.972  0.4111 -0.2398 -0.3630
   59MOL   C35631792   7.313   3.971   4.967 -0.0683 -0.0381  0.5055
   59MOL   C35731793   7.383   4.110   4.957  0.8175  0.2579 -0.0188
   59MOL   O35831794   7.285   4.209   4.971  0.4738  0.4008 -0.1752
   59MOL   C35931795   7.245   4.272   4.865  0.4948 -0.0532 -0.3678
   59MOL   O36031796   7.278   4.239   4.748  0.3734  0.1329  0.5671
   59MOL   C36131797   7.161   4.401   4.904 -0.8397 -0.2294  0.3882
   59MOL   C36231798   7.099   4.462   4.775  0.2025 -0.1760  0.1195
   59MOL   C36331799   7.046   4.366   5.011 -0.2285  0.3944  0.3851
   59MOL   H36431800   7.362   3.516   5.020  2.2444 -1.2200 -1.2796
   59MOL   H36531801   7.503   3.590   5.074  0.5218  1.1766  0.1319
   59MOL   H36631802   7.475   3.579   4.903 -0.2814  1.1825  0.5255
   59MOL   H36731803   7.262   3.712   4.936  1.0164 -1.0197 -0.6403
   59MOL   H36831804   7.304   3.730   5.108  0.1176 -0.9793  0.1193
   59MOL   H36931805   7.457   3.847   4.873 -1.1380 -0.5615 -1.0160
   59MOL   H37031806   7.493   3.880   5.044  0.6325 -0.5581 -0.5008
   59MOL   H37131807   7.254   3.967   5.058 -1.7028 -1.1166 -0.5604
   59MOL   H37231808   7.241   3.960   4.885  0.9865  1.2940 -0.6313
   59MOL   H37331809   7.449   4.120   5.043 -2.1718  1.2959  2.2627
   59MOL   H37431810   7.448   4.108   4.870  1.1565 -0.2405  0.2397
   59MOL   H37531811   7.057   4.562   4.785  0.1992 -0.2686  1.0722
   59MOL   H37631812   7.172   4.462   4.694 -0.7920 -1.0210 -0.7918
   59MOL   H37731813   7.036   4.393   4.719  0.9936 -0.7050 -0.1392
   59MOL   H37831814   7.100   4.326   5.097  0.8030  3.8216  1.4314
   59MOL   H37931815   7.011   4.466   5.040 -1.7398 -0.0835  0.2585
   59MOL   C38031816   6.167   4.110   4.827  0.7967 -0.0459 -0.3500
   59MOL   C38131817   6.200   4.253   4.877  1.0504 -0.2606 -0.2409
   59MOL   C38231818   6.325   4.325   4.832  0.5322 -0.9969  0.0219
   59MOL   C38331819   6.457   4.276   4.868 -0.5198  0.4564 -0.1398
   59MOL   C38431820   6.571   4.372   4.838 -0.4346  0.1902 -0.9780
   59MOL   O38531821   6.697   4.307   4.860  0.1055 -0.2315  0.3736
   59MOL   C38631822   6.808   4.379   4.904 -1.0483 -0.5144  0.5716
   59MOL   O38731823   6.824   4.499   4.878  0.0225 -0.1501  0.3338
   59MOL   C38831824   6.909   4.286   4.982 -0.4396 -0.3523 -0.5554
   59MOL   C38931825   6.940   4.154   4.900  0.2868  0.8693 -0.1496
   59MOL   C39031826   6.851   4.244   5.120  0.3377 -0.2056 -0.3476
   59MOL   H39131827   6.180   4.112   4.719 -1.3021  2.9478 -0.5902
   59MOL   H39231828   6.230   4.023   4.846 -0.6823 -1.2870 -1.0785
   59MOL   H39331829   6.062   4.084   4.839  0.6519  1.1785  1.1526
   59MOL   H39431830   6.183   4.265   4.985  0.2704 -2.5393 -0.1011
   59MOL   H39531831   6.116   4.313   4.842 -0.6259 -1.9829  0.6952
   59MOL   H39631832   6.324   4.344   4.725 -0.2135 -0.7650  0.0631
   59MOL   H39731833   6.317   4.428   4.869 -0.2934 -0.6786 -0.9868
   59MOL   H39831834   6.462   4.242   4.971  2.4269 -0.2288 -0.4472
   59MOL   H39931835   6.478   4.186   4.811  0.7725  0.3419  0.4773
   59MOL   H40031836   6.555   4.458   4.904 -1.8301 -0.6015 -0.2727
   59MOL   H40131837   6.576   4.411   4.737 -0.6000  0.5425 -0.8519
   59MOL   H40231838   6.994   4.183   4.810  1.0896 -0.5075 -0.1146
   59MOL   H40331839   6.848   4.108   4.864  1.2057 -1.2781  0.1741
   59MOL   H40431840   6.979   4.075   4.964 -2.3031 -1.1809 -1.0106
   59MOL   H40531841   6.921   4.169   5.158 -1.2087 -2.4596 -1.8278
   59MOL   H40631842   6.757   4.190   5.108 -0.0057  0.0920  0.8441
   59MOL   C40731843   7.445   4.058   5.448  0.2535 -0.3827 -0.4219
   59MOL   C40831844   7.313   3.997   5.409 -0.0051  0.2679 -0.3955
   59MOL   C40931845   7.211   4.113   5.380 -0.0494 -0.3567  0.2092
   59MOL   C41031846   7.175   4.193   5.507 -0.0661  0.0105  0.1586
   59MOL   C41131847   7.118   4.325   5.463  0.3136 -0.0397 -0.0120
   59MOL   O41231848   7.007   4.303   5.388  0.1691 -0.2805  0.0158
   59MOL   C41331849   6.951   4.402   5.308  0.4255 -0.4299  0.1888
   59MOL   O41431850   7.000   4.513   5.290 -0.1460 -0.3487  0.2373
   59MOL   C41531851   6.820   4.348   5.239  0.7107  0.8106 -0.1073
   59MOL   C41631852   6.734   4.468   5.188 -0.3356 -0.3729 -0.1377
   59MOL   C41731853   6.736   4.267   5.350 -0.1419 -0.5173  0.1509
   59MOL   H41831854   7.511   3.973   5.468  0.9486  0.2045 -0.1906
   59MOL   H41931855   7.485   4.113   5.363  0.3409 -0.5240 -0.4719
   59MOL   H42031856   7.450   4.120   5.538  4.3295 -1.2527  0.0450
   59MOL   H42131857   7.263   3.925   5.473  0.1560  1.1371  0.7309
   59MOL   H42231858   7.339   3.946   5.316 -2.2756  0.7237 -1.3435
   59MOL   H42331859   7.250   4.187   5.310 -1.9932  0.7856  0.2848
   59MOL   H42431860   7.119   4.069   5.342  1.0801 -2.8855  0.2977
   59MOL   H42531861   7.256   4.224   5.574 -1.2718  0.8695  1.2557
   59MOL   H42631862   7.114   4.129   5.572 -0.6967 -1.5442 -1.9154
   59MOL   H42731863   7.087   4.392   5.543  0.1815 -0.2757  0.1328
   59MOL   H42831864   7.188   4.381   5.400 -0.6040  0.8688 -0.2267
   59MOL   H42931865   6.642   4.445   5.134  0.8220 -0.5435 -2.0859
   59MOL   H43031866   6.787   4.538   5.123 -0.5811  1.3142  1.4554
   59MOL   H43131867   6.706   4.529   5.273  0.8203  1.0508 -0.7611
   59MOL   H43231868   6.791   4.188   5.402 -0.7947 -0.0826  1.5383
   59MOL   H43331869   6.665   4.210   5.290 -2.2786  0.1077  1.9826
   59MOL   C43431870   6.001   4.076   5.470  0.1009 -0.2460  0.2079
   59MOL   C43531871   6.026   4.226   5.448  0.1936 -0.0549 -0.2271
   59MOL   C43631872   6.160   4.251   5.374  0.3466 -0.0910 -0.2038
   59MOL   C43731873   6.198   4.401   5.365 -1.1040 -0.1586  0.1518
   59MOL   C43831874   6.332   4.418   5.290 -0.6547  0.5883  0.0840
   59MOL   O43931875   6.441   4.341   5.345  0.0397 -0.4456  0.2445
   59MOL   C44031876   6.532   4.403   5.428  0.2590  0.2373  0.5271
   59MOL   O44131877   6.511   4.516   5.465  0.6453  0.0598 -0.1865
   59MOL   C44231878   6.650   4.316   5.466 -0.3034  0.2657 -0.1504
   59MOL   C44331879   6.738   4.401   5.559 -1.2928 -0.3183 -0.6490
   59MOL   C44431880   6.583   4.187   5.540  0.4385  0.4807  0.4608
   59MOL   H44531881   6.085   4.014   5.499 -0.7118 -1.4044  0.1386
   59MOL   H44631882   5.923   4.051   5.542  0.3464  0.1905  0.6220
   59MOL   H44731883   5.971   4.034   5.374 -1.1412  2.3136 -0.5924
   59MOL   H44831884   5.946   4.276   5.393 -0.4007  0.7404  1.3174
   59MOL   H44931885   6.047   4.264   5.548  1.6967 -1.2596 -0.0541
   59MOL   H45031886   6.238   4.187   5.415  2.1661  1.2373 -1.5018
   59MOL   H45131887   6.155   4.214   5.271 -0.2568  2.9108 -1.3110
   59MOL   H45231888   6.211   4.443   5.465  2.8743 -0.6360 -0.0626
   59MOL   H45331889   6.121   4.452   5.308 -0.0003  0.3357 -0.9159
   59MOL   H45431890   6.348   4.526   5.291 -1.0538  0.6668 -1.0577
   59MOL   H45531891   6.311   4.394   5.186 -1.3533  0.8592  0.1620
   59MOL   H45631892   6.684   4.453   5.639 -0.9409  1.7266 -1.6980
   59MOL   H45731893   6.814   4.340   5.607 -0.1154  0.8381 -1.0177
   59MOL   H45831894   6.791   4.484   5.514 -1.4611  0.3219  0.3066
   59MOL   H45931895   6.662   4.112   5.552 -1.1327 -1.2293  0.3828
   59MOL   H46031896   6.511   4.140   5.473  0.1296 -0.1946  1.2570
   59MOL   C46131897   6.529   3.338   5.568  0.0331 -0.1613  0.2139
   59MOL   C46231898   6.585   3.482   5.539 -0.2291  0.4685 -0.3122
   59MOL   C46331899   6.478   3.589   5.587 -0.1683 -0.5071  0.3813
   59MOL   C46431900   6.526   3.737   5.592  0.1982 -0.2506  0.0455
   59MOL   C46531901   6.424   3.835   5.642  0.1924  0.2541 -0.1924
   59MOL   O46631902   6.489   3.960   5.652 -0.0007  0.0826  0.1643
   59MOL   C46731903   6.429   4.066   5.700  0.1933  0.0272 -0.5007
   59MOL   O46831904   6.319   4.064   5.759  0.3201 -0.0456 -0.0484
   59MOL   C46931905   6.515   4.195   5.686 -0.0170 -0.2110 -0.1346
   59MOL   C47031906   6.422   4.311   5.697  0.0654  0.6638  0.1839
   59MOL   C47131907   6.628   4.196   5.794 -0.2012  0.2982  0.8771
   59MOL   H47231908   6.507   3.324   5.674 -1.2609  0.3318  0.0225
   59MOL   H47331909   6.599   3.261   5.536 -0.5087  0.1695 -1.8690
   59MOL   H47431910   6.439   3.330   5.506 -0.8538  1.7270  1.2043
   59MOL   H47531911   6.607   3.488   5.433 -0.8383 -0.6596 -0.5072
   59MOL   H47631912   6.678   3.495   5.595  0.7004 -0.6034 -1.5801
   59MOL   H47731913   6.438   3.574   5.688 -0.4957 -1.2792  0.1416
   59MOL   H47831914   6.399   3.593   5.513  0.5661 -0.4177 -0.4083
   59MOL   H47931915   6.567   3.769   5.496  2.6167 -1.3263  0.6846
   59MOL   H48031916   6.597   3.736   5.675  1.6227 -1.8757 -1.1629
   59MOL   H48131917   6.342   3.835   5.570 -0.5793 -0.1896  0.6781
   59MOL   H48231918   6.376   3.807   5.736 -0.7026 -1.7252 -1.2206
   59MOL   H48331919   6.360   4.298   5.786 -2.1290  3.1666 -0.9018
   59MOL   H48431920   6.351   4.304   5.614  3.1958 -0.0025 -2.5484
   59MOL   H48531921   6.471   4.408   5.701  0.6327  0.4129 -0.6141
   59MOL   H48631922   6.666   4.298   5.785 -1.6063  0.7017 -0.7981
   59MOL   H48731923   6.710   4.134   5.758 -0.7376 -0.4340  0.8956
   59MOL   C48831924   6.493   4.017   6.572  0.4346  0.2704  0.2890
   59MOL   C48931925   6.602   3.922   6.527 -0.3775  0.9637  0.2032
   59MOL   C49031926   6.619   3.933   6.379 -0.3811 -0.6244 -0.0863
   59MOL   C49131927   6.515   3.847   6.294 -0.0102 -0.0739  0.1072
   59MOL   C49231928   6.552   3.848   6.142  1.4799 -0.0659 -0.2671
   59MOL   O49331929   6.547   3.983   6.094 -0.3411  0.0010  0.3351
   59MOL   C49431930   6.608   4.017   5.979 -0.1261  0.2635 -0.0507
   59MOL   O49531931   6.656   3.929   5.905  0.1158  0.4336  0.3521
   59MOL   C49631932   6.612   4.168   5.950  0.4188  0.2334  0.3869
   59MOL   C49731933   6.480   4.233   6.001 -0.1854  0.4796  0.1989
   59MOL   C49831934   6.724   4.234   6.040  0.7212  0.3022  0.0745
   59MOL   H49931935   6.394   3.991   6.536  0.3400  0.1807  0.6167
   59MOL   H50031936   6.480   4.004   6.679 -0.5234 -0.7475  0.0544
   59MOL   H50131937   6.518   4.117   6.535 -0.9338 -0.1320 -1.7931
   59MOL   H50231938   6.576   3.819   6.552 -2.7680  1.4586 -0.1508
   59MOL   H50331939   6.690   3.944   6.588  0.7964 -0.2861 -1.0039
   59MOL   H50431940   6.631   4.038   6.351 -2.0374 -0.6325 -0.8559
   59MOL   H50531941   6.716   3.891   6.352 -0.0361  0.4369 -0.5417
   59MOL   H50631942   6.416   3.888   6.317 -0.7492 -0.6965 -1.8459
   59MOL   H50731943   6.527   3.744   6.327  1.3379 -0.4963 -1.6554
   59MOL   H50831944   6.648   3.800   6.127  0.5314 -1.7917 -0.9996
   59MOL   H50931945   6.481   3.790   6.083  0.6526  1.2119 -0.5392
   59MOL   H51031946   6.469   4.337   5.970  0.1608  0.8162  1.1885
   59MOL   H51131947   6.480   4.243   6.109 -0.3461  0.9775  0.1561
   59MOL   H51231948   6.395   4.171   5.973  1.2426 -1.0462 -0.8407
   59MOL   H51331949   6.707   4.202   6.143 -3.5048  1.2954 -0.2443
   59MOL   H51431950   6.710   4.342   6.043 -2.3283 -0.0440 -0.3276
   59MOL   C51531951   7.167   4.781   6.273  0.1917  0.2387  0.5356
   59MOL   C51631952   7.112   4.806   6.138  0.1573 -0.1756  0.6640
   59MOL   C51731953   7.062   4.672   6.077  0.0940 -0.7194 -0.4231
   59MOL   C51831954   6.969   4.676   5.959  0.4065  0.4024  0.4286
   59MOL   C51931955   6.964   4.547   5.885 -0.0629  0.8722  0.2146
   59MOL   O52031956   6.899   4.441   5.946 -0.6265  0.0459  0.1275
   59MOL   C52131957   6.928   4.315   5.902  0.4806 -0.3429 -0.6551
   59MOL   O52231958   6.999   4.282   5.809 -0.3514  0.5206  0.2417
   59MOL   C52331959   6.876   4.213   6.014 -0.8454 -0.0739  0.6088
   59MOL   C52431960   6.910   4.068   5.972 -0.2609 -0.0745 -0.4155
   59MOL   C52531961   6.956   4.245   6.138  0.5990  0.2055  0.3239
   59MOL   H52631962   7.262   4.729   6.278  0.2355 -0.0174 -2.1287
   59MOL   H52731963   7.190   4.881   6.311  0.9220  0.4878 -0.5247
   59MOL   H52831964   7.088   4.745   6.339 -0.3604 -5.0126 -2.6714
   59MOL   H52931965   7.028   4.876   6.142 -0.4916 -0.8470 -0.9274
   59MOL   H53031966   7.182   4.853   6.070 -0.7045 -0.7209 -0.6268
   59MOL   H53131967   7.152   4.624   6.039 -0.1908  0.0181 -2.0916
   59MOL   H53231968   7.021   4.602   6.149 -2.3301  2.5710  1.5762
   59MOL   H53331969   6.996   4.746   5.879  0.5115  0.2189  0.3028
   59MOL   H53431970   6.868   4.694   5.996  0.4627  2.2863 -0.2588
   59MOL   H53531971   6.900   4.574   5.801 -1.9077  0.8732  1.5631
   59MOL   H53631972   7.065   4.515   5.861 -1.0514 -0.0176 -2.9229
   59MOL   H53731973   6.861   3.998   6.041  0.2772 -0.5680 -0.5258
   59MOL   H53831974   7.016   4.041   5.977 -0.6677 -1.7472 -0.4188
   59MOL   H53931975   6.875   4.037   5.873  0.2497 -2.9632  0.2473
   59MOL   H54031976   6.926   4.347   6.161  2.0760  1.1034 -1.6499
   59MOL   H54131977   7.063   4.247   6.118  0.2833  0.1439 -1.4670
   59MOL   H54231978   6.940   4.175   6.221  1.5386 -0.9714 -0.4680
   60MOL     C131979   2.623   3.548   4.092  0.4032  0.5712 -0.4096
   60MOL     C231980   2.513   3.522   3.990 -0.3321 -0.0138  0.1433
   60MOL     C331981   2.450   3.378   3.990  0.1863 -0.8836  0.2693
   60MOL     C431982   2.389   3.331   3.857  0.2754  0.6443 -0.4101
   60MOL     C531983   2.257   3.400   3.841  0.4322 -0.9954  0.4705
   60MOL     O631984   2.184   3.352   3.728 -0.8110 -0.2592 -0.7633
   60MOL     C731985   2.220   3.387   3.606 -0.0436 -0.1308 -0.3981
   60MOL     O831986   2.323   3.449   3.570 -0.4748  0.3201 -0.7499
   60MOL     C931987   2.126   3.331   3.500 -0.2160 -0.4372  0.6919
   60MOL    C1031988   2.001   3.418   3.491 -0.8046  0.3558 -0.4386
   60MOL    C1131989   2.089   3.181   3.503 -0.2732 -0.1055 -0.4600
   60MOL    H1231990   2.705   3.481   4.068  2.1577  2.7613 -0.7305
   60MOL    H1331991   2.574   3.545   4.189  1.4289  1.5807  0.1573
   60MOL    H1431992   2.655   3.652   4.079  0.9790  0.2741 -1.4257
   60MOL    H1531993   2.433   3.596   3.994  0.9151  1.2854  1.6881
   60MOL    H1631994   2.565   3.540   3.895 -0.2825  0.4507  0.2575
   60MOL    H1731995   2.531   3.310   4.016  0.8001 -0.6944 -1.1125
   60MOL    H1831996   2.374   3.357   4.065 -0.6587 -2.6748 -1.0448
   60MOL    H1931997   2.372   3.224   3.848 -4.0188  1.2805 -0.7266
   60MOL    H2031998   2.451   3.351   3.770 -0.6374 -3.0951 -2.0032
   60MOL    H2131999   2.208   3.378   3.936 -1.3868 -0.5485 -0.3463
   60MOL    H2232000   2.265   3.509   3.841 -1.1550 -0.8622  1.3296
   60MOL    H2332001   2.033   3.509   3.441 -1.9498  0.7262 -0.4873
   60MOL    H2432002   1.953   3.434   3.588 -0.0535 -2.9655  0.5773
   60MOL    H2532003   1.929   3.382   3.418 -0.4957 -2.5910  0.6379
   60MOL    H2632004   2.000   3.170   3.442 -1.2517 -0.0749  0.9472
   60MOL    H2732005   2.054   3.156   3.603  2.3448  0.4744  0.6583
   60MOL    H2832006   2.168   3.356   3.402 -1.0948  0.6273  0.5836
   60MOL    C2932007   2.666   3.315   2.791  0.0175  0.6397 -0.8710
   60MOL    C3032008   2.651   3.244   2.923  0.2520  0.0809 -0.0355
   60MOL    C3132009   2.517   3.271   2.982  0.4541 -0.3207  0.5695
   60MOL    C3232010   2.468   3.179   3.090 -0.8024 -0.1349 -0.6546
   60MOL    C3332011   2.341   3.241   3.159  0.2510  0.3090 -0.3538
   60MOL    O3432012   2.315   3.195   3.289 -0.1487  0.0163  0.1548
   60MOL    C3532013   2.232   3.095   3.309  0.3729  0.0313 -0.4013
   60MOL    O3632014   2.172   3.031   3.228  0.7103  0.4793  0.7132
   60MOL    C3732015   2.198   3.070   3.457 -0.9890 -0.1292  0.1528
   60MOL    C3832016   2.133   2.932   3.474  0.3704 -0.0812  0.1469
   60MOL    C3932017   2.323   3.083   3.548  0.3392 -0.6426  0.1837
   60MOL    H4032018   2.594   3.279   2.716  0.1981  2.5870 -2.0047
   60MOL    H4132019   2.654   3.423   2.796  0.3021  0.6562 -0.5863
   60MOL    H4232020   2.769   3.303   2.758  0.3211 -1.0883  0.5933
   60MOL    H4332021   2.735   3.278   2.984 -0.7182 -0.9663  1.9438
   60MOL    H4432022   2.664   3.137   2.905  0.2310 -0.0508  0.7247
   60MOL    H4532023   2.452   3.273   2.895 -2.7805  3.4115  2.9307
   60MOL    H4632024   2.514   3.374   3.016  0.2908 -0.3561  0.6598
   60MOL    H4732025   2.442   3.078   3.057 -1.5212 -0.3986  0.6939
   60MOL    H4832026   2.545   3.182   3.168 -1.6547  0.4010  0.1746
   60MOL    H4932027   2.253   3.234   3.095  0.8999  0.8160 -1.2975
   60MOL    H5032028   2.354   3.349   3.165 -1.0360  0.5545 -1.7275
   60MOL    H5132029   2.037   2.915   3.425  0.8090 -1.0775 -0.3875
   60MOL    H5232030   2.101   2.920   3.578 -1.3185  0.0789 -0.3445
   60MOL    H5332031   2.204   2.858   3.437  0.0312 -1.8956  2.9594
   60MOL    H5432032   2.290   3.108   3.649  0.2592  1.9568 -0.4657
   60MOL    H5532033   2.374   3.176   3.526  0.1984 -0.6328 -0.0969
   60MOL    C5632034   2.016   3.150   4.092  0.1313 -0.0437 -0.1982
   60MOL    C5732035   2.048   3.016   4.036 -0.4306 -0.2731  0.3466
   60MOL    C5832036   2.190   2.998   3.973 -1.2173 -0.5297 -0.0939
   60MOL    C5932037   2.192   2.858   3.917  0.3116  0.1761 -0.0983
   60MOL    C6032038   2.331   2.816   3.886  0.1667  0.2282  0.2200
   60MOL    O6132039   2.393   2.900   3.793 -0.4299 -0.4797  0.3021
   60MOL    C6232040   2.382   2.867   3.664 -0.2910  1.3395 -0.2388
   60MOL    O6332041   2.334   2.764   3.621 -1.2597  0.8172 -0.3428
   60MOL    C6432042   2.431   2.974   3.565 -0.4169 -0.6053 -0.3786
   60MOL    C6532043   2.555   3.035   3.641  0.5433 -0.3588  0.6423
   60MOL    C6632044   2.475   2.913   3.422 -0.0346 -0.5497  0.3464
   60MOL    H6732045   2.076   3.162   4.182 -0.2508 -0.7150  0.1526
   60MOL    H6832046   1.912   3.166   4.120  0.3533 -0.0954  0.6573
   60MOL    H6932047   2.044   3.233   4.027 -2.4496 -0.4461 -1.9105
   60MOL    H7032048   2.037   2.944   4.116  1.6485 -0.9153  0.0722
   60MOL    H7132049   1.975   2.999   3.957 -2.0179  1.7416  1.3213
   60MOL    H7232050   2.204   3.070   3.892 -1.5761 -1.9139 -1.4100
   60MOL    H7332051   2.258   3.012   4.057 -2.3553 -0.7644  0.8777
   60MOL    H7432052   2.126   2.852   3.831  1.5948  1.5118 -1.2065
   60MOL    H7532053   2.154   2.778   3.981  0.1499 -0.9441 -1.5720
   60MOL    H7632054   2.389   2.836   3.976  1.3838 -2.7903  0.1694
   60MOL    H7732055   2.328   2.710   3.860 -0.2452  0.0910  0.8385
   60MOL    H7832056   2.516   3.097   3.721 -2.2736 -3.2305  1.5895
   60MOL    H7932057   2.603   3.102   3.569 -1.7419  0.5755 -0.0798
   60MOL    H8032058   2.626   2.967   3.686  1.9113  1.2108  0.8921
   60MOL    H8132059   2.486   2.995   3.351  0.5142 -1.3257 -0.4715
   60MOL    H8232060   2.403   2.838   3.392  1.8474 -1.4705 -2.0609
   60MOL    C8332061   2.653   3.540   3.397  0.0336  0.1190 -0.2033
   60MOL    C8432062   2.761   3.462   3.336  0.3852 -0.1696 -0.0880
   60MOL    C8532063   2.747   3.316   3.375  0.2899 -0.3669  0.4157
   60MOL    C8632064   2.842   3.223   3.295 -0.5864 -1.0818  0.6842
   60MOL    C8732065   2.858   3.079   3.352  0.0561 -0.2575 -0.3433
   60MOL    O8832066   2.736   3.016   3.353 -0.1688  1.1369  0.0335
   60MOL    C8932067   2.733   2.903   3.426  0.4814 -0.3034 -0.2378
   60MOL    O9032068   2.814   2.876   3.517 -0.1900 -0.1352  0.2097
   60MOL    C9132069   2.605   2.816   3.399 -0.1943 -0.0273 -0.3810
   60MOL    C9232070   2.589   2.690   3.482 -0.1220  0.0313 -0.2287
   60MOL    C9332071   2.599   2.777   3.245  0.3003 -0.5086 -0.4377
   60MOL    H9432072   2.650   3.648   3.379  0.1761  0.2788  0.7315
   60MOL    H9532073   2.556   3.501   3.367 -0.2838  1.4954 -1.0453
   60MOL    H9632074   2.652   3.518   3.503 -1.6060  1.1972  0.0199
   60MOL    H9732075   2.855   3.496   3.379  0.3644  0.3226 -0.4247
   60MOL    H9832076   2.752   3.480   3.229  0.5951  3.7362  0.4836
   60MOL    H9932077   2.645   3.285   3.354  0.3084 -0.1942  0.0557
   60MOL   H10032078   2.763   3.311   3.482  0.8602  4.6093  0.6707
   60MOL   H10132079   2.946   3.256   3.301  0.0277 -3.0627  1.1172
   60MOL   H10232080   2.822   3.226   3.188  0.0108  0.4468  0.5976
   60MOL   H10332081   2.908   3.084   3.449  1.9404 -1.2906 -1.2553
   60MOL   H10432082   2.925   3.029   3.282  1.0101  0.0496  0.3375
   60MOL   H10532083   2.584   2.705   3.590  1.6723 -0.4786 -0.0557
   60MOL   H10632084   2.679   2.630   3.468 -0.9406 -1.3285  0.2221
   60MOL   H10732085   2.509   2.626   3.445 -0.8230  2.2166 -2.5805
   60MOL   H10832086   2.496   2.749   3.220 -0.2752 -0.6217  1.8878
   60MOL   H10932087   2.597   2.868   3.185 -1.3423  0.5212  1.0934
   60MOL   C11032088   2.081   2.506   3.467  0.1781  0.4935 -0.0935
   60MOL   C11132089   2.164   2.376   3.473 -0.5310 -0.6256  0.4142
   60MOL   C11232090   2.242   2.333   3.344 -0.2751 -0.1593  0.0667
   60MOL   C11332091   2.343   2.439   3.299  0.2710 -0.4338 -0.2940
   60MOL   C11432092   2.458   2.382   3.219  0.2053 -0.0565  0.4804
   60MOL   O11532093   2.533   2.503   3.183 -0.0421 -0.6385  0.1218
   60MOL   C11632094   2.661   2.528   3.226 -0.1989 -0.7141  0.0701
   60MOL   O11732095   2.735   2.446   3.277  0.0818 -0.0239 -0.8343
   60MOL   C11832096   2.709   2.670   3.180 -0.4713  0.1837 -0.7394
   60MOL   C11932097   2.861   2.684   3.228 -0.0831 -0.0087 -0.1792
   60MOL   C12032098   2.689   2.671   3.027  0.2567 -0.1905 -0.0928
   60MOL   H12132099   2.133   2.601   3.448 -1.3684  1.1287 -1.2280
   60MOL   H12232100   1.990   2.494   3.409  0.8074  1.7598 -1.3756
   60MOL   H12332101   2.038   2.531   3.564 -1.9254  0.9791 -1.1302
   60MOL   H12432102   2.237   2.383   3.554 -2.1178  1.0395  1.7495
   60MOL   H12532103   2.094   2.305   3.518 -1.5628  0.3042  0.3028
   60MOL   H12632104   2.289   2.239   3.374  1.0788  0.3372 -0.4900
   60MOL   H12732105   2.169   2.307   3.267  1.7893 -0.5624 -1.8101
   60MOL   H12832106   2.381   2.482   3.392 -0.0837  1.2664 -0.9339
   60MOL   H12932107   2.303   2.515   3.233 -0.9835 -0.5414  0.3217
   60MOL   H13032108   2.517   2.313   3.280  1.3659 -0.4138 -1.0138
   60MOL   H13132109   2.415   2.326   3.136  2.1738 -1.1110  0.1384
   60MOL   H13232110   2.931   2.604   3.202  0.2614  0.4104 -0.5388
   60MOL   H13332111   2.889   2.784   3.196 -1.7285 -0.3431 -2.7936
   60MOL   H13432112   2.863   2.682   3.337 -1.7126 -0.8736 -0.1521
   60MOL   H13532113   2.582   2.668   3.006  0.0290  1.5431  0.6825
   60MOL   H13632114   2.696   2.778   3.006  3.5509 -0.5195 -0.9921
   60MOL   C13732115   3.152   3.153   2.623 -0.3044 -0.9147  0.3415
   60MOL   C13832116   3.027   3.069   2.630 -0.1645 -0.0401 -0.0164
   60MOL   C13932117   3.042   2.927   2.698 -0.1996  0.0036 -0.4389
   60MOL   C14032118   3.080   2.950   2.848 -0.3091  0.7605 -0.0040
   60MOL   C14132119   3.074   2.820   2.925 -0.5299  0.2878  0.1091
   60MOL   O14232120   2.941   2.771   2.937 -0.2386  0.2280 -0.3578
   60MOL   C14332121   2.934   2.640   2.943  0.4124  0.7779 -0.0482
   60MOL   O14432122   3.031   2.569   2.974  0.2331  0.3433 -0.7309
   60MOL   C14532123   2.788   2.598   2.929  0.0011 -0.0028 -0.0734
   60MOL   C14632124   2.781   2.448   2.949 -0.0087 -0.1781  0.2595
   60MOL   C14732125   2.725   2.619   2.788  0.3798 -0.4524 -0.4024
   60MOL   H14832126   3.233   3.108   2.565  0.5949 -0.4279  1.2229
   60MOL   H14932127   3.196   3.177   2.719  1.7522 -1.6924 -0.3678
   60MOL   H15032128   3.140   3.242   2.561  0.2121 -0.2492  1.1906
   60MOL   H15132129   2.983   3.059   2.530  1.4629 -2.3633 -0.5383
   60MOL   H15232130   2.961   3.129   2.692  0.5746 -0.4822  1.2032
   60MOL   H15332131   2.946   2.879   2.681 -1.0990  1.2885  0.8068
   60MOL   H15432132   3.114   2.865   2.645  0.3404  1.1686 -1.0734
   60MOL   H15532133   3.180   2.986   2.867  0.8626 -1.8187 -1.0188
   60MOL   H15632134   3.004   3.013   2.895  0.4775  0.5759  1.5242
   60MOL   H15732135   3.110   2.841   3.026  0.0754 -1.3418  0.2449
   60MOL   H15832136   3.149   2.756   2.878 -0.4226  0.4504  0.0541
   60MOL   H15932137   2.678   2.412   2.942  0.2486 -1.1634  1.4969
   60MOL   H16032138   2.828   2.399   3.034  1.9202 -1.1822 -1.3406
   60MOL   H16132139   2.842   2.391   2.879 -0.5674 -0.7451  0.2303
   60MOL   H16232140   2.617   2.629   2.803  0.1997 -0.9028 -1.3449
   60MOL   H16332141   2.758   2.722   2.774  0.1684 -0.6649 -2.8162
   60MOL   C16432142   2.236   2.108   2.870 -0.1928  0.2420 -0.4316
   60MOL   C16532143   2.355   2.025   2.813 -0.5305 -0.6497 -0.5442
   60MOL   C16632144   2.500   2.055   2.862  0.1369 -0.2458  0.2458
   60MOL   C16732145   2.549   2.200   2.846 -0.3815 -0.5960  0.2956
   60MOL   C16832146   2.515   2.273   2.714 -0.3541 -0.2539 -0.4299
   60MOL   O16932147   2.598   2.388   2.712  0.5899  0.0393 -0.4825
   60MOL   C17032148   2.712   2.404   2.645  0.8118 -0.1654  0.9914
   60MOL   O17132149   2.753   2.316   2.571  0.1350  0.2329  0.0897
   60MOL   C17232150   2.768   2.550   2.653  0.0313 -0.0041  0.0282
   60MOL   C17332151   2.921   2.541   2.637 -0.8239 -0.3201 -0.8344
   60MOL   C17432152   2.728   2.632   2.526 -0.0294 -0.0267 -0.3941
   60MOL   H17532153   2.264   2.129   2.973  0.4055 -1.3761 -0.2533
   60MOL   H17632154   2.141   2.057   2.854 -0.6341  0.5669  1.0799
   60MOL   H17732155   2.225   2.202   2.816  2.0315  0.1641 -1.0451
   60MOL   H17832156   2.357   2.016   2.704 -1.0590  2.0265 -0.7915
   60MOL   H17932157   2.347   1.921   2.845  1.6105 -0.5622  0.3567
   60MOL   H18032158   2.509   2.021   2.965 -0.9752 -1.3155  0.0082
   60MOL   H18132159   2.568   1.991   2.806 -1.2834 -1.1842 -0.4210
   60MOL   H18232160   2.654   2.211   2.873 -1.2995  2.0558  3.2129
   60MOL   H18332161   2.511   2.266   2.924  0.6164  0.9069 -0.4666
   60MOL   H18432162   2.408   2.297   2.717 -0.7721 -2.0000 -0.8277
   60MOL   H18532163   2.531   2.236   2.613 -2.5761 -2.1556 -0.1290
   60MOL   H18632164   2.969   2.538   2.539 -0.9815 -1.2081 -0.8928
   60MOL   H18732165   2.953   2.452   2.692  1.4567 -0.3890 -2.2153
   60MOL   H18832166   2.969   2.628   2.681  1.1854 -1.7691 -0.0511
   60MOL   H18932167   2.804   2.710   2.524  2.4355 -2.3111  1.0769
   60MOL   H19032168   2.751   2.568   2.440  0.0147  1.8693 -1.8264
   60MOL   C19132169   2.196   2.583   2.972  0.1531 -0.6834 -0.2749
   60MOL   C19232170   2.191   2.733   2.941 -1.0500  0.1260  0.2857
   60MOL   C19332171   2.310   2.786   2.860  0.2138  0.3976 -0.0061
   60MOL   C19432172   2.299   2.921   2.811 -0.6795 -0.0554  0.2671
   60MOL   C19532173   2.430   2.960   2.732  0.6756  0.3427 -0.4524
   60MOL   O19632174   2.456   2.864   2.628 -0.6880  0.1720  0.4599
   60MOL   C19732175   2.583   2.839   2.578  0.4011  0.1718 -0.0151
   60MOL   O19832176   2.678   2.911   2.606  0.0039  0.0414 -0.2337
   60MOL   C19932177   2.593   2.709   2.494  0.3353  0.8140  0.5835
   60MOL   C20032178   2.480   2.607   2.523  0.0283 -0.7025 -0.4087
   60MOL   C20132179   2.583   2.742   2.334 -0.2243  0.8609 -0.2187
   60MOL   H20232180   2.196   2.525   2.880  0.6712 -0.7293 -0.2473
   60MOL   H20332181   2.294   2.568   3.018 -0.2016  1.6723  1.2928
   60MOL   H20432182   2.123   2.547   3.045  1.4632  1.9691  2.4669
   60MOL   H20532183   2.189   2.790   3.034 -0.8473 -0.3604  0.5849
   60MOL   H20632184   2.099   2.750   2.884 -0.6543  1.6176  0.0653
   60MOL   H20732185   2.329   2.727   2.771 -1.6284 -0.3651  0.0907
   60MOL   H20832186   2.402   2.768   2.916 -0.3982  0.5430  1.0544
   60MOL   H20932187   2.214   2.923   2.742 -0.7506 -0.1865  0.3500
   60MOL   H21032188   2.298   3.005   2.880  0.9680 -0.1561  0.4260
   60MOL   H21132189   2.419   3.056   2.681 -0.8415  1.0748  1.1707
   60MOL   H21232190   2.506   2.980   2.808  0.2882  2.5203 -0.5940
   60MOL   H21332191   2.391   2.648   2.473  1.7901 -0.9623 -3.8913
   60MOL   H21432192   2.470   2.596   2.631  0.3150 -3.3463 -0.6388
   60MOL   H21532193   2.499   2.509   2.479  0.2412 -0.5086 -0.7496
   60MOL   H21632194   2.533   2.662   2.280  0.1234  0.5115 -0.0259
   60MOL   H21732195   2.687   2.732   2.304 -0.2952 -2.4863  0.4415
   60MOL   C21832196   2.166   2.466   2.536 -0.3300 -0.0758 -1.1583
   60MOL   C21932197   2.067   2.583   2.559 -0.3327 -0.2241  0.6005
   60MOL   C22032198   2.106   2.720   2.499 -0.0221  0.0346  0.2046
   60MOL   C22132199   2.088   2.723   2.345 -0.0690 -0.1938 -0.3486
   60MOL   C22232200   2.158   2.831   2.268 -0.4573 -0.1051  0.1163
   60MOL   O22332201   2.297   2.802   2.260 -0.0060 -0.7000 -0.0200
   60MOL   C22432202   2.379   2.897   2.319  0.3463  0.1887  0.2647
   60MOL   O22532203   2.340   2.995   2.378  0.0840 -0.0150 -0.3974
   60MOL   C22632204   2.526   2.872   2.282  0.3365 -0.3681 -0.0662
   60MOL   C22732205   2.523   2.851   2.130 -0.2562  0.6123 -0.1997
   60MOL   C22832206   2.612   2.998   2.307 -0.9376  0.1389  0.0341
   60MOL   H22932207   2.260   2.483   2.590 -0.5867  3.0395 -1.5723
   60MOL   H23032208   2.120   2.373   2.568  0.5238 -0.0718  0.1301
   60MOL   H23132209   2.191   2.437   2.434 -0.4919 -0.6727 -1.0257
   60MOL   H23232210   2.050   2.607   2.664 -1.0459 -0.1793  0.4719
   60MOL   H23332211   1.971   2.557   2.515 -0.4292  0.6039  0.3054
   60MOL   H23432212   2.197   2.765   2.539  0.0963  0.2093 -0.2482
   60MOL   H23532213   2.026   2.782   2.539 -0.3705  0.2623 -0.8283
   60MOL   H23632214   2.124   2.630   2.302 -2.4480 -1.0613 -0.5192
   60MOL   H23732215   1.981   2.726   2.324 -0.5627 -0.3121  1.9784
   60MOL   H23832216   2.136   2.924   2.321 -1.0203 -1.1897  1.8253
   60MOL   H23932217   2.114   2.841   2.168  2.9400  0.2746 -1.4078
   60MOL   H24032218   2.618   2.867   2.078 -0.9306  1.3653 -1.2007
   60MOL   H24132219   2.454   2.924   2.088  0.3418  1.2797 -0.0296
   60MOL   H24232220   2.481   2.757   2.094  1.7461 -0.2127 -0.4630
   60MOL   H24332221   2.713   2.957   2.312  0.4574  3.5205  0.6024
   60MOL   H24432222   2.581   3.026   2.408 -0.1697  1.0849  0.0161
   60MOL   C24532223   2.122   3.312   2.779 -0.2475 -0.4136  0.5125
   60MOL   C24632224   2.165   3.406   2.672 -0.3853  0.0137 -0.6137
   60MOL   C24732225   2.251   3.331   2.563 -0.4680  0.8016  0.2026
   60MOL   C24832226   2.287   3.413   2.439  0.7949  0.1644 -0.2676
   60MOL   C24932227   2.300   3.341   2.308 -0.3881  0.2849  0.1085
   60MOL   O25032228   2.427   3.269   2.321  0.3440  0.7104  0.2054
   60MOL   C25132229   2.484   3.197   2.213  0.2177 -0.2810 -0.5220
   60MOL   O25232230   2.424   3.194   2.106 -0.3730 -0.0726 -0.0151
   60MOL   C25332231   2.628   3.134   2.235 -0.7764  0.0678 -0.5219
   60MOL   C25432232   2.695   3.127   2.100  0.5451  0.0183  0.0610
   60MOL   C25532233   2.717   3.227   2.333  0.2973 -0.0608  0.1449
   60MOL   H25632234   2.062   3.232   2.735 -0.2832  0.5147 -1.1706
   60MOL   H25732235   2.205   3.271   2.837 -0.7703  0.4656  1.9323
   60MOL   H25832236   2.062   3.367   2.852 -0.8491  0.1264 -0.3866
   60MOL   H25932237   2.076   3.456   2.635 -0.9310  1.1432  2.0918
   60MOL   H26032238   2.237   3.477   2.713  0.5723 -0.7843 -0.9050
   60MOL   H26132239   2.209   3.233   2.539  1.5028 -0.4544  1.7662
   60MOL   H26232240   2.350   3.314   2.604 -0.1546  2.8048  0.3241
   60MOL   H26332241   2.216   3.493   2.418  0.0893 -0.3953 -0.0432
   60MOL   H26432242   2.382   3.461   2.467 -1.1558  2.7479  2.2964
   60MOL   H26532243   2.225   3.262   2.297  0.8484 -1.0173  0.7879
   60MOL   H26632244   2.287   3.410   2.225 -0.2622  0.1653 -0.0111
   60MOL   H26732245   2.627   3.061   2.045  1.4380 -0.3363 -0.6270
   60MOL   H26832246   2.696   3.216   2.036  1.4824 -1.6729 -2.3575
   60MOL   H26932247   2.788   3.071   2.095  0.5542  0.2175 -3.0552
   60MOL   H27032248   2.654   3.240   2.422  1.4024 -0.5998  1.0289
   60MOL   H27132249   2.790   3.163   2.383  0.9408  0.6529  0.1168
   60MOL   C27232250   3.047   2.752   2.274 -0.0341  0.5065  0.4294
   60MOL   C27332251   3.124   2.879   2.300  0.4719 -0.1559  0.4843
   60MOL   C27432252   3.076   2.991   2.200  0.1221  0.0970 -0.3909
   60MOL   C27532253   3.166   3.115   2.204 -0.0634 -0.1773  0.2778
   60MOL   C27632254   3.101   3.233   2.140 -0.1589 -0.5106  1.0422
   60MOL   O27732255   2.994   3.269   2.228 -0.0601  0.3321 -0.1189
   60MOL   C27832256   2.890   3.351   2.197  0.6992  0.5745  0.5680
   60MOL   O27932257   2.879   3.397   2.081  0.6157  0.3129 -0.8552
   60MOL   C28032258   2.780   3.365   2.304  0.1750 -0.1221  0.4126
   60MOL   C28132259   2.666   3.462   2.256 -0.3985 -0.4014 -0.4187
   60MOL   C28232260   2.844   3.415   2.436 -0.5846  0.2145  0.2435
   60MOL   H28332261   2.940   2.772   2.270 -0.5831 -1.8521  2.1968
   60MOL   H28432262   3.085   2.697   2.188  1.5196 -0.3248  1.6177
   60MOL   H28532263   3.056   2.672   2.348  0.7116  0.1341 -0.0579
   60MOL   H28632264   3.104   2.918   2.399 -1.3020  4.1263 -1.4331
   60MOL   H28732265   3.228   2.849   2.287  1.0204  1.4909  0.8834
   60MOL   H28832266   3.056   2.956   2.098 -1.1342 -3.4764  0.9992
   60MOL   H28932267   2.978   3.012   2.243  0.8187 -0.0008  1.2827
   60MOL   H29032268   3.203   3.130   2.306  1.0428 -0.2970 -0.1047
   60MOL   H29132269   3.253   3.095   2.142  0.2588  2.2010 -0.0902
   60MOL   H29232270   3.061   3.202   2.044 -0.3706 -0.7981  1.2233
   60MOL   H29332271   3.173   3.315   2.129  0.8977 -1.6936 -1.1470
   60MOL   H29432272   2.593   3.475   2.336 -0.5978  0.7427 -0.7816
   60MOL   H29532273   2.695   3.556   2.210  0.8712 -0.1817  0.7683
   60MOL   H29632274   2.616   3.408   2.176 -0.2920  0.7202 -1.2518
   60MOL   H29732275   2.757   3.441   2.496  0.5432  1.1398  1.5225
   60MOL   H29832276   2.886   3.329   2.488 -1.3608 -0.8270 -0.8355
   60MOL   C29932277   2.225   4.022   2.351  0.1533 -0.8251  0.2428
   60MOL   C30032278   2.308   3.901   2.344  0.3769 -0.5356  0.2678
   60MOL   C30132279   2.452   3.925   2.388 -0.1999  0.1432  0.2973
   60MOL   C30232280   2.544   3.798   2.383  0.3767  0.7499  0.1483
   60MOL   C30332281   2.681   3.823   2.454  1.1489  0.1761 -0.1429
   60MOL   O30432282   2.754   3.709   2.491  0.3211  0.3492  0.4614
   60MOL   C30532283   2.863   3.659   2.410  0.6332 -0.1946  0.1383
   60MOL   O30632284   2.883   3.702   2.297 -0.3219  0.2799 -0.0007
   60MOL   C30732285   2.938   3.539   2.466 -0.0984 -0.2669 -0.4674
   60MOL   C30832286   2.956   3.544   2.623  0.2892 -0.0340  0.4096
   60MOL   C30932287   3.082   3.525   2.407 -0.4400 -0.5316 -0.0933
   60MOL   H31032288   2.118   4.006   2.334  0.0061 -1.0874  1.4174
   60MOL   H31132289   2.260   4.089   2.272  0.4624  0.3491  1.3638
   60MOL   H31232290   2.240   4.074   2.445  2.8013 -0.9478 -0.0888
   60MOL   H31332291   2.300   3.842   2.252 -1.7978  0.8165 -0.4369
   60MOL   H31432292   2.273   3.827   2.416 -2.0115 -0.4918 -0.8048
   60MOL   H31532293   2.456   3.965   2.489 -0.2716 -1.2487  0.8669
   60MOL   H31632294   2.491   3.997   2.316  1.4310  0.1452  1.1503
   60MOL   H31732295   2.560   3.786   2.276  2.1639  2.8707  0.1155
   60MOL   H31832296   2.483   3.721   2.430  0.1340  0.2614 -0.9637
   60MOL   H31932297   2.744   3.898   2.406  1.7446 -0.3515 -0.1799
   60MOL   H32032298   2.661   3.878   2.547  0.5492 -0.6846  0.2401
   60MOL   H32132299   2.997   3.450   2.661 -2.3829 -2.1780 -1.7191
   60MOL   H32232300   3.009   3.632   2.659 -1.0774 -0.4453  3.5089
   60MOL   H32332301   2.861   3.547   2.676 -0.9336 -0.0878 -1.7065
   60MOL   H32432302   3.064   3.531   2.299  0.7442  1.2871 -0.2143
   60MOL   H32532303   3.119   3.424   2.424 -1.9865 -0.8619  1.3647
   60MOL   C32632304   3.832   3.497   2.400  0.6657 -0.7018 -0.7866
   60MOL   C32732305   3.717   3.457   2.298 -0.5676 -0.2753  0.2078
   60MOL   C32832306   3.623   3.353   2.338 -0.4103  0.4197  0.4464
   60MOL   C32932307   3.534   3.330   2.217 -0.1454  0.3830 -0.6596
   60MOL   C33032308   3.431   3.443   2.177  0.0847 -0.0378  0.0090
   60MOL   O33132309   3.338   3.465   2.281  0.0842  0.2030  0.3954
   60MOL   C33232310   3.295   3.597   2.305 -0.5746  0.1207  0.9026
   60MOL   O33332311   3.304   3.692   2.226 -0.2470  0.0408 -0.4820
   60MOL   C33432312   3.209   3.618   2.435  0.6138  0.0616 -0.0467
   60MOL   C33532313   3.168   3.764   2.449 -0.3935 -0.0873  0.4392
   60MOL   C33632314   3.293   3.572   2.560  0.4112 -0.2141  0.0912
   60MOL   H33732315   3.812   3.448   2.495  2.8501 -3.8123 -1.8515
   60MOL   H33832316   3.827   3.604   2.419 -0.0071 -0.9089  0.2439
   60MOL   H33932317   3.931   3.467   2.367  1.5888  1.6619 -0.2809
   60MOL   H34032318   3.778   3.410   2.221 -2.5182 -0.6889 -1.1211
   60MOL   H34132319   3.662   3.547   2.268 -0.5616 -0.3339  0.0207
   60MOL   H34232320   3.565   3.382   2.426  0.0075 -0.1492  0.9193
   60MOL   H34332321   3.688   3.271   2.368 -2.3253 -2.3985 -2.8050
   60MOL   H34432322   3.487   3.236   2.246  1.1368 -0.5079 -1.3872
   60MOL   H34532323   3.593   3.309   2.128 -0.6294  1.7649 -1.3106
   60MOL   H34632324   3.368   3.409   2.095  0.6102 -2.9332  0.7282
   60MOL   H34732325   3.482   3.533   2.143 -0.6672  1.1393  1.9030
   60MOL   H34832326   3.126   3.777   2.548  1.5430 -1.6063  1.5042
   60MOL   H34932327   3.096   3.793   2.373  1.2769  0.5273 -0.9349
   60MOL   H35032328   3.254   3.829   2.432 -1.3780  0.6542 -1.8750
   60MOL   H35132329   3.337   3.475   2.538  3.4083  1.1981 -0.3430
   60MOL   H35232330   3.217   3.555   2.636 -0.6404  1.5656 -0.5014
   60MOL   C35332331   3.596   4.330   2.537  0.0603  0.2301 -0.8934
   60MOL   C35432332   3.585   4.282   2.679  0.5571  0.1919 -0.8871
   60MOL   C35532333   3.489   4.158   2.691  0.8973  0.2204 -0.8168
   60MOL   C35632334   3.501   4.085   2.826 -0.2537  0.6290 -0.3131
   60MOL   C35732335   3.435   3.952   2.838 -0.3282  0.0611  0.1252
   60MOL   O35832336   3.472   3.851   2.742  0.3017 -0.1123  0.1168
   60MOL   C35932337   3.375   3.765   2.709 -0.2104  0.4676 -0.5446
   60MOL   O36032338   3.258   3.767   2.751  0.3666 -0.0174  0.2649
   60MOL   C36132339   3.420   3.653   2.613  0.4032  0.5986 -0.5483
   60MOL   C36232340   3.512   3.723   2.507 -1.2260 -0.8895  0.0522
   60MOL   C36332341   3.515   3.553   2.695  0.7898 -0.0002 -0.2746
   60MOL   H36432342   3.681   4.399   2.531 -1.9842  2.7443 -2.0639
   60MOL   H36532343   3.515   4.394   2.500 -0.3324  0.7726  0.8591
   60MOL   H36632344   3.604   4.259   2.455 -1.9666 -0.6588 -0.3423
   60MOL   H36732345   3.684   4.239   2.699 -0.5437 -1.5711  0.9644
   60MOL   H36832346   3.578   4.355   2.760  3.0650  0.5025 -0.8951
   60MOL   H36932347   3.516   4.087   2.613  1.0059 -1.9700  1.1773
   60MOL   H37032348   3.386   4.191   2.677  0.2699 -0.9987  0.8428
   60MOL   H37132349   3.485   4.145   2.915 -0.2965 -1.6687  1.2562
   60MOL   H37232350   3.605   4.056   2.836 -0.4718  0.2629  1.0132
   60MOL   H37332351   3.448   3.906   2.937  3.3351  1.4245  0.3226
   60MOL   H37432352   3.330   3.974   2.820 -1.2824 -1.9211  2.7916
   60MOL   H37532353   3.466   3.800   2.446 -3.7074 -1.6714  0.8680
   60MOL   H37632354   3.595   3.773   2.558 -0.6919  2.0946 -3.5584
   60MOL   H37732355   3.557   3.657   2.433  1.0496  0.2130  0.3975
   60MOL   H37832356   3.551   3.479   2.625 -2.9319 -0.5181 -1.7109
   60MOL   H37932357   3.610   3.606   2.699  0.6771  0.2082 -0.3576
   60MOL   C38032358   4.055   3.984   2.854 -0.1379  0.7342  0.1185
   60MOL   C38132359   4.002   3.862   2.779  0.5373 -0.2055  0.6889
   60MOL   C38232360   3.867   3.801   2.823  0.3043 -0.5199  0.0652
   60MOL   C38332361   3.877   3.749   2.961 -0.4263  0.0651  0.3057
   60MOL   C38432362   3.744   3.705   3.022  0.9458 -0.1740 -0.3978
   60MOL   O38532363   3.671   3.622   2.928 -0.0911  0.0071 -0.0977
   60MOL   C38632364   3.545   3.587   2.943  0.0003 -0.4040 -0.4300
   60MOL   O38732365   3.478   3.631   3.039 -0.2291  0.5363 -1.0320
   60MOL   C38832366   3.489   3.493   2.838 -0.0336 -0.3637  0.1765
   60MOL   C38932367   3.338   3.462   2.870 -0.1914 -0.8600 -0.1467
   60MOL   C39032368   3.562   3.355   2.828 -0.1523  0.3364 -0.2506
   60MOL   H39132369   4.143   4.023   2.803  0.4023  0.5909  0.9195
   60MOL   H39232370   3.968   4.049   2.864 -1.9887 -1.8435  1.6301
   60MOL   H39332371   4.082   3.959   2.957  0.2874 -2.3948 -0.6942
   60MOL   H39432372   4.074   3.781   2.779  1.3991  0.5520  0.0182
   60MOL   H39532373   4.006   3.893   2.675  0.0415 -1.9368  0.1539
   60MOL   H39632374   3.785   3.874   2.821  2.2264  1.6652 -1.2115
   60MOL   H39732375   3.846   3.729   2.743  1.6737 -0.3744 -0.4384
   60MOL   H39832376   3.945   3.664   2.958  0.1901  0.5148  1.3800
   60MOL   H39932377   3.914   3.812   3.042 -0.5199  2.3415 -1.3806
   60MOL   H40032378   3.689   3.797   3.041 -0.8411 -0.7612 -2.4182
   60MOL   H40132379   3.758   3.647   3.113  0.7215 -1.0528 -0.9086
   60MOL   H40232380   3.316   3.444   2.975  2.5312  0.2737  0.6707
   60MOL   H40332381   3.305   3.371   2.820 -1.7612 -1.1012  1.2825
   60MOL   H40432382   3.267   3.537   2.837  2.2636  1.1112 -1.0938
   60MOL   H40532383   3.654   3.377   2.776 -0.7079 -0.2992 -1.5169
   60MOL   H40632384   3.516   3.279   2.765 -0.0615 -1.4508  1.7763
   60MOL   C40732385   4.398   3.510   2.707  0.4038  0.2057 -0.1026
   60MOL   C40832386   4.247   3.474   2.696 -0.7228  0.5051  0.4818
   60MOL   C40932387   4.188   3.403   2.814 -0.0077 -0.2811 -0.6254
   60MOL   C41032388   4.031   3.406   2.818  0.0220 -0.2112  0.0711
   60MOL   C41132389   3.968   3.345   2.947 -0.0461  0.4897  0.7811
   60MOL   O41232390   3.830   3.321   2.914 -0.1744 -0.7404 -0.2459
   60MOL   C41332391   3.745   3.327   3.007  0.6492 -0.1172  0.0811
   60MOL   O41432392   3.761   3.373   3.120 -0.5336 -0.2578 -0.5885
   60MOL   C41532393   3.611   3.267   2.952 -0.8199 -0.7259  0.9388
   60MOL   C41632394   3.509   3.270   3.066 -0.2626 -0.3514  0.6949
   60MOL   C41732395   3.624   3.111   2.913  0.3768  0.5023 -0.3617
   60MOL   H41832396   4.414   3.590   2.778  1.6507 -1.0327  1.0499
   60MOL   H41932397   4.464   3.431   2.743  0.9689  0.3991 -0.6893
   60MOL   H42032398   4.435   3.540   2.609  0.7658  1.3570  0.3872
   60MOL   H42132399   4.229   3.425   2.601 -1.3028  2.3521 -0.3801
   60MOL   H42232400   4.188   3.565   2.691 -0.4122  0.7792  1.5018
   60MOL   H42332401   4.230   3.304   2.830 -2.2048 -0.8706  1.9283
   60MOL   H42432402   4.216   3.468   2.898 -1.8509  1.4105 -1.2800
   60MOL   H42532403   3.993   3.348   2.733 -0.0593  0.3418 -0.2697
   60MOL   H42632404   3.984   3.503   2.808  0.2466 -0.0437  0.6454
   60MOL   H42732405   4.018   3.250   2.966  0.0216  0.0137 -1.5801
   60MOL   H42832406   3.987   3.416   3.028  0.2245  1.3007  0.0164
   60MOL   H42932407   3.554   3.227   3.155  2.0548 -0.0794 -0.3043
   60MOL   H43032408   3.420   3.210   3.048  0.3275 -1.2253  0.7174
   60MOL   H43132409   3.471   3.370   3.090  0.0015 -0.1558  0.3156
   60MOL   H43232410   3.524   3.091   2.873  0.6384  1.5904 -1.5823
   60MOL   H43332411   3.623   3.054   3.006 -0.6676  1.2408  0.0873
   60MOL   C43432412   3.744   3.142   3.450  0.3368 -0.0478 -0.4312
   60MOL   C43532413   3.852   3.041   3.444 -0.1371  0.1456 -0.4882
   60MOL   C43632414   3.870   2.982   3.308  0.5910  0.3763 -0.1249
   60MOL   C43732415   3.965   3.055   3.214 -0.2536 -0.8221  0.2350
   60MOL   C43832416   3.975   2.979   3.080 -0.6366 -0.2222 -0.3529
   60MOL   O43932417   3.856   2.990   3.002 -0.4162  0.0438 -0.0343
   60MOL   C44032418   3.864   3.027   2.881 -0.4376 -0.0684 -0.2246
   60MOL   O44132419   3.969   3.032   2.821  0.4862  0.1467  0.8491
   60MOL   C44232420   3.725   3.043   2.809  0.3334 -0.1407 -0.5790
   60MOL   C44332421   3.750   3.124   2.679  0.3568  0.0036 -0.3580
   60MOL   C44432422   3.665   2.910   2.755 -0.3731  0.5122  0.0072
   60MOL   H44532423   3.711   3.170   3.550 -0.5116 -1.8499 -0.1901
   60MOL   H44632424   3.779   3.226   3.390 -0.0458  0.1822 -0.3328
   60MOL   H44732425   3.651   3.103   3.408 -0.1577  1.4084 -0.7306
   60MOL   H44832426   3.944   3.085   3.481 -0.1487 -0.2723  0.0420
   60MOL   H44932427   3.828   2.963   3.517 -1.5319  0.2210 -0.8389
   60MOL   H45032428   3.903   2.879   3.324 -1.0916  0.1125  1.8596
   60MOL   H45132429   3.773   2.976   3.258 -0.8990  0.1011  2.6795
   60MOL   H45232430   4.060   3.057   3.268 -0.6530  0.8161  0.8953
   60MOL   H45332431   3.943   3.159   3.191 -0.6103 -0.8152  0.6056
   60MOL   H45432432   3.987   2.871   3.091 -0.3223 -0.2540 -0.9537
   60MOL   H45532433   4.065   3.013   3.028 -0.7472 -1.3046 -1.2852
   60MOL   H45632434   3.805   3.063   2.608  0.7463 -2.0374  1.6332
   60MOL   H45732435   3.657   3.165   2.638 -0.4540 -0.0205  1.3865
   60MOL   H45832436   3.809   3.216   2.686 -0.4173  0.5564 -0.9516
   60MOL   H45932437   3.749   2.875   2.696 -0.9471  2.2744 -1.9264
   60MOL   H46032438   3.588   2.939   2.683 -1.5058 -1.4614  0.3869
   60MOL   C46132439   3.589   2.234   3.275  0.2993 -0.1310  0.3595
   60MOL   C46232440   3.482   2.304   3.189 -0.7216  0.4529  0.8532
   60MOL   C46332441   3.490   2.456   3.185  0.0905 -0.1459  0.7721
   60MOL   C46432442   3.372   2.531   3.117  0.3246  0.2519 -0.4391
   60MOL   C46532443   3.393   2.682   3.112  0.7236 -1.0674  0.1334
   60MOL   O46632444   3.493   2.700   3.021  0.1705  0.1097 -0.3781
   60MOL   C46732445   3.498   2.797   2.930 -0.6966 -0.3491  0.6749
   60MOL   O46832446   3.422   2.887   2.925 -0.1567 -0.3821  0.2733
   60MOL   C46932447   3.616   2.781   2.839 -0.3720 -0.3004  0.1913
   60MOL   C47032448   3.743   2.739   2.926 -0.5034 -0.5290 -0.3084
   60MOL   C47132449   3.588   2.664   2.744 -0.0833 -0.0190 -0.8557
   60MOL   H47232450   3.693   2.257   3.255  0.2999  0.1319  0.6643
   60MOL   H47332451   3.572   2.127   3.287  0.5873 -0.1355  0.7289
   60MOL   H47432452   3.569   2.264   3.378  0.7606 -0.9603  0.6934
   60MOL   H47532453   3.385   2.264   3.220 -0.3219 -0.9141  0.3640
   60MOL   H47632454   3.507   2.272   3.088  0.9889 -1.3320  1.8066
   60MOL   H47732455   3.583   2.487   3.138 -0.2941  1.5450  1.0708
   60MOL   H47832456   3.508   2.502   3.283 -0.2964 -0.1466  0.8453
   60MOL   H47932457   3.282   2.521   3.177  0.1627  0.0608 -0.7185
   60MOL   H48032458   3.352   2.491   3.018  0.3458  0.5689 -0.5722
   60MOL   H48132459   3.301   2.734   3.084  1.9293  0.8299 -0.4338
   60MOL   H48232460   3.422   2.715   3.212 -0.3306  0.1903  0.0327
   60MOL   H48332461   3.752   2.788   3.023  0.4880 -3.3242  1.0751
   60MOL   H48432462   3.836   2.739   2.870  1.1031  1.2392  2.2311
   60MOL   H48532463   3.734   2.635   2.956  0.2277  0.0117  1.8793
   60MOL   H48632464   3.571   2.576   2.807  2.3091  0.7771  0.9770
   60MOL   H48732465   3.683   2.658   2.691  0.6946 -0.9666  0.6055
   60MOL   C48832466   4.179   2.674   2.476  0.7347 -0.1061  0.2785
   60MOL   C48932467   4.077   2.704   2.365 -0.0181 -0.0939 -0.2347
   60MOL   C49032468   3.944   2.763   2.420  0.5857  0.2134  0.4683
   60MOL   C49132469   3.822   2.766   2.326  0.6408 -0.3282  0.6554
   60MOL   C49232470   3.694   2.837   2.376  0.1410  0.7554 -0.3491
   60MOL   O49332471   3.636   2.748   2.472  0.0720  0.3545  0.0343
   60MOL   C49432472   3.511   2.758   2.513 -0.8008  0.4302  0.1564
   60MOL   O49532473   3.425   2.842   2.479 -0.3246 -0.1520  0.0422
   60MOL   C49632474   3.478   2.651   2.629  0.6770 -0.3393  0.2297
   60MOL   C49732475   3.334   2.668   2.682 -0.7146 -0.3613 -0.5421
   60MOL   C49832476   3.491   2.498   2.577 -1.0351 -0.1016  0.6301
   60MOL   H49932477   4.205   2.755   2.544  1.3929  1.0793 -1.3640
   60MOL   H50032478   4.146   2.589   2.536 -1.2927  0.7624  0.4465
   60MOL   H50132479   4.267   2.642   2.421  0.3783 -2.0828  0.8123
   60MOL   H50232480   4.058   2.606   2.322 -0.8027  0.9483 -2.3239
   60MOL   H50332481   4.117   2.779   2.297 -0.4349 -0.5447 -0.9748
   60MOL   H50432482   3.914   2.714   2.513 -2.9213  1.5405  0.1020
   60MOL   H50532483   3.958   2.870   2.434 -0.8396  0.3871  0.6235
   60MOL   H50632484   3.794   2.663   2.305 -1.8088  0.3688  0.4013
   60MOL   H50732485   3.861   2.817   2.238 -0.8151  1.5203  1.0608
   60MOL   H50832486   3.725   2.932   2.421  0.2197 -0.6042  2.5746
   60MOL   H50932487   3.629   2.851   2.291  2.2334 -0.7436 -2.2457
   60MOL   H51032488   3.318   2.610   2.773  1.8710  0.2679  0.3473
   60MOL   H51132489   3.264   2.643   2.603 -1.2564 -1.3803  0.2362
   60MOL   H51232490   3.318   2.770   2.716 -1.3964 -1.4335  2.5615
   60MOL   H51332491   3.468   2.434   2.662  0.5653 -2.0373 -0.3602
   60MOL   H51432492   3.599   2.486   2.563 -1.3162 -1.2882 -0.6242
   60MOL   C51532493   3.144   2.238   2.883  0.0454  0.2461 -0.2183
   60MOL   C51632494   3.279   2.174   2.914 -0.8090  0.2524 -0.3480
   60MOL   C51732495   3.394   2.181   2.812  0.0790  0.0401  0.3726
   60MOL   C51832496   3.381   2.069   2.710  0.1698  0.2887  0.5051
   60MOL   C51932497   3.460   2.093   2.584  0.5183 -0.5738  0.0956
   60MOL   O52032498   3.417   2.212   2.522  0.0871  0.3189  0.0414
   60MOL   C52132499   3.485   2.293   2.441 -0.1373  0.9565 -0.2816
   60MOL   O52232500   3.577   2.252   2.370  0.7492 -0.7603 -0.6500
   60MOL   C52332501   3.435   2.439   2.444 -0.2190  0.0664  0.1451
   60MOL   C52432502   3.486   2.506   2.310 -0.4832 -0.3609  0.5825
   60MOL   C52532503   3.277   2.438   2.450 -0.6366 -0.0150  0.3121
   60MOL   H52632504   3.088   2.184   2.807  1.3329 -0.6817 -0.5410
   60MOL   H52732505   3.084   2.231   2.973  0.4902  0.0843  0.0699
   60MOL   H52832506   3.148   2.341   2.848 -2.7697 -0.0069 -1.3928
   60MOL   H52932507   3.319   2.229   2.999  1.3562  0.4244 -1.4560
   60MOL   H53032508   3.262   2.068   2.933  0.6273  0.0128 -0.3966
   60MOL   H53132509   3.373   2.279   2.771 -0.3460 -0.3067 -0.2446
   60MOL   H53232510   3.489   2.175   2.864  0.0449 -0.3240  0.3953
   60MOL   H53332511   3.278   2.052   2.677  0.4635 -2.1179  0.7712
   60MOL   H53432512   3.406   1.973   2.754  0.7667 -0.9265 -2.3881
   60MOL   H53532513   3.564   2.106   2.612  0.0803  1.8392  0.6782
   60MOL   H53632514   3.446   2.006   2.519 -0.9666 -0.4854  0.2674
   60MOL   H53732515   3.439   2.603   2.294  0.5651  0.5125  2.6171
   60MOL   H53832516   3.466   2.449   2.220  0.6657  0.4476 -0.1895
   60MOL   H53932517   3.594   2.523   2.306 -0.3202 -1.0495  1.7435
   60MOL   H54032518   3.245   2.362   2.379 -1.4289  1.2637 -0.7162
   60MOL   H54132519   3.246   2.535   2.411 -0.3103 -0.0795 -0.1152
   60MOL   H54232520   3.240   2.403   2.546 -0.2149  0.3933  0.6212
   61MOL     C132521   5.969   3.030   1.465 -0.0855  1.1830  0.0238
   61MOL     C232522   5.960   3.149   1.366 -0.2813  0.2205  0.3572
   61MOL     C332523   5.971   3.289   1.430  0.6591 -0.3147  0.2798
   61MOL     C432524   5.948   3.401   1.324  0.0613  0.1082  0.1179
   61MOL     C532525   5.933   3.543   1.379 -1.0362  0.3217 -0.0166
   61MOL     O632526   5.817   3.568   1.461 -0.0598  0.4736 -0.8262
   61MOL     C732527   5.815   3.672   1.542 -0.1391 -0.4340 -0.0377
   61MOL     O832528   5.906   3.755   1.549  1.2147  0.0038 -0.1995
   61MOL     C932529   5.703   3.667   1.643 -0.1564  0.2137  0.6700
   61MOL    C1032530   5.567   3.690   1.575  0.2917 -0.3743  0.5736
   61MOL    C1132531   5.719   3.757   1.767 -0.1480 -0.3646  0.9504
   61MOL    H1232532   5.971   2.932   1.417 -1.0486  0.1674  1.9865
   61MOL    H1332533   5.895   3.038   1.544  1.8068  0.5874  1.9121
   61MOL    H1432534   6.069   3.028   1.509 -0.6204 -0.6466  1.2141
   61MOL    H1532535   6.031   3.134   1.285 -2.8299 -2.3209 -1.4892
   61MOL    H1632536   5.858   3.143   1.328 -0.2045 -3.0650  0.5499
   61MOL    H1732537   5.894   3.298   1.508  0.7541  0.4956  0.2888
   61MOL    H1832538   6.064   3.305   1.485  0.1517 -1.0197  1.3614
   61MOL    H1932539   5.864   3.377   1.259  0.2164 -0.4812  0.1334
   61MOL    H2032540   6.043   3.404   1.270  0.2531  1.7673  0.4984
   61MOL    H2132541   6.022   3.586   1.425 -1.8568  0.8580  1.1159
   61MOL    H2232542   5.910   3.611   1.297 -1.5414  2.1626  1.6041
   61MOL    H2332543   5.580   3.774   1.507 -2.4016  0.4782  1.0646
   61MOL    H2432544   5.494   3.745   1.635  0.0094  0.4015 -0.4671
   61MOL    H2532545   5.528   3.600   1.527 -0.5472  0.2852  0.0157
   61MOL    H2632546   5.650   3.841   1.762 -1.0360 -1.2046 -1.6518
   61MOL    H2732547   5.817   3.804   1.756 -1.5918  2.0950 -1.9021
   61MOL    H2832548   5.709   3.563   1.675  1.1519 -0.3085 -1.1866
   61MOL    C2932549   6.336   3.328   1.619  0.4629  0.0915 -0.3263
   61MOL    C3032550   6.340   3.355   1.768 -0.1711  0.6801  0.2780
   61MOL    C3132551   6.203   3.335   1.837 -0.2391  0.6402  0.6742
   61MOL    C3232552   6.103   3.455   1.800 -0.3709 -0.1761 -0.0423
   61MOL    C3332553   5.964   3.422   1.867 -1.0322 -0.5256  0.4719
   61MOL    O3432554   5.887   3.540   1.862  0.6463  0.3492  0.1772
   61MOL    C3532555   5.774   3.553   1.929  0.0452  0.5013 -0.2761
   61MOL    O3632556   5.723   3.463   2.000 -0.3365 -0.1644 -0.4735
   61MOL    C3732557   5.704   3.690   1.911  0.4586 -0.0209 -0.2076
   61MOL    C3832558   5.549   3.661   1.923 -0.1363 -0.1303 -0.2997
   61MOL    C3932559   5.743   3.793   2.028 -0.0815  0.4597 -0.4328
   61MOL    H4032560   6.299   3.415   1.565 -1.8852 -0.6085  0.0795
   61MOL    H4132561   6.439   3.320   1.583  0.1582 -0.9920 -1.0044
   61MOL    H4232562   6.285   3.238   1.584 -0.2724  0.7979 -1.0999
   61MOL    H4332563   6.381   3.456   1.768 -0.3164  0.7578 -2.3899
   61MOL    H4432564   6.408   3.282   1.812 -0.3524  0.2839 -0.1007
   61MOL    H4532565   6.210   3.326   1.945  1.4346 -0.2411  0.5051
   61MOL    H4632566   6.172   3.240   1.793  1.7537 -0.2297  1.1105
   61MOL    H4732567   6.148   3.547   1.837 -1.3500 -0.4059  1.7706
   61MOL    H4832568   6.087   3.448   1.692 -0.9933  1.2915 -0.0527
   61MOL    H4932569   5.982   3.386   1.968  0.8848 -2.0734 -0.4000
   61MOL    H5032570   5.915   3.340   1.815  0.4600  0.1512 -2.1064
   61MOL    H5132571   5.530   3.636   2.028  0.2613  0.3398 -0.1131
   61MOL    H5232572   5.523   3.583   1.852  2.8969  0.4333 -2.0946
   61MOL    H5332573   5.488   3.744   1.886  0.6614  0.2174 -0.8411
   61MOL    H5432574   5.683   3.751   2.108  0.4055 -0.9270 -0.7952
   61MOL    H5532575   5.704   3.889   1.993 -2.6067  0.2612  1.6519
   61MOL    C5632576   6.068   4.418   1.478  0.1866  0.0312  0.3999
   61MOL    C5732577   5.985   4.342   1.580  0.6794  0.4854  0.3601
   61MOL    C5832578   6.036   4.200   1.612  0.2333 -0.0748 -0.3916
   61MOL    C5932579   5.970   4.139   1.737  0.6694 -0.3585  0.1928
   61MOL    C6032580   6.026   4.003   1.773  0.0790 -0.2255  0.6697
   61MOL    O6132581   5.947   3.959   1.886 -0.4769  0.3277 -0.1487
   61MOL    C6232582   5.988   3.855   1.964 -0.3738 -0.6382 -0.3697
   61MOL    O6332583   6.095   3.795   1.947 -1.0964  0.2219 -0.5440
   61MOL    C6432584   5.893   3.820   2.083 -0.5289  0.2484  0.5684
   61MOL    C6532585   5.949   3.701   2.164  0.0246 -0.0901  0.4804
   61MOL    C6632586   5.880   3.954   2.175  0.3564 -0.0850 -0.6525
   61MOL    H6732587   6.002   4.490   1.430  2.6815  1.1506 -1.4626
   61MOL    H6832588   6.106   4.348   1.404 -1.0840 -0.5619  0.2890
   61MOL    H6932589   6.133   4.486   1.533 -1.0887  1.5692  0.0335
   61MOL    H7032590   5.983   4.404   1.669  1.4881 -0.2416  0.8925
   61MOL    H7132591   5.882   4.334   1.542  0.0657 -1.0290  2.2703
   61MOL    H7232592   6.013   4.135   1.527  3.1793 -1.1100 -0.4471
   61MOL    H7332593   6.142   4.214   1.633 -0.0075 -1.7409  2.1322
   61MOL    H7432594   5.864   4.125   1.714  1.0962 -1.0619 -1.4527
   61MOL    H7532595   5.986   4.204   1.823 -1.3356 -0.9958  1.0745
   61MOL    H7632596   6.023   3.928   1.695 -0.2570  1.6390 -1.1473
   61MOL    H7732597   6.129   4.008   1.808  0.5776 -0.6343 -0.7151
   61MOL    H7832598   5.876   3.679   2.242 -1.8039 -2.1901 -1.7243
   61MOL    H7932599   6.045   3.710   2.214  0.8526  2.4576 -1.4213
   61MOL    H8032600   5.955   3.609   2.105 -3.1579 -0.7386  1.0836
   61MOL    H8132601   5.786   3.942   2.228  1.2288  0.7095  1.1128
   61MOL    H8232602   5.840   4.037   2.115  0.9806  1.8323  1.5187
   61MOL    C8332603   5.737   4.236   2.787  0.1583 -0.2198 -0.3052
   61MOL    C8432604   5.842   4.125   2.805  0.1676  0.7000  0.6631
   61MOL    C8532605   5.827   4.019   2.698  0.2682 -0.3625 -0.2585
   61MOL    C8632606   5.945   3.925   2.690  0.7569 -0.0336  0.0200
   61MOL    C8732607   5.921   3.832   2.571 -0.4383  0.0105  0.4020
   61MOL    O8832608   5.915   3.909   2.452 -0.1547  0.2968  0.3936
   61MOL    C8932609   6.024   3.929   2.383 -0.3572  0.0599  0.3017
   61MOL    O9032610   6.134   3.878   2.412 -0.3273 -0.3045  0.1485
   61MOL    C9132611   6.004   4.021   2.260  0.1417  0.2497  0.1609
   61MOL    C9232612   6.131   4.023   2.175  0.6804 -0.2002  0.4786
   61MOL    C9332613   5.961   4.165   2.308 -1.0975  0.4368  0.4955
   61MOL    H9432614   5.754   4.279   2.689  0.2449  0.4226 -0.0112
   61MOL    H9532615   5.631   4.211   2.798 -0.2783  0.8563 -2.0561
   61MOL    H9632616   5.756   4.313   2.862 -0.3048 -1.1108  0.7528
   61MOL    H9732617   5.834   4.078   2.903 -1.4488  2.5041  1.4296
   61MOL    H9832618   5.939   4.174   2.791  1.4541 -0.8306  3.6962
   61MOL    H9932619   5.818   4.078   2.606 -0.9960 -0.5696 -0.2792
   61MOL   H10032620   5.732   3.966   2.707  0.2309 -0.2809 -0.1694
   61MOL   H10132621   5.953   3.866   2.781  0.0888 -1.1287 -0.6324
   61MOL   H10232622   6.038   3.976   2.662 -0.1607  0.9271 -1.3280
   61MOL   H10332623   5.823   3.790   2.587 -2.2075  3.4576 -0.7008
   61MOL   H10432624   5.994   3.751   2.580 -0.5862 -0.2279 -0.5229
   61MOL   H10532625   6.173   3.924   2.154 -0.0411 -0.3438 -0.3030
   61MOL   H10632626   6.211   4.075   2.229 -0.6553  1.6382  0.7394
   61MOL   H10732627   6.112   4.086   2.088  1.3641 -0.7865 -0.1031
   61MOL   H10832628   5.898   4.209   2.230  1.3622 -1.7451 -2.8549
   61MOL   H10932629   5.880   4.147   2.379  1.3764  0.5733  3.4461
   61MOL   C11032630   6.442   4.448   1.652  0.5071 -0.3812 -0.1714
   61MOL   C11132631   6.396   4.394   1.792  0.3601 -0.1376  0.1551
   61MOL   C11232632   6.259   4.440   1.830 -0.6448 -1.0234  0.0445
   61MOL   C11332633   6.211   4.367   1.960 -0.4359 -0.1830 -0.0464
   61MOL   C11432634   6.114   4.447   2.050 -0.8057  0.0919 -0.1088
   61MOL   O11532635   6.065   4.365   2.152  0.0500  0.3095 -0.0518
   61MOL   C11632636   6.134   4.340   2.259 -0.6963 -0.4015  0.0689
   61MOL   O11732637   6.254   4.376   2.283 -0.2945 -0.0866 -0.3127
   61MOL   C11832638   6.052   4.275   2.366 -0.5867  0.6611 -0.2988
   61MOL   C11932639   6.156   4.219   2.477 -1.0833 -0.2798 -0.6108
   61MOL   C12032640   5.944   4.369   2.437 -0.3121 -1.1388  0.4939
   61MOL   H12132641   6.536   4.396   1.631  1.1941  1.0857 -0.8420
   61MOL   H12232642   6.377   4.428   1.567  0.9417 -0.8780 -0.3878
   61MOL   H12332643   6.474   4.552   1.642  1.7378 -0.6500  0.7565
   61MOL   H12432644   6.407   4.286   1.782  0.9759  0.0297 -1.1880
   61MOL   H12532645   6.470   4.421   1.867  2.3942 -1.1212 -1.4302
   61MOL   H12632646   6.261   4.546   1.854 -0.3423 -0.7201 -1.2933
   61MOL   H12732647   6.182   4.424   1.754 -2.3976 -0.4165  1.6497
   61MOL   H12832648   6.299   4.337   2.017 -0.4732  1.1520  0.7205
   61MOL   H12932649   6.165   4.277   1.920  1.4210 -0.6355 -1.2095
   61MOL   H13032650   6.166   4.534   2.088 -1.4722  1.5484 -2.4176
   61MOL   H13132651   6.028   4.487   1.994 -1.0553 -0.2563  0.0245
   61MOL   H13232652   6.219   4.294   2.524 -0.4297 -0.8013 -0.6439
   61MOL   H13332653   6.100   4.176   2.560  1.1456 -0.0256  1.0757
   61MOL   H13432654   6.223   4.145   2.433  0.1549  1.5196 -1.8017
   61MOL   H13532655   5.867   4.384   2.362  0.5859  0.4374 -0.1469
   61MOL   H13632656   5.892   4.312   2.514  1.6458 -5.5487 -1.2835
   61MOL   C13732657   6.135   4.056   3.089 -0.3042 -0.3904 -0.1089
   61MOL   C13832658   6.103   4.211   3.072  0.3558  0.1034 -0.2089
   61MOL   C13932659   6.177   4.278   2.949 -0.3378  0.3380 -0.0872
   61MOL   C14032660   6.131   4.421   2.909 -0.1105  0.4899  0.3622
   61MOL   C14132661   6.193   4.463   2.778 -0.0225  0.0710  0.3529
   61MOL   O14232662   6.107   4.448   2.672  0.0942 -0.0185 -0.6820
   61MOL   C14332663   6.103   4.530   2.566 -0.1973  0.4291  0.4520
   61MOL   O14432664   6.184   4.615   2.539 -0.3014 -0.5995 -0.1972
   61MOL   C14532665   5.972   4.520   2.485 -0.2755 -0.1989  0.2207
   61MOL   C14632666   5.997   4.606   2.355 -0.4350 -0.8152 -0.6656
   61MOL   C14732667   5.857   4.568   2.578  0.0764 -0.3641  0.0665
   61MOL   H14832668   6.135   3.993   3.000 -0.0499  0.9493 -1.0789
   61MOL   H14932669   6.082   4.015   3.175  0.1015 -0.8304 -0.0702
   61MOL   H15032670   6.237   4.036   3.122 -0.2088 -0.3519 -0.3797
   61MOL   H15132671   6.142   4.260   3.162  0.8020 -0.1867 -0.2432
   61MOL   H15232672   5.995   4.223   3.078  0.4283  1.8220 -1.8087
   61MOL   H15332673   6.285   4.275   2.961 -0.3769 -2.2021 -0.0365
   61MOL   H15432674   6.164   4.208   2.866 -0.3903 -0.0412  0.2394
   61MOL   H15532675   6.023   4.427   2.915 -0.0256  3.2383 -0.3913
   61MOL   H15632676   6.153   4.490   2.991 -2.4138 -0.5293  1.8774
   61MOL   H15732677   6.289   4.417   2.754 -1.8130 -2.2757 -2.5553
   61MOL   H15832678   6.207   4.571   2.781 -0.5601  0.1241  1.1426
   61MOL   H15932679   5.944   4.578   2.264  0.4047  0.6764 -1.6377
   61MOL   H16032680   6.098   4.594   2.317  0.3099  2.1516  0.2270
   61MOL   H16132681   5.994   4.712   2.380  0.8509 -0.4552 -1.9889
   61MOL   H16232682   5.855   4.493   2.657  1.2031  0.8437  1.2635
   61MOL   H16332683   5.895   4.661   2.619  1.5396 -1.6288  1.6618
   61MOL   C16432684   5.334   3.943   2.209 -0.1097  0.8736 -0.4103
   61MOL   C16532685   5.440   4.024   2.283 -0.4837  0.9643  0.8051
   61MOL   C16632686   5.495   4.144   2.198  0.1650 -0.0800  0.1897
   61MOL   C16732687   5.604   4.218   2.284  0.5199  0.6647 -0.2012
   61MOL   C16832688   5.545   4.299   2.407 -0.5344  0.1230 -0.1769
   61MOL   O16932689   5.644   4.385   2.462 -0.0862 -0.2954  0.0500
   61MOL   C17032690   5.658   4.510   2.422  0.3832  0.5681  0.1832
   61MOL   O17132691   5.624   4.548   2.311  0.1298  0.2240  0.4886
   61MOL   C17232692   5.710   4.606   2.533  0.7436  0.0318 -0.0777
   61MOL   C17332693   5.708   4.756   2.475  0.0311  0.8299 -0.3940
   61MOL   C17432694   5.627   4.598   2.664  0.3267 -0.4057 -0.1588
   61MOL   H17532695   5.356   3.904   2.109 -2.4514  1.0129 -1.0245
   61MOL   H17632696   5.237   3.992   2.215 -1.5420 -1.9324  0.2383
   61MOL   H17732697   5.307   3.850   2.259 -0.1709  0.8210 -0.5385
   61MOL   H17832698   5.528   3.961   2.299 -1.6141 -1.4311 -2.1155
   61MOL   H17932699   5.404   4.053   2.382  2.1786  2.1667  1.4914
   61MOL   H18032700   5.549   4.103   2.113  1.5593  0.2475  0.9035
   61MOL   H18132701   5.421   4.215   2.162  0.1999  1.2626  2.6416
   61MOL   H18232702   5.659   4.277   2.211 -1.0945  0.0717 -1.9242
   61MOL   H18332703   5.673   4.145   2.327 -0.2789 -0.5389 -0.9260
   61MOL   H18432704   5.506   4.236   2.486 -0.2121 -2.5358 -2.0840
   61MOL   H18532705   5.464   4.348   2.354  0.8004  0.3469 -2.0735
   61MOL   H18632706   5.792   4.780   2.411 -0.0452 -1.2533 -1.3016
   61MOL   H18732707   5.706   4.826   2.559  0.6815 -0.9588  1.1374
   61MOL   H18832708   5.627   4.790   2.411 -0.0377  0.5886 -0.4357
   61MOL   H18932709   5.648   4.503   2.715  0.7903 -1.6655 -2.6187
   61MOL   H19032710   5.672   4.668   2.734  1.3335 -0.0237 -1.1836
   61MOL   C19132711   5.020   4.117   2.364 -0.4644 -0.3712  0.2826
   61MOL   C19232712   4.920   4.207   2.436 -1.0710 -0.6073 -0.3462
   61MOL   C19332713   4.978   4.272   2.563 -0.7252 -1.0145 -0.0602
   61MOL   C19432714   5.100   4.360   2.540  0.0692 -0.2854 -0.0289
   61MOL   C19532715   5.147   4.420   2.674  0.0851 -0.6931  0.2131
   61MOL   O19632716   5.252   4.511   2.651  0.2871  0.4904 -0.0845
   61MOL   C19732717   5.385   4.482   2.655  0.1473  0.7232  0.4962
   61MOL   O19832718   5.425   4.367   2.668 -0.0302  0.2936 -0.2782
   61MOL   C19932719   5.471   4.611   2.673  0.2096  0.5369 -0.4250
   61MOL   C20032720   5.426   4.714   2.567 -0.3475  0.6072 -0.1689
   61MOL   C20132721   5.431   4.669   2.815 -0.6609  0.2979  0.0913
   61MOL   H20232722   5.085   4.177   2.300 -1.5562 -2.0630 -2.5120
   61MOL   H20332723   5.078   4.058   2.434  0.8394  0.7167  0.1340
   61MOL   H20432724   4.961   4.059   2.292  1.1558 -2.9596  0.9821
   61MOL   H20532725   4.830   4.153   2.465 -1.4459 -0.0973 -0.5425
   61MOL   H20632726   4.881   4.275   2.360  2.0082 -0.6115 -1.9971
   61MOL   H20732727   4.996   4.191   2.634 -2.4821 -2.2985 -1.0210
   61MOL   H20832728   4.902   4.330   2.614  1.7530  1.6713  0.6854
   61MOL   H20932729   5.180   4.293   2.508  0.1146 -1.4392  2.4143
   61MOL   H21032730   5.082   4.438   2.466 -1.1711 -1.0168 -0.5288
   61MOL   H21132731   5.064   4.467   2.726 -0.1311 -0.1150 -0.6540
   61MOL   H21232732   5.178   4.339   2.740  3.5420 -0.1993 -0.7062
   61MOL   H21332733   5.451   4.688   2.464 -0.8399  1.4546 -0.5040
   61MOL   H21432734   5.483   4.805   2.581  0.4529  0.2372 -0.9505
   61MOL   H21532735   5.318   4.733   2.569 -0.2790  0.8443  1.1460
   61MOL   H21632736   5.325   4.697   2.811 -1.3702 -1.9392  1.9165
   61MOL   H21732737   5.478   4.767   2.814 -0.6075  0.2800  0.9660
   61MOL   C21832738   6.232   4.877   2.752 -0.4183  0.2871  0.4152
   61MOL   C21932739   6.081   4.910   2.778 -0.3396  0.0487  0.2365
   61MOL   C22032740   6.034   4.853   2.914  0.0377 -0.0902 -0.3202
   61MOL   C22132741   5.883   4.843   2.912  0.0339 -0.2513 -0.0831
   61MOL   C22232742   5.814   4.738   2.992 -0.2351  0.3901 -0.1919
   61MOL   O22332743   5.676   4.723   2.966 -0.0340  0.2009 -0.4074
   61MOL   C22432744   5.620   4.597   2.980  0.8874 -0.8335  0.6391
   61MOL   O22532745   5.679   4.496   3.011  0.4315 -0.1053  0.4547
   61MOL   C22632746   5.469   4.603   2.960 -0.8056  0.1971 -0.4438
   61MOL   C22732747   5.412   4.461   2.968 -0.0654  0.0684  0.0240
   61MOL   C22832748   5.410   4.711   3.058 -0.1299  0.5531 -0.3370
   61MOL   H22932749   6.264   4.947   2.674 -0.4787  0.2501  0.3570
   61MOL   H23032750   6.284   4.901   2.844  1.9080  2.4122 -1.3697
   61MOL   H23132751   6.255   4.771   2.742  0.7302  0.0595  4.6225
   61MOL   H23232752   6.021   4.863   2.700 -0.6338  1.1729 -0.2178
   61MOL   H23332753   6.057   5.016   2.773 -0.9465 -0.1045 -0.0664
   61MOL   H23432754   6.061   4.928   2.988 -1.0994  2.1881 -2.1201
   61MOL   H23532755   6.074   4.754   2.936  0.7225 -0.1337 -1.6963
   61MOL   H23632756   5.850   4.942   2.943  0.5190  0.2465 -1.1093
   61MOL   H23732757   5.852   4.822   2.809  1.1984  0.8372 -0.6718
   61MOL   H23832758   5.836   4.770   3.094  0.3324 -1.3173  0.2395
   61MOL   H23932759   5.871   4.647   2.973  0.8262  0.5539  2.0817
   61MOL   H24032760   5.458   4.384   2.906 -0.2186 -0.0849  0.0988
   61MOL   H24132761   5.304   4.456   2.956  0.0981  1.2392 -2.1646
   61MOL   H24232762   5.445   4.413   3.060  0.2294  0.0658 -0.0823
   61MOL   H24332763   5.305   4.709   3.029 -0.4346  1.8278  0.6086
   61MOL   H24432764   5.444   4.811   3.033 -0.8876  0.9278  0.1052
   61MOL   C24532765   4.782   4.746   3.498  0.1160  0.2436  0.8121
   61MOL   C24632766   4.814   4.645   3.380 -0.1568 -0.5257 -0.1435
   61MOL   C24732767   4.967   4.621   3.358 -0.6787  0.1732  0.8936
   61MOL   C24832768   4.985   4.501   3.255  0.0538 -0.2581 -0.2960
   61MOL   C24932769   5.127   4.455   3.253 -1.4384 -0.3139 -0.5245
   61MOL   O25032770   5.216   4.558   3.209 -0.0085 -0.2379  0.1441
   61MOL   C25132771   5.340   4.569   3.264 -0.1508  0.4624  0.3595
   61MOL   O25232772   5.391   4.475   3.330  0.1666 -0.1802 -0.3941
   61MOL   C25332773   5.411   4.697   3.215 -0.0096 -0.1610 -0.7673
   61MOL   C25432774   5.320   4.806   3.263  0.6899 -0.5268 -0.4398
   61MOL   C25532775   5.556   4.719   3.275  0.0924  0.3221 -0.6429
   61MOL   H25632776   4.812   4.692   3.588 -0.4473 -1.1557  0.1747
   61MOL   H25732777   4.830   4.841   3.476  1.4358 -0.9543 -1.6860
   61MOL   H25832778   4.674   4.762   3.501  0.1555  0.3359  3.2635
   61MOL   H25932779   4.754   4.558   3.408  1.3727 -1.2638  0.9196
   61MOL   H26032780   4.771   4.682   3.287 -1.2075  0.7860  0.8449
   61MOL   H26132781   5.010   4.598   3.455  1.4652 -0.2808 -0.1309
   61MOL   H26232782   5.005   4.713   3.313 -0.8797 -0.4937 -0.6857
   61MOL   H26332783   4.926   4.413   3.282  1.9977 -0.8735  2.1689
   61MOL   H26432784   4.948   4.540   3.160 -0.0916 -0.8069 -0.4705
   61MOL   H26532785   5.158   4.413   3.349  0.4824  2.6146  0.2227
   61MOL   H26632786   5.137   4.369   3.188  1.4702 -0.0836 -0.4752
   61MOL   H26732787   5.216   4.804   3.231  0.8893 -0.8175 -1.0595
   61MOL   H26832788   5.332   4.827   3.370  0.5790 -0.3544 -0.4597
   61MOL   H26932789   5.353   4.897   3.212 -4.9890 -0.2730 -4.1154
   61MOL   H27032790   5.603   4.620   3.272 -1.1831 -0.4152  1.9897
   61MOL   H27132791   5.611   4.774   3.199 -0.2274  1.0529 -0.3518
   61MOL   C27232792   5.769   5.558   3.071  0.1079 -0.3376 -0.4015
   61MOL   C27332793   5.779   5.403   3.086  0.2724  0.1345  0.6824
   61MOL   C27432794   5.670   5.351   3.177  0.8709 -0.2482  1.0491
   61MOL   C27532795   5.677   5.199   3.195  0.0177 -0.0558  0.8651
   61MOL   C27632796   5.564   5.140   3.277  0.2390  0.0067 -0.0865
   61MOL   O27732797   5.582   5.001   3.297  0.5198 -0.1648 -0.1852
   61MOL   C27832798   5.567   4.937   3.416  0.1208 -0.0001  0.5120
   61MOL   O27932799   5.530   4.997   3.513  1.0092 -0.3049  0.1725
   61MOL   C28032800   5.593   4.782   3.412 -0.2791  0.1520 -0.4138
   61MOL   C28132801   5.518   4.702   3.525 -1.0227 -0.5492  0.4635
   61MOL   C28232802   5.749   4.748   3.415 -0.9625  0.3459 -0.0404
   61MOL   H28332803   5.669   5.588   3.041 -1.3525 -1.9183  2.6884
   61MOL   H28432804   5.792   5.607   3.165 -0.6580  0.8200 -0.8113
   61MOL   H28532805   5.834   5.588   2.988  0.7448  1.8345  0.8423
   61MOL   H28632806   5.772   5.365   2.984 -0.3588 -0.8558  1.0856
   61MOL   H28732807   5.880   5.375   3.117  0.4883 -1.1269 -1.0854
   61MOL   H28832808   5.688   5.390   3.277  0.6065 -1.4196  1.5594
   61MOL   H28932809   5.572   5.387   3.145  1.9986 -0.8960 -3.5993
   61MOL   H29032810   5.674   5.156   3.095 -1.2554 -0.4672  1.0756
   61MOL   H29132811   5.775   5.164   3.229 -0.1136  0.7583  2.0976
   61MOL   H29232812   5.470   5.148   3.222 -0.2942 -0.6935  0.7067
   61MOL   H29332813   5.544   5.188   3.373  3.1690 -1.0409  1.0997
   61MOL   H29432814   5.412   4.685   3.506 -1.2068  0.9697  0.1040
   61MOL   H29532815   5.556   4.602   3.546  0.5974  0.2963  1.6995
   61MOL   H29632816   5.514   4.763   3.616  1.8094  3.6858 -2.0997
   61MOL   H29732817   5.752   4.642   3.437  2.0309 -0.0699 -2.1652
   61MOL   H29832818   5.791   4.745   3.314 -2.6952  2.3607 -0.8572
   61MOL   C29932819   5.562   5.215   3.748 -1.0746  0.5391 -0.1673
   61MOL   C30032820   5.682   5.274   3.807  0.8037  0.2486  0.4264
   61MOL   C30132821   5.809   5.212   3.742  0.5873  0.5479 -0.2000
   61MOL   C30232822   5.806   5.229   3.591  0.9492  0.2226  0.2184
   61MOL   C30332823   5.935   5.181   3.532 -0.0710 -0.4244  0.8201
   61MOL   O30432824   5.923   5.045   3.552  0.5278  0.0802 -0.3034
   61MOL   C30532825   5.884   4.961   3.458 -0.5151  0.0590  0.7945
   61MOL   O30632826   5.874   4.979   3.339  0.4715 -0.2595 -0.6078
   61MOL   C30732827   5.856   4.820   3.511 -0.0909  0.0496  0.1961
   61MOL   C30832828   5.801   4.834   3.652  0.1379 -0.2228 -0.3142
   61MOL   C30932829   5.982   4.735   3.535 -0.9677 -0.4553 -0.1766
   61MOL   H31032830   5.472   5.217   3.809 -0.9217  0.9977  0.0418
   61MOL   H31132831   5.575   5.113   3.710 -2.5443  0.5526 -0.7370
   61MOL   H31232832   5.546   5.269   3.655  0.5147  2.0859  0.4485
   61MOL   H31332833   5.682   5.248   3.913  3.4121  2.0744  0.9433
   61MOL   H31432834   5.690   5.383   3.799 -0.4189  0.3628  0.7151
   61MOL   H31532835   5.822   5.109   3.772  1.5840  1.1916  1.6430
   61MOL   H31632836   5.885   5.275   3.787 -0.3987  2.5993 -1.2956
   61MOL   H31732837   5.807   5.335   3.564 -0.2495  0.3947  0.8507
   61MOL   H31832838   5.720   5.191   3.536 -0.5948 -1.4259  3.6440
   61MOL   H31932839   5.946   5.208   3.427  1.2134 -0.3365  0.9635
   61MOL   H32032840   6.022   5.223   3.583  1.2249 -2.2894  0.2305
   61MOL   H32132841   5.869   4.869   3.729 -0.6367 -1.9070  1.1716
   61MOL   H32232842   5.704   4.883   3.655  0.0109 -0.4788 -0.2065
   61MOL   H32332843   5.767   4.732   3.673 -1.4155 -0.1344 -2.1884
   61MOL   H32432844   5.961   4.641   3.586 -0.5113  0.7662  2.3199
   61MOL   H32532845   6.047   4.779   3.611  0.4671 -1.1604 -0.9731
   61MOL   C32632846   5.784   4.006   3.223  0.1880 -0.0543  0.0116
   61MOL   C32732847   5.688   4.122   3.275 -0.4190  0.6877  0.1748
   61MOL   C32832848   5.736   4.254   3.216  0.6225  0.2153 -0.1040
   61MOL   C32932849   5.833   4.325   3.310  0.1563 -0.2575 -0.0258
   61MOL   C33032850   5.895   4.449   3.247  0.2439 -0.4321 -0.2488
   61MOL   O33132851   5.974   4.525   3.340 -0.4353  0.2689  0.0606
   61MOL   C33232852   6.034   4.637   3.304 -0.5527 -0.4921  0.2443
   61MOL   O33332853   6.040   4.679   3.190  0.2240 -0.3260  0.3152
   61MOL   C33432854   6.083   4.714   3.425  0.4270 -0.1653  0.3708
   61MOL   C33532855   6.146   4.850   3.377 -0.2780 -0.0274  0.1743
   61MOL   C33632856   6.201   4.616   3.470 -0.3920  0.1554  0.1333
   61MOL   H33732857   5.877   4.008   3.280 -0.7161 -0.6718  1.5273
   61MOL   H33832858   5.794   4.005   3.114 -0.1292 -2.9746 -0.0204
   61MOL   H33932859   5.748   3.906   3.247  0.7765 -0.4523 -0.7283
   61MOL   H34032860   5.677   4.128   3.384  0.6095  0.5407  0.2965
   61MOL   H34132861   5.590   4.093   3.238 -0.7777 -1.5742  2.7229
   61MOL   H34232862   5.656   4.327   3.212  1.5540  1.1824 -2.1362
   61MOL   H34332863   5.782   4.237   3.118  2.2097 -1.3440  0.8609
   61MOL   H34432864   5.915   4.254   3.317 -0.5619 -1.9014 -5.7418
   61MOL   H34532865   5.787   4.354   3.405 -0.8294  1.5981 -1.0447
   61MOL   H34632866   5.828   4.512   3.191  1.0372 -0.2860 -1.0385
   61MOL   H34732867   5.974   4.416   3.180  0.9510  2.3522 -0.8355
   61MOL   H34832868   6.159   4.926   3.454 -1.1238 -0.3996  0.6869
   61MOL   H34932869   6.088   4.896   3.297  0.4692  0.5763 -0.0339
   61MOL   H35032870   6.240   4.834   3.323  0.2326  2.2215  0.3429
   61MOL   H35132871   6.265   4.611   3.382 -0.4914 -1.8889  0.1407
   61MOL   H35232872   6.154   4.519   3.486 -1.8149  1.0758  1.6715
   61MOL   C35332873   5.609   4.246   3.719 -0.5410  0.4452 -1.2730
   61MOL   C35432874   5.751   4.247   3.786  0.2022 -0.0338 -0.1079
   61MOL   C35532875   5.818   4.391   3.762  0.2406  0.1753  0.1497
   61MOL   C35632876   5.944   4.416   3.858 -0.0812 -0.0891 -0.1949
   61MOL   C35732877   6.032   4.536   3.844  0.3323  0.6204  0.4001
   61MOL   O35832878   6.113   4.534   3.733 -0.7232 -0.0743  0.0876
   61MOL   C35932879   6.224   4.622   3.728 -0.8674 -0.0114 -1.0344
   61MOL   O36032880   6.266   4.677   3.832 -0.0778  0.0009  0.6616
   61MOL   C36132881   6.302   4.633   3.594  0.1851  0.3196  0.3777
   61MOL   C36232882   6.367   4.774   3.590 -0.5784 -0.8460 -0.4236
   61MOL   C36332883   6.419   4.528   3.588  0.1191 -0.0979  0.1370
   61MOL   H36432884   5.544   4.170   3.763 -0.2636  1.9622  1.8237
   61MOL   H36532885   5.626   4.226   3.613 -1.0825  2.5161 -1.7694
   61MOL   H36632886   5.563   4.344   3.727 -0.7596  0.1099  2.0720
   61MOL   H36732887   5.736   4.239   3.894  0.3691  0.2521 -0.0623
   61MOL   H36832888   5.798   4.160   3.740 -2.2228 -1.0266 -0.7875
   61MOL   H36932889   5.742   4.466   3.786  1.4517  0.7568  2.2332
   61MOL   H37032890   5.838   4.404   3.656  2.9790  0.3468  0.6452
   61MOL   H37132891   6.002   4.324   3.860 -2.4005 -1.5940  2.3547
   61MOL   H37232892   5.901   4.427   3.958  0.5237 -0.3794  0.0962
   61MOL   H37332893   5.968   4.624   3.848 -2.7914 -1.3936 -2.1649
   61MOL   H37432894   6.101   4.545   3.927  1.1009 -0.6527 -0.0739
   61MOL   H37532895   6.452   4.789   3.656 -1.6345 -0.4068  0.8540
   61MOL   H37632896   6.406   4.785   3.489  1.5160  0.7520  0.5137
   61MOL   H37732897   6.293   4.848   3.621 -0.1998 -0.7434  0.2355
   61MOL   H37832898   6.483   4.556   3.504 -0.3172 -3.4172 -1.4170
   61MOL   H37932899   6.473   4.555   3.679 -2.0292  1.6159  0.9469
   61MOL   C38032900   6.886   4.004   3.202  0.2952 -0.3017  0.7618
   61MOL   C38132901   6.771   4.088   3.136  0.1935 -0.3244 -0.2624
   61MOL   C38232902   6.651   4.101   3.233 -0.2200  0.1276 -0.4795
   61MOL   C38332903   6.550   4.210   3.190 -0.2468  0.1179 -0.5338
   61MOL   C38432904   6.422   4.212   3.275  0.1861  0.1849  0.2490
   61MOL   O38532905   6.451   4.281   3.390  0.3069  0.1182  0.1379
   61MOL   C38632906   6.361   4.303   3.480  0.3630 -0.0929 -0.1629
   61MOL   O38732907   6.244   4.267   3.459 -0.1280 -0.7039  0.0767
   61MOL   C38832908   6.417   4.378   3.604 -0.0114  0.5535  0.5494
   61MOL   C38932909   6.569   4.346   3.610 -0.5852 -0.2817 -0.1708
   61MOL   C39032910   6.353   4.325   3.733 -0.1490  0.1918  0.7281
   61MOL   H39132911   6.844   3.923   3.262 -1.3067  1.9314  2.7702
   61MOL   H39232912   6.926   3.950   3.117  0.4862 -1.2887  1.4752
   61MOL   H39332913   6.970   4.057   3.248  1.8909 -2.5966  0.5611
   61MOL   H39432914   6.728   4.050   3.044 -2.9507 -2.3744  1.9636
   61MOL   H39532915   6.805   4.190   3.115 -2.1553  0.4049 -0.7189
   61MOL   H39632916   6.594   4.009   3.227 -0.9125  0.5773 -0.8438
   61MOL   H39732917   6.684   4.107   3.336  0.9235 -1.3476 -0.7421
   61MOL   H39832918   6.610   4.301   3.193 -0.0452 -0.0449  0.5665
   61MOL   H39932919   6.530   4.188   3.085 -0.3837  0.6897 -0.6307
   61MOL   H40032920   6.390   4.110   3.298  1.7475 -0.4153 -0.2318
   61MOL   H40132921   6.340   4.265   3.227 -0.8936  2.2817  4.1469
   61MOL   H40232922   6.588   4.240   3.596 -0.9962 -0.3096 -0.5297
   61MOL   H40332923   6.628   4.396   3.687 -0.8272  0.6638 -0.5847
   61MOL   H40432924   6.619   4.383   3.520  3.0130 -1.3031  1.3236
   61MOL   H40532925   6.246   4.317   3.710 -0.1965 -2.8837  1.7852
   61MOL   H40632926   6.359   4.404   3.808 -1.1873  0.2864  0.7246
   61MOL   C40732927   5.784   3.769   3.762 -0.4081  0.1661  0.1073
   61MOL   C40832928   5.822   3.793   3.614  0.2291  0.6459 -0.2717
   61MOL   C40932929   5.973   3.793   3.592 -0.4774 -0.2234 -0.2038
   61MOL   C41032930   6.026   3.907   3.670 -0.3772  0.6307  0.0561
   61MOL   C41132931   6.170   3.942   3.634  0.6312 -0.7807  0.1345
   61MOL   O41232932   6.214   4.061   3.696 -0.3640  1.1631  0.5411
   61MOL   C41332933   6.339   4.074   3.731 -0.2615  0.5124 -0.3327
   61MOL   O41432934   6.424   3.988   3.698 -0.4496 -0.2958 -0.2708
   61MOL   C41532935   6.378   4.195   3.814 -0.0027 -0.4205 -0.5218
   61MOL   C41632936   6.526   4.195   3.874 -0.5799 -0.1385 -0.5820
   61MOL   C41732937   6.278   4.199   3.940  0.1030 -0.0398  0.0931
   61MOL   H41832938   5.682   3.736   3.778 -0.1497 -1.9579 -2.3469
   61MOL   H41932939   5.854   3.692   3.795  1.2812  1.5955 -0.0524
   61MOL   H42032940   5.805   3.856   3.825  0.6771  1.3424 -1.8259
   61MOL   H42132941   5.769   3.879   3.572  0.8578  1.8340  1.3026
   61MOL   H42232942   5.783   3.714   3.551  2.0937  0.4323 -1.1880
   61MOL   H42332943   6.024   3.701   3.619 -2.1819 -1.1571 -0.0925
   61MOL   H42432944   5.988   3.811   3.485 -1.8248 -0.4194 -0.4325
   61MOL   H42532945   6.028   3.897   3.779 -0.4662  0.1201  0.0112
   61MOL   H42632946   5.960   3.993   3.666  1.7061  2.2757 -0.1504
   61MOL   H42732947   6.225   3.856   3.674 -0.2612 -0.8623  1.2130
   61MOL   H42832948   6.185   3.944   3.526 -1.5694 -1.8206 -0.2062
   61MOL   H42932949   6.610   4.213   3.807 -0.7607  1.7172 -0.3383
   61MOL   H43032950   6.550   4.102   3.926 -0.9035 -0.2029 -0.5440
   61MOL   H43132951   6.529   4.274   3.948 -1.4094  0.6943 -1.4170
   61MOL   H43232952   6.178   4.192   3.899 -0.4578 -0.5864  1.5262
   61MOL   H43332953   6.274   4.300   3.983 -0.1877 -0.4102  0.9614
   61MOL   C43432954   6.735   4.609   3.965 -0.6161 -0.1847 -0.0626
   61MOL   C43532955   6.652   4.661   4.085 -0.2593  0.3135  0.1987
   61MOL   C43632956   6.552   4.556   4.134 -0.4388 -0.2522 -0.0788
   61MOL   C43732957   6.620   4.419   4.186  0.6033 -0.3065 -0.3267
   61MOL   C43832958   6.524   4.320   4.258  0.1083  0.9831  0.5703
   61MOL   O43932959   6.416   4.270   4.179  0.2207  0.5373  0.0935
   61MOL   C44032960   6.410   4.133   4.148  0.5384 -0.2339  0.1133
   61MOL   O44132961   6.492   4.051   4.181 -0.2096  0.1066 -0.1759
   61MOL   C44232962   6.286   4.097   4.059 -0.0633  0.8077 -0.1425
   61MOL   C44332963   6.288   3.950   4.007 -0.1935  0.1469  0.3909
   61MOL   C44432964   6.152   4.110   4.139  0.7860  0.1229  0.5589
   61MOL   H44532965   6.780   4.512   3.987 -2.3965 -0.2485  3.7927
   61MOL   H44632966   6.674   4.597   3.875  2.0351 -0.6248 -1.8559
   61MOL   H44732967   6.808   4.689   3.951 -1.1009  0.1793 -0.5413
   61MOL   H44832968   6.715   4.682   4.171 -0.7550 -1.5607  1.0614
   61MOL   H44932969   6.594   4.745   4.046 -0.8645 -1.2613 -2.4629
   61MOL   H45032970   6.486   4.592   4.213 -0.5351  1.8467 -1.0996
   61MOL   H45132971   6.490   4.532   4.048  0.9066 -2.9233 -0.3486
   61MOL   H45232972   6.698   4.445   4.258 -0.6044 -1.1079  1.3259
   61MOL   H45332973   6.676   4.371   4.106  0.5309 -1.4867  0.3221
   61MOL   H45432974   6.483   4.381   4.338  1.6933  2.0246  0.6267
   61MOL   H45532975   6.581   4.238   4.303  1.0371  2.2188  1.6623
   61MOL   H45632976   6.190   3.913   3.975 -0.2592  1.8851 -1.4688
   61MOL   H45732977   6.361   3.938   3.928  1.6487  0.4117  2.0059
   61MOL   H45832978   6.326   3.868   4.068 -0.0332 -0.2481 -0.2343
   61MOL   H45932979   6.083   4.063   4.069 -0.4808  0.0755  1.8051
   61MOL   H46032980   6.118   4.214   4.130 -0.2294 -0.4038 -2.5349
   61MOL   C46132981   6.125   4.775   4.132 -0.1262 -0.1529 -0.3449
   61MOL   C46232982   6.200   4.648   4.186 -0.3945  0.0641  0.4704
   61MOL   C46332983   6.116   4.575   4.287  0.2170  0.2155  0.3826
   61MOL   C46432984   6.206   4.491   4.379 -0.9052  0.4302  0.4420
   61MOL   C46532985   6.135   4.375   4.448  0.2248  0.6215  0.1351
   61MOL   O46632986   6.101   4.271   4.362  0.1619  0.5165  0.0037
   61MOL   C46732987   6.171   4.157   4.376 -0.3034 -0.1394 -0.0389
   61MOL   O46832988   6.260   4.140   4.458 -0.1511 -0.0092  0.3897
   61MOL   C46932989   6.119   4.049   4.282  0.0846  0.1541  0.1773
   61MOL   C47032990   6.199   3.921   4.306 -1.8533 -0.2859  0.1627
   61MOL   C47132991   5.967   4.017   4.293 -0.1955 -0.0873  0.0621
   61MOL   H47232992   6.194   4.833   4.070 -0.3424 -0.8125 -1.2127
   61MOL   H47332993   6.088   4.829   4.219 -0.6936  0.6273 -1.0675
   61MOL   H47432994   6.037   4.758   4.070 -0.8298  1.6075  0.1521
   61MOL   H47532995   6.289   4.695   4.226 -0.2718  1.1050 -0.9758
   61MOL   H47632996   6.225   4.580   4.105 -0.0915  0.8605 -0.1098
   61MOL   H47732997   6.050   4.509   4.231 -2.2193  3.1330 -0.3005
   61MOL   H47832998   6.046   4.641   4.336 -0.5882 -0.2289 -0.1515
   61MOL   H47932999   6.238   4.558   4.459  1.5031  0.0353 -0.1523
   61MOL   H48033000   6.290   4.449   4.324 -1.6939 -1.0809  0.3828
   61MOL   H48133001   6.191   4.347   4.538  0.0302 -1.1500 -0.2735
   61MOL   H48233002   6.045   4.421   4.489  1.0474  0.6128  2.0073
   61MOL   H48333003   6.162   3.833   4.253 -1.6777 -0.1978 -0.1071
   61MOL   H48433004   6.194   3.870   4.402  0.2236 -0.4694  0.1942
   61MOL   H48533005   6.307   3.927   4.310 -1.4737 -4.8165 -0.8948
   61MOL   H48633006   5.952   3.922   4.241 -1.2953 -0.4220  0.9544
   61MOL   H48733007   5.910   4.090   4.236 -0.8025 -1.3305 -0.9661
   61MOL   C48833008   5.709   4.659   4.086  0.3680 -0.3647 -0.4462
   61MOL   C48933009   5.707   4.640   4.233  0.7853 -0.0258  0.2359
   61MOL   C49033010   5.726   4.492   4.281  0.2448 -0.3763  0.1082
   61MOL   C49133011   5.759   4.487   4.425 -0.0149  0.1952  0.3227
   61MOL   C49233012   5.727   4.345   4.491 -0.3071 -0.6408  0.1047
   61MOL   O49333013   5.788   4.232   4.426 -0.4330  0.3057  0.1569
   61MOL   C49433014   5.864   4.149   4.501  0.7709 -0.1072  0.3169
   61MOL   O49533015   5.920   4.179   4.608  0.1685  0.0479  0.1287
   61MOL   C49633016   5.880   4.009   4.437 -0.1401 -0.3467  0.0773
   61MOL   C49733017   5.956   3.914   4.537  0.2159  0.0486  0.5966
   61MOL   C49833018   5.737   3.943   4.409 -0.2163 -0.4935 -0.1529
   61MOL   H49933019   5.644   4.583   4.043 -0.7638  0.9740 -1.1794
   61MOL   H50033020   5.682   4.759   4.050  1.1885  0.4392  1.1001
   61MOL   H50133021   5.813   4.637   4.065  0.7334  1.9650 -1.1913
   61MOL   H50233022   5.617   4.675   4.283 -0.0593  0.4050 -1.5343
   61MOL   H50333023   5.788   4.697   4.279  2.6284 -0.4760 -2.2865
   61MOL   H50433024   5.627   4.448   4.269  0.6529 -0.8909 -1.4140
   61MOL   H50533025   5.800   4.437   4.223  1.5060  0.5698  0.7878
   61MOL   H50633026   5.696   4.557   4.482 -2.5430 -2.0098  0.3194
   61MOL   H50733027   5.859   4.528   4.440 -0.3594  2.3282 -2.7044
   61MOL   H50833028   5.758   4.355   4.595  0.7993 -4.6648  0.2673
   61MOL   H50933029   5.618   4.348   4.494 -0.2399  1.8877  0.5326
   61MOL   H51033030   6.052   3.954   4.568  0.2894  2.2900 -2.2879
   61MOL   H51133031   5.984   3.816   4.500  0.9384 -0.4204  2.3304
   61MOL   H51233032   5.898   3.911   4.630  1.5750 -1.9210  1.3982
   61MOL   H51333033   5.743   3.856   4.344  0.3929 -0.2041 -0.4908
   61MOL   H51433034   5.687   4.017   4.347  1.9343  1.1190 -0.0288
   61MOL   C51533035   6.062   3.166   4.428 -0.7057 -0.4454 -0.4241
   61MOL   C51633036   5.971   3.280   4.375  0.0869  0.1164 -0.5779
   61MOL   C51733037   5.876   3.336   4.485  0.1448  0.0705  0.2763
   61MOL   C51833038   5.826   3.482   4.451 -0.5972  0.2058  0.4896
   61MOL   C51933039   5.740   3.547   4.558  0.1833  0.3030 -0.0693
   61MOL   O52033040   5.708   3.675   4.517  0.8495 -0.0358 -0.2919
   61MOL   C52133041   5.688   3.766   4.605  0.2439 -0.6532  0.1294
   61MOL   O52233042   5.700   3.747   4.727  0.4233 -0.0525  0.2640
   61MOL   C52333043   5.644   3.899   4.527 -0.0358 -0.6446 -0.8905
   61MOL   C52433044   5.510   3.861   4.456  0.5790  0.4089  0.4257
   61MOL   C52533045   5.608   4.008   4.629  0.0230  0.0744 -0.2838
   61MOL   H52633046   6.003   3.085   4.469 -0.8756  0.3935  1.0137
   61MOL   H52733047   6.132   3.122   4.356  0.5346  1.1829 -0.2459
   61MOL   H52833048   6.123   3.205   4.510  0.8227  1.3154 -2.3574
   61MOL   H52933049   6.029   3.369   4.349  1.7529 -0.5450  0.7782
   61MOL   H53033050   5.911   3.248   4.290  1.0654 -0.4064 -1.0777
   61MOL   H53133051   5.791   3.269   4.499  0.5644 -0.5014  0.1434
   61MOL   H53233052   5.929   3.347   4.580 -0.8946 -1.2793  1.0386
   61MOL   H53333053   5.783   3.471   4.351  2.8863  2.3291 -1.3538
   61MOL   H53433054   5.913   3.548   4.443  0.3627 -1.3460 -2.9704
   61MOL   H53533055   5.656   3.480   4.577  1.0905 -1.0959 -0.8651
   61MOL   H53633056   5.800   3.546   4.650 -0.9791 -1.1284  0.7026
   61MOL   H53733057   5.437   3.820   4.526 -1.6848  1.2508 -1.3550
   61MOL   H53833058   5.520   3.786   4.377 -0.0466 -1.7848  2.3707
   61MOL   H53933059   5.463   3.946   4.406  1.8606  0.7871 -0.1562
   61MOL   H54033060   5.545   4.089   4.592 -1.8259 -1.0175  0.4251
   61MOL   H54133061   5.699   4.048   4.673 -0.9315 -1.1705  2.9535
   61MOL   H54233062   5.549   3.965   4.710  1.3755 -1.3511 -0.0376
   62MOL     C133063   5.423   5.267   4.316 -0.0186  0.7911 -0.7413
   62MOL     C233064   5.490   5.352   4.208 -0.5383  0.1104  0.4298
   62MOL     C333065   5.618   5.413   4.255  0.3602 -0.5441 -0.0424
   62MOL     C433066   5.722   5.479   4.165 -0.2459 -0.3746 -0.2761
   62MOL     C533067   5.685   5.613   4.106  0.9534  0.2180  0.2296
   62MOL     O633068   5.692   5.707   4.211 -0.0074 -1.1603  0.5972
   62MOL     C733069   5.735   5.830   4.183 -0.3368 -0.7823  0.4691
   62MOL     O833070   5.767   5.876   4.075 -0.0499 -0.0297 -0.5818
   62MOL     C933071   5.740   5.920   4.305 -0.2866  0.7621  0.2543
   62MOL    C1033072   5.878   5.890   4.374 -0.3105  0.3208 -1.4085
   62MOL    C1133073   5.617   5.900   4.394  0.4041 -0.8116  0.4494
   62MOL    H1233074   5.483   5.182   4.349  0.8557  1.5230 -0.4391
   62MOL    H1333075   5.327   5.226   4.284 -0.9296 -0.5354  3.3707
   62MOL    H1433076   5.399   5.328   4.402  2.4032  1.0414 -0.2259
   62MOL    H1533077   5.516   5.289   4.122 -2.2448 -0.3767  0.2555
   62MOL    H1633078   5.419   5.429   4.178  2.7916  2.1999 -2.3745
   62MOL    H1733079   5.596   5.480   4.339 -1.6041 -0.0368 -0.9513
   62MOL    H1833080   5.675   5.331   4.298 -0.1127 -0.5506  0.5850
   62MOL    H1933081   5.739   5.406   4.086 -0.7939 -1.1659  0.3305
   62MOL    H2033082   5.814   5.493   4.221 -0.5404 -0.3380  0.2060
   62MOL    H2133083   5.749   5.640   4.023  0.8230  1.3543  0.4951
   62MOL    H2233084   5.583   5.613   4.067  0.1070 -0.5343  2.3398
   62MOL    H2333085   5.956   5.896   4.298  1.6036 -1.6996  0.3168
   62MOL    H2433086   5.891   5.800   4.434  2.4857  1.1603 -0.6766
   62MOL    H2533087   5.891   5.969   4.448  1.2165  1.9860 -3.3792
   62MOL    H2633088   5.657   5.840   4.476  1.8692  0.5157  0.7357
   62MOL    H2733089   5.545   5.845   4.334  2.4390 -0.9526 -1.9268
   62MOL    H2833090   5.733   6.017   4.255  0.4317 -0.2670 -1.9129
   62MOL    C2933091   4.946   6.463   4.424 -0.2175 -1.3221  0.8709
   62MOL    C3033092   5.009   6.431   4.286 -0.5902  0.0665 -0.2992
   62MOL    C3133093   5.165   6.442   4.278 -0.6729 -0.2584  0.0728
   62MOL    C3233094   5.222   6.323   4.358 -0.3050 -0.3845 -0.5324
   62MOL    C3333095   5.374   6.328   4.359 -0.7145  0.2541 -0.2252
   62MOL    O3433096   5.436   6.228   4.433  0.2567  0.2514 -1.2653
   62MOL    C3533097   5.473   6.111   4.371  0.3423  0.1539 -0.0513
   62MOL    O3633098   5.441   6.077   4.255  0.5981  0.0496  0.0266
   62MOL    C3733099   5.549   6.021   4.462  0.2224 -0.0753  0.2206
   62MOL    C3833100   5.664   6.093   4.527  0.4045  0.2022  0.6874
   62MOL    C3933101   5.456   5.976   4.582  0.0247  0.3916 -0.5683
   62MOL    H4033102   4.964   6.563   4.465  1.3139 -2.1773  2.3846
   62MOL    H4133103   4.838   6.448   4.423 -0.4572  0.3722  0.5673
   62MOL    H4233104   4.992   6.398   4.499 -0.2791  0.1968  2.2410
   62MOL    H4333105   4.959   6.497   4.215 -3.0684 -0.4938  0.8822
   62MOL    H4433106   4.966   6.338   4.250 -2.2974 -0.0186  1.8730
   62MOL    H4533107   5.186   6.538   4.325 -1.4566  0.1490 -0.3922
   62MOL    H4633108   5.193   6.450   4.173  3.1882  3.2353  1.2311
   62MOL    H4733109   5.183   6.301   4.457 -1.1630  0.4368 -0.6839
   62MOL    H4833110   5.202   6.232   4.302  1.0763 -0.7306 -0.5004
   62MOL    H4933111   5.404   6.419   4.411  2.5252 -1.5857  1.2478
   62MOL    H5033112   5.417   6.330   4.259 -0.7463  0.9412 -0.2328
   62MOL    H5133113   5.628   6.186   4.570  0.6631  1.1145 -0.9985
   62MOL    H5233114   5.734   6.132   4.453 -1.1929  0.4526 -0.7170
   62MOL    H5333115   5.711   6.038   4.608  0.7027  1.3566  1.2939
   62MOL    H5433116   5.439   6.072   4.630  0.3891 -0.0040  0.3540
   62MOL    H5533117   5.525   5.922   4.647 -0.2721  0.0529 -0.5312
   62MOL    C5633118   4.925   5.251   4.182  0.1492  0.0899  0.5086
   62MOL    C5733119   4.928   5.382   4.263  0.5255 -0.4353 -0.0748
   62MOL    C5833120   5.078   5.419   4.290  0.2146  0.5843  0.3321
   62MOL    C5933121   5.090   5.565   4.349 -0.6469 -0.2064  0.4121
   62MOL    C6033122   5.233   5.596   4.386 -0.4033  0.1660  0.1526
   62MOL    O6133123   5.232   5.727   4.441 -0.2065 -0.0868 -0.8855
   62MOL    C6233124   5.333   5.762   4.523 -0.1499  0.2199  0.6650
   62MOL    O6333125   5.435   5.704   4.538  0.4281  0.3448 -0.4003
   62MOL    C6433126   5.319   5.904   4.587 -0.0947  0.7695  0.8968
   62MOL    C6533127   5.215   5.992   4.511  0.2588  0.4507  0.1006
   62MOL    C6633128   5.259   5.874   4.728  0.4222  0.0718  0.5514
   62MOL    H6733129   4.992   5.262   4.097 -0.5341  2.4058  0.2131
   62MOL    H6833130   4.828   5.218   4.146  0.2944  0.9248 -0.6708
   62MOL    H6933131   4.972   5.185   4.255  1.1834  1.1434  0.8290
   62MOL    H7033132   4.886   5.459   4.199  0.0227  0.0779  0.8590
   62MOL    H7133133   4.865   5.373   4.352  0.2231 -0.2903 -0.2768
   62MOL    H7233134   5.115   5.340   4.356  0.6635  0.6397  0.1441
   62MOL    H7333135   5.142   5.408   4.203  0.8693  3.4364  0.3998
   62MOL    H7433136   5.031   5.579   4.439 -0.2578 -0.9731  0.7943
   62MOL    H7533137   5.055   5.643   4.281  0.7710  0.6580  0.6398
   62MOL    H7633138   5.274   5.524   4.457  1.8436  1.2975  0.0344
   62MOL    H7733139   5.289   5.584   4.294 -3.2354 -2.0985 -1.3894
   62MOL    H7833140   5.229   6.100   4.521 -0.3463  0.5263  0.1619
   62MOL    H7933141   5.114   5.966   4.541 -0.5631  0.7545 -2.2831
   62MOL    H8033142   5.230   5.965   4.407 -1.8442  0.0545 -0.1186
   62MOL    H8133143   5.310   5.792   4.778 -0.3341 -0.1353  0.9904
   62MOL    H8233144   5.158   5.837   4.709 -0.5067  3.0923 -0.6059
   62MOL    C8333145   5.429   5.669   5.418  0.1077  0.2132 -0.3692
   62MOL    C8433146   5.502   5.785   5.349 -0.9564 -0.2028  0.3474
   62MOL    C8533147   5.515   5.766   5.199 -0.2398  0.4704  0.7030
   62MOL    C8633148   5.594   5.889   5.139 -0.2288  0.0071  0.6550
   62MOL    C8733149   5.593   5.910   4.982  0.7099 -0.0075 -0.2061
   62MOL    O8833150   5.458   5.910   4.942  0.4292  0.3738 -0.3397
   62MOL    C8933151   5.400   6.020   4.894 -0.2794 -0.6646 -0.5255
   62MOL    O9033152   5.447   6.132   4.885  0.0774 -0.3923 -0.3762
   62MOL    C9133153   5.257   5.987   4.840  0.6878  0.1105 -0.2157
   62MOL    C9233154   5.184   6.114   4.784 -0.0591 -0.0019 -0.0217
   62MOL    C9333155   5.170   5.929   4.959 -0.3998 -0.1572  0.0055
   62MOL    H9433156   5.420   5.681   5.527 -2.2327 -2.7628 -0.1770
   62MOL    H9533157   5.330   5.643   5.380  0.9135 -2.2689 -0.8310
   62MOL    H9633158   5.479   5.573   5.415  1.2641  0.6605  2.4073
   62MOL    H9733159   5.599   5.794   5.398  0.3081 -0.0340 -2.0737
   62MOL    H9833160   5.455   5.882   5.366  0.1774  0.6087 -0.9325
   62MOL    H9933161   5.423   5.753   5.143  0.0539  0.0063  0.3246
   62MOL   H10033162   5.578   5.679   5.183 -0.5180 -0.0537  2.3714
   62MOL   H10133163   5.695   5.879   5.178  0.0949  4.0856  1.1067
   62MOL   H10233164   5.557   5.979   5.187  1.0469 -0.3177  2.2857
   62MOL   H10333165   5.637   5.824   4.932  0.8724  1.1441 -2.0892
   62MOL   H10433166   5.639   5.997   4.936 -0.3529  0.4642 -0.4112
   62MOL   H10533167   5.094   6.084   4.730  0.4485  0.2684 -1.0298
   62MOL   H10633168   5.250   6.175   4.722 -0.5933  0.9073  0.2847
   62MOL   H10733169   5.149   6.183   4.861 -2.2028  1.5886 -2.3129
   62MOL   H10833170   5.086   5.868   4.925 -1.9016  1.8611  0.0018
   62MOL   H10933171   5.221   5.840   4.996 -2.2920 -1.3449 -0.1812
   62MOL   C11033172   4.471   6.439   4.750 -0.0399  0.1193 -0.9769
   62MOL   C11133173   4.611   6.401   4.752  0.3305  0.0005  0.6730
   62MOL   C11233174   4.636   6.250   4.786  0.1930 -0.3763  0.1394
   62MOL   C11333175   4.778   6.220   4.828  0.1366  0.3513 -0.3132
   62MOL   C11433176   4.779   6.084   4.907  0.0963  0.4528 -0.1725
   62MOL   O11533177   4.907   6.039   4.930  0.4668 -0.0894 -0.2796
   62MOL   C11633178   4.977   6.091   5.030  0.4287 -0.1282  0.2978
   62MOL   O11733179   4.929   6.179   5.097  0.3826 -0.0884  0.8153
   62MOL   C11833180   5.111   6.021   5.071  0.4176 -0.0272 -0.2768
   62MOL   C11933181   5.212   6.124   5.127 -0.0994 -0.7224  0.1251
   62MOL   C12033182   5.083   5.944   5.202 -0.0958  0.3361  0.0388
   62MOL   H12133183   4.419   6.439   4.846  2.6003  0.9138  0.4986
   62MOL   H12233184   4.481   6.542   4.715  0.5615  0.5295  0.3389
   62MOL   H12333185   4.416   6.379   4.678 -2.0591  0.4670  0.2392
   62MOL   H12433186   4.664   6.442   4.666  0.8961  0.8075  1.3868
   62MOL   H12533187   4.648   6.469   4.829 -0.7695 -2.2428  3.2657
   62MOL   H12633188   4.563   6.216   4.860  0.9536 -2.2446  0.0614
   62MOL   H12733189   4.620   6.193   4.695 -0.8464  2.3852 -1.4679
   62MOL   H12833190   4.821   6.302   4.885  1.7266  0.2140 -1.2819
   62MOL   H12933191   4.838   6.205   4.738 -0.3222  1.3455 -0.7992
   62MOL   H13033192   4.715   6.074   4.995  0.3556 -1.4274 -0.1674
   62MOL   H13133193   4.736   6.011   4.839  1.9655 -0.2854 -0.5855
   62MOL   H13233194   5.252   6.201   5.060 -2.7220  0.3174 -0.3230
   62MOL   H13333195   5.186   6.174   5.220  0.1542  1.1819 -0.8048
   62MOL   H13433196   5.297   6.065   5.161 -0.7922 -1.1095  1.2086
   62MOL   H13533197   5.184   5.909   5.226 -0.2478 -0.4879 -0.4809
   62MOL   H13633198   5.063   6.024   5.272 -2.4459 -0.4230  0.2711
   62MOL   C13733199   5.177   5.264   4.667 -0.1530 -0.4074  0.1312
   62MOL   C13833200   5.169   5.402   4.744 -0.0408 -0.5461  0.7541
   62MOL   C13933201   5.218   5.381   4.894  0.1931 -0.5749 -0.7880
   62MOL   C14033202   5.194   5.510   4.973  0.2685  0.3542 -1.5456
   62MOL   C14133203   5.048   5.534   5.036  0.6563  0.1901 -0.0138
   62MOL   O14233204   5.050   5.639   5.123 -0.1767  0.6668  0.1225
   62MOL   C14333205   4.957   5.732   5.114 -0.3765  0.1355  0.5714
   62MOL   O14433206   4.868   5.739   5.030  0.4688 -0.7386  0.1129
   62MOL   C14533207   4.973   5.838   5.232  0.6666 -0.1768  0.1725
   62MOL   C14633208   5.032   5.778   5.363 -0.0256  0.0881 -0.3133
   62MOL   C14733209   4.837   5.910   5.263 -0.3369 -0.6762 -0.6340
   62MOL   H14833210   5.121   5.180   4.710 -0.9203  1.7324  3.4824
   62MOL   H14933211   5.280   5.229   4.666  0.0193  0.1130 -1.0866
   62MOL   H15033212   5.131   5.259   4.569 -1.5555  0.5423  0.7205
   62MOL   H15133213   5.066   5.438   4.742 -0.3164 -1.3402  0.2577
   62MOL   H15233214   5.220   5.477   4.685 -1.0148 -0.0766  0.5027
   62MOL   H15333215   5.172   5.303   4.954 -0.0726  1.3916  1.6501
   62MOL   H15433216   5.322   5.351   4.897 -0.3982 -2.6651 -0.1181
   62MOL   H15533217   5.252   5.488   5.063 -1.6822 -2.4619 -0.8801
   62MOL   H15633218   5.240   5.596   4.926  0.2228  0.6885 -0.9842
   62MOL   H15733219   4.996   5.447   5.076  3.6397 -1.9628 -0.6722
   62MOL   H15833220   4.977   5.559   4.957 -1.0117  1.2352  1.7493
   62MOL   H15933221   5.123   5.722   5.342 -2.3385 -3.2869 -1.6748
   62MOL   H16033222   4.964   5.702   5.401  0.3160  0.9809  2.1894
   62MOL   H16133223   5.041   5.852   5.443  3.7062 -0.8909  0.2401
   62MOL   H16233224   4.860   6.011   5.298 -1.5239 -0.7215  0.3099
   62MOL   H16333225   4.787   5.930   5.169 -0.8161 -2.5554 -0.7973
   62MOL   C16433226   5.141   6.388   5.463  0.4795  0.6676  0.0498
   62MOL   C16533227   5.053   6.349   5.585 -0.3505 -0.1722 -0.1129
   62MOL   C16633228   5.004   6.205   5.576  0.2596  0.0640  0.0755
   62MOL   C16733229   4.873   6.173   5.661 -0.0707  0.4694  0.2561
   62MOL   C16833230   4.827   6.029   5.665  0.1944  0.2180  0.6688
   62MOL   O16933231   4.796   5.997   5.532 -0.2872 -0.5307 -0.5923
   62MOL   C17033232   4.759   5.872   5.498 -0.2611  0.3401  0.9043
   62MOL   O17133233   4.777   5.777   5.568 -0.7742 -0.1481  0.7019
   62MOL   C17233234   4.716   5.854   5.348  0.1605 -0.4605 -0.0419
   62MOL   C17333235   4.687   5.702   5.323  0.3124  0.4745  0.6293
   62MOL   C17433236   4.589   5.938   5.322  0.1707 -0.1916 -0.0381
   62MOL   H17533237   5.227   6.321   5.453  0.5186  0.8669 -0.9902
   62MOL   H17633238   5.184   6.487   5.475  0.9539  0.3985  0.6685
   62MOL   H17733239   5.087   6.372   5.370 -0.7455 -0.3778  0.9226
   62MOL   H17833240   4.968   6.417   5.589  0.2923  0.6868 -1.0856
   62MOL   H17933241   5.108   6.362   5.679  0.9962 -0.5531 -0.8375
   62MOL   H18033242   4.964   6.188   5.476 -1.7199  1.3750  0.6185
   62MOL   H18133243   5.083   6.130   5.586 -0.0004 -0.7185 -3.0271
   62MOL   H18233244   4.791   6.228   5.615  0.9250  0.4728 -1.5788
   62MOL   H18333245   4.896   6.200   5.764  0.5313 -2.2112  0.8507
   62MOL   H18433246   4.741   6.027   5.731  1.2292  1.8095  2.1070
   62MOL   H18533247   4.902   5.958   5.699 -0.5861 -0.4722  0.9505
   62MOL   H18633248   4.780   5.646   5.322  0.6727  1.0756 -1.7427
   62MOL   H18733249   4.644   5.702   5.223  0.8450  1.0906  0.3991
   62MOL   H18833250   4.628   5.649   5.398  2.9289  1.0562  3.1581
   62MOL   H18933251   4.624   6.041   5.313 -1.1458  0.2560 -0.2178
   62MOL   H19033252   4.565   5.912   5.218  0.3581  1.0396 -0.3978
   62MOL   C19133253   4.192   6.513   5.493  0.9567 -0.3543 -0.7595
   62MOL   C19233254   4.297   6.458   5.592 -0.2131  0.1431  0.3979
   62MOL   C19333255   4.271   6.313   5.643  0.1700  0.2852 -0.7254
   62MOL   C19433256   4.391   6.257   5.722 -0.5131 -0.3487 -0.0456
   62MOL   C19533257   4.521   6.229   5.643 -0.5319  0.1964  0.6437
   62MOL   O19633258   4.497   6.146   5.528 -0.7075  0.4612  0.1234
   62MOL   C19733259   4.472   6.010   5.544 -0.3572 -0.0942 -0.0771
   62MOL   O19833260   4.452   5.956   5.651 -0.5777 -0.0397 -0.0557
   62MOL   C19933261   4.459   5.937   5.407  0.1502  0.1705 -0.1820
   62MOL   C20033262   4.406   5.793   5.444 -0.0072  0.8440  0.9036
   62MOL   C20133263   4.361   6.019   5.320  0.2914  0.5044  0.0410
   62MOL   H20233264   4.190   6.620   5.474 -1.2902 -0.2363 -0.0246
   62MOL   H20333265   4.211   6.466   5.397  0.0023 -1.1871 -0.5527
   62MOL   H20433266   4.089   6.480   5.508  0.2577  1.5372 -1.3674
   62MOL   H20533267   4.309   6.517   5.683  2.1148 -2.6425  1.9883
   62MOL   H20633268   4.395   6.456   5.544  0.0906 -0.1494  1.0253
   62MOL   H20733269   4.253   6.259   5.550  0.4200 -0.8737 -0.1254
   62MOL   H20833270   4.184   6.300   5.708 -0.6878  1.9004 -1.5299
   62MOL   H20933271   4.405   6.307   5.818 -1.6794  0.1088 -0.1055
   62MOL   H21033272   4.355   6.160   5.757 -1.9255  0.7882  1.7373
   62MOL   H21133273   4.562   6.324   5.609 -0.5691  0.5450  1.5763
   62MOL   H21233274   4.598   6.190   5.709 -0.3453 -1.2109 -0.3699
   62MOL   H21333275   4.470   5.749   5.521 -0.3506  0.5900  1.0439
   62MOL   H21433276   4.395   5.719   5.365 -0.1098 -0.8399  2.4494
   62MOL   H21533277   4.303   5.806   5.476 -0.0431 -0.7804  1.5325
   62MOL   H21633278   4.395   6.122   5.323  0.0610  0.6081 -0.8358
   62MOL   H21733279   4.268   6.003   5.374  0.9217 -1.6070  0.5734
   62MOL   C21833280   4.635   5.389   4.777 -0.1149  0.3316 -0.5027
   62MOL   C21933281   4.654   5.396   4.931  0.0361 -0.0897  0.4216
   62MOL   C22033282   4.534   5.451   5.011  0.3602 -0.1134 -0.1283
   62MOL   C22133283   4.485   5.591   4.964 -0.1643  0.2808 -0.6645
   62MOL   C22233284   4.380   5.644   5.059 -0.5746 -0.3390  0.5185
   62MOL   O22333285   4.387   5.788   5.067  0.1606  0.8828  0.1464
   62MOL   C22433286   4.293   5.855   5.126  0.2147 -0.1763 -0.1532
   62MOL   O22533287   4.186   5.803   5.162 -0.8134 -0.0321  0.5592
   62MOL   C22633288   4.319   6.000   5.167  0.3412 -0.5813 -0.4745
   62MOL   C22733289   4.423   6.061   5.066  0.1604 -0.9817  0.4041
   62MOL   C22833290   4.191   6.086   5.156 -0.1000  0.3758  0.3998
   62MOL   H22933291   4.548   5.330   4.750 -0.0650  0.6184 -1.3082
   62MOL   H23033292   4.625   5.492   4.743  2.2277  0.5093 -0.7735
   62MOL   H23133293   4.727   5.362   4.725 -1.1259  0.8465 -2.6041
   62MOL   H23233294   4.733   5.463   4.963  1.0656 -1.0272 -0.1089
   62MOL   H23333295   4.684   5.295   4.961 -1.3928 -0.1865  1.5701
   62MOL   H23433296   4.560   5.458   5.117 -0.0578 -0.9674  0.0289
   62MOL   H23533297   4.451   5.380   5.006  0.7074 -0.4226 -1.7760
   62MOL   H23633298   4.573   5.654   4.978  0.5532 -0.8054 -0.2563
   62MOL   H23733299   4.464   5.600   4.857  1.3198  1.9610 -0.8365
   62MOL   H23833300   4.388   5.610   5.163 -0.3556 -0.8634  0.3331
   62MOL   H23933301   4.283   5.602   5.033 -0.1107 -0.7147 -0.6243
   62MOL   H24033302   4.512   6.088   5.123 -1.0634  1.0054  1.4572
   62MOL   H24133303   4.383   6.153   5.023 -0.2484 -1.2735  0.1597
   62MOL   H24233304   4.460   5.995   4.987  0.6866 -0.6171  0.3462
   62MOL   H24333305   4.214   6.188   5.185  0.7022  0.1389  0.5881
   62MOL   H24433306   4.122   6.057   5.236 -1.0872 -1.5167 -1.0845
   62MOL   C24533307   4.110   5.432   4.827  0.1186  0.5015  0.4031
   62MOL   C24633308   3.985   5.449   4.919  0.0911  0.2657 -0.4117
   62MOL   C24733309   3.965   5.589   4.983  0.0093  0.1945  0.1456
   62MOL   C24833310   3.877   5.674   4.892  0.5259 -1.0562 -0.0667
   62MOL   C24933311   3.846   5.815   4.955 -0.1303  0.1539  0.4501
   62MOL   O25033312   3.957   5.903   4.945  0.0076  0.3791  0.1271
   62MOL   C25133313   3.974   5.999   5.037  0.0067  0.4832 -0.4331
   62MOL   O25233314   3.892   6.016   5.133 -0.1556 -0.2069  0.0352
   62MOL   C25333315   4.100   6.094   5.019 -0.7645  0.0311  0.2576
   62MOL   C25433316   4.175   6.045   4.892  0.3913 -0.3403  0.3325
   62MOL   C25533317   4.040   6.244   5.010 -0.3267  0.0463  0.1353
   62MOL   H25633318   4.125   5.328   4.795  0.1545  0.9357 -1.0313
   62MOL   H25733319   4.095   5.494   4.739 -1.0171 -1.1864 -0.6102
   62MOL   H25833320   4.206   5.463   4.869  1.3182 -0.8557 -1.2411
   62MOL   H25933321   3.892   5.409   4.879 -0.5659  1.3485  0.0071
   62MOL   H26033322   4.007   5.394   5.010 -1.1019  0.1116 -0.2052
   62MOL   H26133323   4.058   5.646   4.991 -0.7821  1.3655  1.1066
   62MOL   H26233324   3.919   5.579   5.082  1.4926 -1.3223  0.7194
   62MOL   H26333325   3.919   5.691   4.793  0.0461  1.0257  0.0673
   62MOL   H26433326   3.783   5.620   4.878 -0.7389  0.7422  1.2881
   62MOL   H26533327   3.784   5.869   4.883 -0.6104 -0.7187  0.2042
   62MOL   H26633328   3.804   5.818   5.055 -0.4100  0.9825  0.3102
   62MOL   H26733329   4.263   6.095   4.852 -0.5294 -0.3703 -1.8068
   62MOL   H26833330   4.200   5.939   4.895  0.6844 -0.2877 -0.1797
   62MOL   H26933331   4.105   6.038   4.809  0.0078  0.9970  0.5329
   62MOL   H27033332   3.982   6.257   5.101 -0.1587 -0.9387  0.3838
   62MOL   H27133333   4.131   6.303   5.021 -0.2905 -0.1045  0.6959
   62MOL   C27233334   3.627   6.325   4.097 -0.0869 -0.0921 -0.4184
   62MOL   C27333335   3.657   6.377   4.236  0.5841  0.1693 -0.4357
   62MOL   C27433336   3.790   6.320   4.299 -0.3615  0.3495  0.2011
   62MOL   C27533337   3.807   6.337   4.450  0.3462  0.0299 -0.5329
   62MOL   C27633338   3.941   6.291   4.513 -0.0913 -0.7785 -0.0429
   62MOL   O27733339   3.909   6.277   4.652  0.0630  0.2901  0.1481
   62MOL   C27833340   4.005   6.296   4.752 -0.1029  0.5405 -0.7514
   62MOL   O27933341   4.121   6.299   4.727 -0.1968  0.0246 -0.3196
   62MOL   C28033342   3.945   6.307   4.896  0.0144 -0.3757  0.1293
   62MOL   C28133343   3.812   6.233   4.902 -0.3702  0.1244  0.0956
   62MOL   C28233344   3.908   6.455   4.928  0.4524  1.2813  0.3465
   62MOL   H28333345   3.707   6.336   4.024 -0.2638  0.6960 -0.4895
   62MOL   H28433346   3.608   6.218   4.088  0.1933 -0.1276 -0.5966
   62MOL   H28533347   3.533   6.369   4.067 -0.2056 -1.4281 -2.1027
   62MOL   H28633348   3.647   6.485   4.247 -0.3155  0.2611 -2.0331
   62MOL   H28733349   3.568   6.350   4.293  1.8797 -0.3784  1.3943
   62MOL   H28833350   3.803   6.216   4.268 -0.2779  0.3112  0.3645
   62MOL   H28933351   3.872   6.366   4.244 -0.1320 -1.4744 -1.0278
   62MOL   H29033352   3.780   6.439   4.477  0.6322 -0.2507  0.8437
   62MOL   H29133353   3.726   6.278   4.492 -0.0911  0.4593 -0.7696
   62MOL   H29233354   4.025   6.359   4.498  1.2378 -2.9337 -2.8215
   62MOL   H29333355   3.964   6.193   4.472 -0.1648 -0.5250 -0.6901
   62MOL   H29433356   3.816   6.131   4.865 -0.0331 -0.1024  0.7467
   62MOL   H29533357   3.775   6.221   5.004  1.1052 -0.0723  0.6100
   62MOL   H29633358   3.725   6.272   4.848  0.3076 -1.0247 -1.8607
   62MOL   H29733359   3.841   6.488   4.848  1.0666  2.0780  0.1545
   62MOL   H29833360   3.840   6.449   5.013  2.1065 -1.7609  1.5158
   62MOL   C29933361   4.642   6.753   4.856 -0.3070 -0.6508  0.2024
   62MOL   C30033362   4.535   6.829   4.936 -0.2317 -0.3780  0.5255
   62MOL   C30133363   4.470   6.733   5.033 -0.0908 -0.1491 -0.9893
   62MOL   C30233364   4.375   6.799   5.129  0.3871  0.0691 -0.3520
   62MOL   C30333365   4.267   6.700   5.184  0.0050 -0.2430  0.5382
   62MOL   O30433366   4.165   6.677   5.086 -0.4988 -0.0689  0.2601
   62MOL   C30533367   4.080   6.577   5.080 -0.3368  0.1353 -1.4245
   62MOL   O30633368   4.062   6.486   5.162 -0.8930 -0.1210 -0.0582
   62MOL   C30733369   4.001   6.579   4.946  0.3298  0.2633 -0.0648
   62MOL   C30833370   4.105   6.587   4.830  0.2717  0.9748  0.4632
   62MOL   C30933371   3.910   6.715   4.926 -0.2733  0.0906  0.4134
   62MOL   H31033372   4.579   6.723   4.772 -1.4171 -0.9397  1.1296
   62MOL   H31133373   4.696   6.676   4.912  2.6595 -0.4858 -2.2927
   62MOL   H31233374   4.724   6.810   4.813 -0.6510 -0.2763  0.0423
   62MOL   H31333375   4.460   6.879   4.875  0.7253  1.0624  0.4895
   62MOL   H31433376   4.583   6.904   5.000 -0.9040  0.6003 -0.1112
   62MOL   H31533377   4.554   6.684   5.082 -0.1089 -0.3080 -1.1180
   62MOL   H31633378   4.419   6.658   4.972 -0.4995  0.1919 -1.0743
   62MOL   H31733379   4.330   6.869   5.059  0.2954  0.1564 -0.2054
   62MOL   H31833380   4.434   6.854   5.202  1.3210  0.2570 -1.2290
   62MOL   H31933381   4.310   6.604   5.212 -1.6320 -1.6886 -1.7606
   62MOL   H32033382   4.214   6.743   5.268 -0.0735  2.0699 -0.6534
   62MOL   H32133383   4.162   6.680   4.834  2.3862 -0.3443  1.5767
   62MOL   H32233384   4.181   6.510   4.843 -0.5793  0.4898  2.8836
   62MOL   H32333385   4.067   6.594   4.728  1.4205  0.1596 -0.0394
   62MOL   H32433386   3.877   6.711   4.822  1.7858  0.7714 -0.2955
   62MOL   H32533387   3.982   6.795   4.944  2.3386 -2.0312 -0.1183
   62MOL   C32633388   3.991   6.686   5.764  0.8992  0.2922  0.7506
   62MOL   C32733389   3.937   6.726   5.631  0.7821  0.2273 -0.5704
   62MOL   C32833390   3.815   6.633   5.601 -0.3145 -0.0808 -0.0995
   62MOL   C32933391   3.748   6.651   5.460  0.0657 -0.1597 -0.5174
   62MOL   C33033392   3.842   6.599   5.345  0.0387 -0.2185 -0.2949
   62MOL   O33133393   3.797   6.634   5.215 -0.1050 -0.4795  0.4637
   62MOL   C33233394   3.832   6.754   5.161  0.5569 -0.6027  0.3896
   62MOL   O33333395   3.909   6.834   5.211  0.4063  0.5765 -0.5247
   62MOL   C33433396   3.790   6.765   5.013 -0.4998  0.1583 -0.6927
   62MOL   C33533397   3.769   6.917   4.977  0.6179 -0.2861  0.1338
   62MOL   C33633398   3.658   6.693   4.982  0.5671  0.6640 -0.1776
   62MOL   H33733399   3.927   6.705   5.850  0.5599  1.5376  0.2401
   62MOL   H33833400   4.083   6.735   5.795  0.8083  0.7821  0.2474
   62MOL   H33933401   4.002   6.578   5.765 -1.3099  0.0394  1.1899
   62MOL   H34033402   4.003   6.700   5.549  0.3118 -0.4529 -0.7414
   62MOL   H34133403   3.915   6.832   5.630 -0.5773 -0.0364 -1.6061
   62MOL   H34233404   3.736   6.632   5.675 -0.5711  0.3219 -0.3708
   62MOL   H34333405   3.840   6.527   5.607 -3.5833 -0.9332 -0.8555
   62MOL   H34433406   3.725   6.757   5.445  0.1747 -0.1277 -0.4519
   62MOL   H34533407   3.661   6.586   5.453  1.8912 -2.7456  0.0510
   62MOL   H34633408   3.851   6.494   5.373 -1.0372  0.4465  2.7843
   62MOL   H34733409   3.934   6.653   5.367 -1.4222  2.0529  0.4140
   62MOL   H34833410   3.849   6.979   5.016  0.7206 -1.3596  1.6915
   62MOL   H34933411   3.689   6.976   5.023 -0.9896 -1.5749 -0.9221
   62MOL   H35033412   3.766   6.931   4.869  0.6193 -1.9058 -0.0973
   62MOL   H35133413   3.670   6.594   5.025  2.4491  0.5146 -1.0258
   62MOL   H35233414   3.655   6.663   4.878 -1.3576 -0.6444  0.2189
   62MOL   C35333415   3.543   6.839   4.288 -0.6554  0.8430 -0.7195
   62MOL   C35433416   3.645   6.821   4.399 -0.0187 -0.1312 -0.7858
   62MOL   C35533417   3.597   6.883   4.525 -0.2458  0.0072 -0.6835
   62MOL   C35633418   3.466   6.833   4.578 -0.0493  0.1566  0.1862
   62MOL   C35733419   3.420   6.905   4.707  0.7558 -0.4035 -0.1394
   62MOL   O35833420   3.489   6.836   4.813 -0.6271  0.0284 -0.2627
   62MOL   C35933421   3.449   6.840   4.940  0.4184 -0.5339  1.1133
   62MOL   O36033422   3.360   6.919   4.979  0.2419 -0.0659 -0.0641
   62MOL   C36133423   3.508   6.729   5.028 -0.0787 -0.2439 -0.1867
   62MOL   C36233424   3.509   6.779   5.173 -0.0695  1.2098  0.1279
   62MOL   C36333425   3.414   6.601   5.027 -0.4568 -0.2167 -0.1297
   62MOL   H36433426   3.603   6.809   4.202  1.0031 -0.2280  0.7587
   62MOL   H36533427   3.503   6.940   4.284 -0.7787  0.7640 -1.4201
   62MOL   H36633428   3.460   6.768   4.294 -0.4660  0.7635  1.6279
   62MOL   H36733429   3.674   6.717   4.418  0.8932 -0.0298 -1.5985
   62MOL   H36833430   3.736   6.868   4.362 -0.7871  0.9086 -1.3967
   62MOL   H36933431   3.585   6.989   4.505 -1.1007 -0.1314 -0.9455
   62MOL   H37033432   3.666   6.871   4.609 -2.6326  1.0505  1.4693
   62MOL   H37133433   3.453   6.727   4.598  0.0459 -0.3737 -2.5058
   62MOL   H37233434   3.396   6.860   4.499  2.5168  2.7329 -1.2633
   62MOL   H37333435   3.422   7.013   4.693  0.4101 -0.1982  1.2785
   62MOL   H37433436   3.316   6.891   4.737  0.7901  1.9212  1.2191
   62MOL   H37533437   3.412   6.817   5.205 -0.2533  0.9529 -0.1187
   62MOL   H37633438   3.551   6.703   5.239  2.8222  2.6189  0.0033
   62MOL   H37733439   3.573   6.867   5.181  0.2507  1.1018 -1.1302
   62MOL   H37833440   3.466   6.527   5.087 -1.9945 -0.1966  1.2681
   62MOL   H37933441   3.325   6.635   5.080  0.4923  2.2727 -0.0784
   62MOL   C38033442   2.719   6.941   4.653 -0.2220 -0.6051  0.7920
   62MOL   C38133443   2.844   6.852   4.659 -0.5719  0.1509  0.6416
   62MOL   C38233444   2.822   6.732   4.758 -0.5301  0.6848  0.6708
   62MOL   C38333445   2.940   6.641   4.802  0.7554  0.2916 -0.4203
   62MOL   C38433446   3.065   6.728   4.847  0.0112 -0.2487 -0.1693
   62MOL   O38533447   3.173   6.651   4.901  0.1361  0.0700  0.0977
   62MOL   C38633448   3.264   6.600   4.819 -0.8059 -0.1818 -0.0477
   62MOL   O38733449   3.249   6.609   4.693 -0.2232  0.3956  0.1001
   62MOL   C38833450   3.368   6.522   4.899  0.0653 -0.2014  0.5880
   62MOL   C38933451   3.484   6.494   4.793 -0.1394  0.0307 -0.2943
   62MOL   C39033452   3.316   6.377   4.937 -0.1531 -0.3115  0.3593
   62MOL   H39133453   2.723   6.996   4.560 -0.3041 -2.3432 -0.2728
   62MOL   H39233454   2.626   6.885   4.662 -0.8098  0.4296  1.2891
   62MOL   H39333455   2.727   7.017   4.731 -0.4984  2.3050 -1.9209
   62MOL   H39433456   2.920   6.927   4.676 -1.8680  1.8478 -0.7813
   62MOL   H39533457   2.867   6.818   4.557 -0.4582 -1.3936  1.1670
   62MOL   H39633458   2.778   6.779   4.846  0.8481  0.1438  1.6631
   62MOL   H39733459   2.736   6.677   4.720 -0.2607  1.6542 -1.4284
   62MOL   H39833460   2.898   6.576   4.879 -1.1521  1.3111 -0.5763
   62MOL   H39933461   2.982   6.575   4.726  1.0831  1.0135 -0.8729
   62MOL   H40033462   3.034   6.802   4.921  1.4172  1.9702 -1.7490
   62MOL   H40133463   3.103   6.790   4.766 -1.5907  1.5536  0.4152
   62MOL   H40233464   3.568   6.452   4.847  1.5898  1.6670 -1.6618
   62MOL   H40333465   3.522   6.582   4.742  2.3210 -1.0270 -0.3358
   62MOL   H40433466   3.470   6.423   4.710  2.9536 -1.3261  0.2703
   62MOL   H40533467   3.408   6.318   4.945  0.5176  0.6828  0.1149
   62MOL   H40633468   3.262   6.350   4.847 -0.3361  1.2949 -0.0197
   62MOL   C40733469   3.956   6.227   5.507  0.2263 -0.7035 -0.8871
   62MOL   C40833470   3.855   6.229   5.383  0.3867  0.7543 -0.0143
   62MOL   C40933471   3.709   6.259   5.424 -0.0099 -0.2980 -0.4922
   62MOL   C41033472   3.618   6.258   5.294 -0.2088 -0.3041 -0.1700
   62MOL   C41133473   3.478   6.288   5.333 -0.6588 -0.6335 -0.4879
   62MOL   O41233474   3.405   6.281   5.208  0.6035  0.1617 -0.2593
   62MOL   C41333475   3.290   6.356   5.198 -0.2442  0.3571  0.1633
   62MOL   O41433476   3.254   6.448   5.275 -0.0722 -0.1152  0.3570
   62MOL   C41533477   3.224   6.334   5.060 -0.5860 -0.6198 -0.3567
   62MOL   C41633478   3.095   6.398   5.056  0.7450 -0.1299  0.1418
   62MOL   C41733479   3.200   6.184   5.022 -1.0221 -0.1803  0.1276
   62MOL   H41833480   4.054   6.183   5.487  0.7379  0.0705 -0.1212
   62MOL   H41933481   3.970   6.318   5.566  0.4675 -1.5143  0.3222
   62MOL   H42033482   3.921   6.161   5.586  1.2548 -0.5055 -0.2572
   62MOL   H42133483   3.842   6.128   5.346 -0.6499  0.7182  0.4192
   62MOL   H42233484   3.888   6.301   5.309 -0.9775  0.8660 -0.5387
   62MOL   H42333485   3.686   6.181   5.496  0.3774  0.2350  0.2152
   62MOL   H42433486   3.706   6.352   5.481  0.7921 -0.4802 -0.1614
   62MOL   H42533487   3.621   6.162   5.241  2.6944  0.4876 -1.5380
   62MOL   H42633488   3.656   6.324   5.216  1.5579 -0.1082  0.8418
   62MOL   H42733489   3.443   6.214   5.404  0.4572 -1.6796 -1.0075
   62MOL   H42833490   3.464   6.384   5.383  0.7439 -0.6662 -0.0123
   62MOL   H42933491   3.054   6.392   4.955 -0.1504  1.0967  0.4161
   62MOL   H43033492   3.107   6.505   5.074  2.1948 -0.3830  0.7266
   62MOL   H43133493   3.021   6.364   5.128 -0.4253  1.0962 -0.4720
   62MOL   H43233494   3.292   6.129   5.042 -1.1491 -1.3115 -2.3006
   62MOL   H43333495   3.183   6.169   4.916 -1.0806  2.5732 -0.2841
   62MOL   C43433496   2.620   6.409   4.831  0.0439 -0.2396  0.3678
   62MOL   C43533497   2.638   6.387   4.681 -0.2525 -0.2551  0.5278
   62MOL   C43633498   2.709   6.256   4.641  0.7653 -0.0024  0.2660
   62MOL   C43733499   2.830   6.222   4.732  0.5107  0.2178  0.4264
   62MOL   C43833500   2.811   6.108   4.837 -0.2183 -0.0199 -0.0320
   62MOL   O43933501   2.934   6.080   4.908  0.1887 -0.8892 -0.3103
   62MOL   C44033502   2.946   6.119   5.040 -0.0980  0.3750 -0.1108
   62MOL   O44133503   2.859   6.151   5.119 -0.2389  0.4020  0.2576
   62MOL   C44233504   3.088   6.088   5.091  0.4899 -0.0889  0.5173
   62MOL   C44333505   3.107   6.111   5.247 -0.0743  0.0504  0.0196
   62MOL   C44433506   3.138   5.939   5.060  0.1658  0.4856  0.1201
   62MOL   H44533507   2.549   6.338   4.875  1.1110 -0.6272  1.4936
   62MOL   H44633508   2.716   6.414   4.882  1.0645 -0.4028 -1.5001
   62MOL   H44733509   2.586   6.512   4.844  2.3389  0.5693  0.0213
   62MOL   H44833510   2.540   6.386   4.633 -0.6576  0.4699  1.3142
   62MOL   H44933511   2.700   6.460   4.629  0.2273 -0.4950  0.7630
   62MOL   H45033512   2.630   6.181   4.635  0.7285  0.0431  0.1834
   62MOL   H45133513   2.745   6.284   4.542  1.5678 -0.3891  0.4501
   62MOL   H45233514   2.861   6.314   4.782  0.0074 -0.6103  2.3071
   62MOL   H45333515   2.916   6.205   4.667 -2.9016 -0.0132 -4.1915
   62MOL   H45433516   2.790   6.011   4.792  0.7320 -0.5107  0.5658
   62MOL   H45533517   2.726   6.137   4.900 -0.6736  1.5177 -1.3229
   62MOL   H45633518   3.056   6.204   5.273 -2.5679 -0.4885 -2.6361
   62MOL   H45733519   3.055   6.031   5.300 -1.2471  2.0000  1.8563
   62MOL   H45833520   3.213   6.110   5.272  0.2107 -0.1408 -1.1563
   62MOL   H45933521   3.210   5.935   5.142 -2.6203 -1.2563  2.5900
   62MOL   H46033522   3.200   5.943   4.970  0.0353 -1.3795 -0.0706
   62MOL   C46133523   2.343   5.664   5.073  0.4526 -0.0837 -0.4243
   62MOL   C46233524   2.431   5.760   4.994  0.3820  0.4296 -0.3728
   62MOL   C46333525   2.563   5.696   4.955 -0.3776  0.1809  0.8321
   62MOL   C46433526   2.650   5.763   4.841  0.0843  0.7420 -0.5423
   62MOL   C46533527   2.784   5.691   4.807 -0.4492  0.1722  0.4585
   62MOL   O46633528   2.874   5.707   4.916  0.1226  0.1644  0.1200
   62MOL   C46733529   2.978   5.784   4.915 -0.0178 -0.5777 -0.1649
   62MOL   O46833530   3.018   5.849   4.818  0.4937 -0.2983 -0.8111
   62MOL   C46933531   3.051   5.802   5.058 -0.3769 -0.2779  0.3783
   62MOL   C47033532   2.940   5.805   5.170 -0.1471 -0.2202 -0.5150
   62MOL   C47133533   3.145   5.679   5.092  0.5623  0.2438  0.3896
   62MOL   H47233534   2.246   5.705   5.102 -0.3179  0.7340 -3.8796
   62MOL   H47333535   2.394   5.632   5.164 -2.7122 -0.2880  1.3554
   62MOL   H47433536   2.323   5.573   5.017  1.2108  0.0680 -0.9457
   62MOL   H47533537   2.434   5.844   5.063 -1.9020  0.1150  0.1579
   62MOL   H47633538   2.382   5.789   4.900  0.5421  1.1345 -0.2345
   62MOL   H47733539   2.541   5.596   4.918  1.8231 -0.2562  0.6276
   62MOL   H47833540   2.622   5.681   5.045 -0.6485  0.1435  1.0060
   62MOL   H47933541   2.673   5.866   4.867  2.4298  0.1082 -0.0309
   62MOL   H48033542   2.595   5.756   4.747 -2.0200 -0.5422  0.7367
   62MOL   H48133543   2.767   5.585   4.791  1.2019  0.0520 -0.6523
   62MOL   H48233544   2.831   5.727   4.715 -0.0471 -0.5086  0.3939
   62MOL   H48333545   2.987   5.805   5.268 -1.4587  2.4527  0.1812
   62MOL   H48433546   2.874   5.718   5.166  1.0203 -1.0694 -1.4481
   62MOL   H48533547   2.868   5.887   5.160 -0.9095 -0.9791 -1.3215
   62MOL   H48633548   3.079   5.592   5.093  1.7369 -0.6699  0.0725
   62MOL   H48733549   3.179   5.688   5.195 -1.8031  1.6677  1.0954
   62MOL   C48833550   3.812   5.813   5.530 -0.1624 -0.1480 -0.8139
   62MOL   C48933551   3.689   5.723   5.493 -0.7947 -0.5183 -0.3200
   62MOL   C49033552   3.662   5.745   5.346  0.4291 -0.6352 -0.3407
   62MOL   C49133553   3.578   5.873   5.309  0.0937 -0.4069  0.5708
   62MOL   C49233554   3.524   5.874   5.163  0.0213  0.0001  0.9035
   62MOL   O49333555   3.415   5.785   5.138 -0.3370  0.1860  0.2386
   62MOL   C49433556   3.383   5.747   5.014  0.0337  0.3781 -0.8580
   62MOL   O49533557   3.442   5.780   4.911  0.1900  0.2207  0.1136
   62MOL   C49633558   3.270   5.635   5.003 -0.0146  0.1291  0.0059
   62MOL   C49733559   3.239   5.591   4.856  0.0126  0.3627  1.1057
   62MOL   C49833560   3.316   5.501   5.080 -0.2364  0.0443  0.1549
   62MOL   H49933561   3.894   5.823   5.459  0.2896  3.0829  0.0822
   62MOL   H50033562   3.780   5.915   5.551  1.2919  0.0735  0.4486
   62MOL   H50133563   3.864   5.779   5.620  0.2359  1.6871 -0.3405
   62MOL   H50233564   3.603   5.735   5.559  0.3166  0.0244  1.0500
   62MOL   H50333565   3.708   5.616   5.498 -1.2634 -0.6693 -1.5838
   62MOL   H50433566   3.754   5.757   5.288 -0.5465  0.6834 -1.6364
   62MOL   H50533567   3.612   5.660   5.301 -0.3184 -0.8513  0.8742
   62MOL   H50633568   3.638   5.963   5.323 -0.7384  0.2610 -0.1422
   62MOL   H50733569   3.496   5.876   5.380  1.1783  0.3167  1.8234
   62MOL   H50833570   3.501   5.978   5.139  0.5460  0.5901  2.8772
   62MOL   H50933571   3.609   5.852   5.099 -3.1161 -1.6243 -2.9585
   62MOL   H51033572   3.221   5.680   4.795 -2.1124 -1.6410 -1.3292
   62MOL   H51133573   3.147   5.532   4.853  1.1571 -1.3921 -0.7875
   62MOL   H51233574   3.317   5.532   4.808 -1.7975 -0.4583 -0.9365
   62MOL   H51333575   3.230   5.437   5.100  0.9347 -1.6260 -0.0036
   62MOL   H51433576   3.339   5.533   5.182 -2.2387 -1.5233  1.1413
   62MOL   C51533577   2.952   5.384   4.487 -0.9321  0.0123  0.8629
   62MOL   C51633578   3.013   5.255   4.543 -0.3786 -0.8723 -0.5696
   62MOL   C51733579   3.090   5.271   4.676  0.0216  0.2837 -0.0349
   62MOL   C51833580   3.174   5.150   4.713 -0.0676 -0.8512 -0.2371
   62MOL   C51933581   3.196   5.139   4.865 -0.6837 -0.4014 -0.5673
   62MOL   O52033582   3.255   5.246   4.936 -0.2559  0.4677 -0.4613
   62MOL   C52133583   3.376   5.294   4.918 -0.4481 -0.4705 -0.1605
   62MOL   O52233584   3.453   5.269   4.824 -0.2354  0.6212  0.2629
   62MOL   C52333585   3.419   5.388   5.032 -0.5458 -0.2812  1.1087
   62MOL   C52433586   3.441   5.308   5.155  0.1361 -0.5710  0.4288
   62MOL   C52533587   3.553   5.455   4.991 -0.0014  0.1192 -0.3749
   62MOL   H52633588   2.871   5.411   4.554  0.4893  3.1235  1.4459
   62MOL   H52733589   3.016   5.468   4.460  0.1092 -1.7185 -2.3592
   62MOL   H52833590   2.899   5.367   4.393 -0.4858 -3.4235  1.1597
   62MOL   H52933591   2.933   5.181   4.550 -0.2505 -0.8469  1.2075
   62MOL   H53033592   3.095   5.221   4.480  2.1087 -2.7114  3.4549
   62MOL   H53133593   3.151   5.361   4.677  0.8087 -0.2497  0.2103
   62MOL   H53233594   3.015   5.298   4.751 -1.5642  1.2523 -1.9257
   62MOL   H53333595   3.267   5.165   4.658  0.6543  1.0895  1.4797
   62MOL   H53433596   3.125   5.062   4.671 -0.3259 -0.9590  0.2948
   62MOL   H53533597   3.095   5.129   4.906 -0.2688 -1.2249  0.2798
   62MOL   H53633598   3.264   5.062   4.903  0.1220  1.3490  1.6518
   62MOL   H53733599   3.345   5.268   5.187  0.3771 -1.0058  0.6088
   62MOL   H53833600   3.495   5.361   5.233  1.6679 -0.4178 -0.7092
   62MOL   H53933601   3.514   5.231   5.131  1.0701  0.2338  0.6775
   62MOL   H54033602   3.559   5.497   4.890  0.3560  2.7768  0.6969
   62MOL   H54133603   3.641   5.399   5.021 -0.7344 -1.9840 -2.0296
   62MOL   H54233604   3.564   5.541   5.058  1.0971 -0.6819  0.4858
   63MOL     C133605   4.851   7.026   2.700  0.0457  0.2836  0.0530
   63MOL     C233606   4.702   7.017   2.728  0.6233 -0.2756 -0.5240
   63MOL     C333607   4.653   7.060   2.866 -0.1576 -0.1515 -0.6757
   63MOL     C433608   4.497   7.045   2.881 -0.0479 -0.2487 -0.4742
   63MOL     C533609   4.460   6.895   2.890  0.2182  0.1687 -0.5333
   63MOL     O633610   4.506   6.840   3.013 -0.3209 -0.0359 -0.7071
   63MOL     C733611   4.457   6.723   3.045 -0.7317  0.2941  0.5699
   63MOL     O833612   4.376   6.657   2.978 -0.0984 -0.2863  0.3036
   63MOL     C933613   4.511   6.670   3.183 -0.1640 -0.3147  0.3867
   63MOL    C1033614   4.459   6.761   3.298  0.8949  0.0980  0.6092
   63MOL    C1133615   4.671   6.657   3.185 -0.8216 -0.7622  0.2250
   63MOL    H1233616   4.868   6.952   2.621  0.2398  0.7326 -0.3244
   63MOL    H1333617   4.909   6.997   2.788  1.8355 -0.7951 -1.4270
   63MOL    H1433618   4.873   7.130   2.677  0.2133  0.5009  1.1683
   63MOL    H1533619   4.657   7.084   2.655  1.8294 -0.0583 -1.0684
   63MOL    H1633620   4.661   6.916   2.720  1.3198 -0.8938  2.6842
   63MOL    H1733621   4.707   7.002   2.941  0.8434  0.8043 -0.6358
   63MOL    H1833622   4.687   7.162   2.886 -1.3119 -0.0783  1.0401
   63MOL    H1933623   4.435   7.088   2.802 -0.9095 -0.2017  0.2249
   63MOL    H2033624   4.463   7.095   2.972 -4.1395 -0.2205 -1.9142
   63MOL    H2133625   4.351   6.891   2.898  0.1643  1.0104 -0.7171
   63MOL    H2233626   4.490   6.842   2.799  0.5804  4.1592 -2.8630
   63MOL    H2333627   4.350   6.764   3.295  0.9520  0.8795 -1.1986
   63MOL    H2433628   4.489   6.863   3.275 -1.1799  0.6578  0.2783
   63MOL    H2533629   4.492   6.727   3.396 -0.7683 -0.3739  1.0201
   63MOL    H2633630   4.713   6.749   3.225 -0.5870 -1.0436  0.6261
   63MOL    H2733631   4.711   6.659   3.083 -1.5942 -1.4353 -0.1004
   63MOL    H2833632   4.468   6.571   3.198 -0.4611 -1.0115 -4.5252
   63MOL    C2933633   5.009   6.007   2.925 -0.0103 -0.2244  0.0499
   63MOL    C3033634   4.879   6.038   2.997 -0.1099 -0.0850  0.0689
   63MOL    C3133635   4.889   6.021   3.148  0.0639  0.1187  0.2909
   63MOL    C3233636   4.749   6.034   3.213 -0.4819 -0.8777  0.3272
   63MOL    C3333637   4.666   6.162   3.178  1.2544  0.2076  0.0172
   63MOL    O3433638   4.736   6.279   3.229 -0.3948 -0.2950  0.2763
   63MOL    C3533639   4.690   6.396   3.185 -0.1175  0.0932  0.3026
   63MOL    O3633640   4.616   6.406   3.087  0.4155 -0.4495  0.0026
   63MOL    C3733641   4.743   6.528   3.249  0.4443 -0.7126  0.0832
   63MOL    C3833642   4.687   6.516   3.386 -0.2515  0.1640 -0.0009
   63MOL    C3933643   4.901   6.536   3.248  0.2930 -0.2180 -0.3830
   63MOL    H4033644   5.048   5.907   2.943 -3.3753 -1.7931 -0.9510
   63MOL    H4133645   4.992   6.023   2.819  1.2807  2.3635  0.1951
   63MOL    H4233646   5.088   6.075   2.957  1.1423 -2.0162  1.0974
   63MOL    H4333647   4.798   5.977   2.957  1.5490 -1.4829 -1.2204
   63MOL    H4433648   4.858   6.139   2.961  0.9534 -0.4171 -1.4926
   63MOL    H4533649   4.952   6.101   3.185 -0.6521 -0.1672  2.1984
   63MOL    H4633650   4.933   5.927   3.181  1.3527  0.2163 -1.1266
   63MOL    H4733651   4.694   5.949   3.172  0.9796 -1.7428  0.1459
   63MOL    H4833652   4.749   6.031   3.322 -0.0709  0.4584  0.3786
   63MOL    H4933653   4.564   6.158   3.216  0.7943  0.3576 -1.1844
   63MOL    H5033654   4.644   6.170   3.072 -1.7144  1.7594  0.6704
   63MOL    H5133655   4.698   6.612   3.437  0.8368 -0.2051  0.4730
   63MOL    H5233656   4.749   6.448   3.444  0.5221 -0.9571 -2.0822
   63MOL    H5333657   4.582   6.489   3.382 -0.2437  0.0199  0.7253
   63MOL    H5433658   4.923   6.439   3.292  0.7627  0.5499  1.1104
   63MOL    H5533659   4.935   6.614   3.316  2.2054 -0.4133 -1.0769
   63MOL    C5633660   5.151   7.363   3.101  0.3531 -0.5937 -0.5518
   63MOL    C5733661   5.190   7.216   3.112  0.5889 -0.5449  0.0204
   63MOL    C5833662   5.070   7.130   3.076 -0.0389 -0.3358 -0.5414
   63MOL    C5933663   5.075   6.987   3.120 -0.0016 -0.2212  0.1409
   63MOL    C6033664   4.958   6.905   3.077 -0.2555  0.1214 -0.1567
   63MOL    O6133665   4.971   6.783   3.138 -0.5625 -0.0467 -0.2254
   63MOL    C6233666   4.969   6.677   3.053 -0.0423 -0.3385 -0.4091
   63MOL    O6333667   4.946   6.676   2.931  0.0551 -0.1131  0.4136
   63MOL    C6433668   4.994   6.540   3.122  0.3945  0.1285 -0.2737
   63MOL    C6533669   4.966   6.422   3.020  0.0823 -0.2676  0.2812
   63MOL    C6633670   5.144   6.548   3.169 -0.9386  0.2089 -0.6377
   63MOL    H6733671   5.105   7.402   3.191 -1.2204 -1.3406 -1.0150
   63MOL    H6833672   5.073   7.385   3.028  1.5564  1.4181 -1.2740
   63MOL    H6933673   5.244   7.418   3.086  0.8275 -0.6273  2.0331
   63MOL    H7033674   5.278   7.189   3.054 -1.0201 -3.4995 -1.1525
   63MOL    H7133675   5.217   7.200   3.216  1.8203 -0.6346 -0.3007
   63MOL    H7233676   4.983   7.178   3.121 -0.3502 -0.9642 -0.4647
   63MOL    H7333677   5.058   7.144   2.969 -0.9539  1.7352 -0.1962
   63MOL    H7433678   5.094   6.972   3.226 -1.2078 -0.9762  0.2626
   63MOL    H7533679   5.171   6.950   3.086  1.3706  2.8309  0.5598
   63MOL    H7633680   4.872   6.959   3.117 -2.7686 -1.8126 -2.6585
   63MOL    H7733681   4.951   6.897   2.968  1.8604 -2.7266 -0.1485
   63MOL    H7833682   4.871   6.417   2.967  0.1128 -0.2962  0.2288
   63MOL    H7933683   4.977   6.333   3.082 -1.9058 -1.0736 -0.4904
   63MOL    H8033684   5.043   6.419   2.942  0.2614 -1.4117  0.5030
   63MOL    H8133685   5.133   6.618   3.252  3.4159  0.3740 -0.0937
   63MOL    H8233686   5.207   6.593   3.092  0.6410  1.8751  1.5576
   63MOL    C8333687   5.047   6.278   3.958 -0.1435  0.0024  0.5313
   63MOL    C8433688   4.995   6.216   3.827  0.3325  0.3440  0.1974
   63MOL    C8533689   4.904   6.309   3.739 -0.3385  0.2843 -0.0755
   63MOL    C8633690   4.993   6.386   3.644 -0.1878  0.3079  0.3265
   63MOL    C8733691   5.051   6.312   3.525  0.7565  0.3583 -0.0447
   63MOL    O8833692   5.122   6.391   3.435  0.6950  0.7019 -0.3776
   63MOL    C8933693   5.152   6.335   3.315  0.1251  1.2271 -0.1110
   63MOL    O9033694   5.130   6.217   3.287  0.2123  0.5020 -0.0913
   63MOL    C9133695   5.234   6.427   3.217 -0.8773  0.0942 -0.1569
   63MOL    C9233696   5.283   6.348   3.098 -0.3388 -0.1136 -0.1720
   63MOL    C9333697   5.349   6.494   3.312 -0.3850  0.1679  0.3859
   63MOL    H9433698   5.104   6.371   3.955 -0.0802 -0.0203  1.0452
   63MOL    H9533699   4.974   6.288   4.038 -1.8155  3.1147 -1.3087
   63MOL    H9633700   5.116   6.203   3.998  0.3796 -1.3325 -2.7445
   63MOL    H9733701   4.918   6.142   3.852 -1.8289  3.4420  3.2945
   63MOL    H9833702   5.076   6.173   3.768 -1.4488 -2.4028 -0.3391
   63MOL    H9933703   4.867   6.380   3.813  0.9858  0.7608  0.1400
   63MOL   H10033704   4.823   6.259   3.685 -1.0158 -0.5220  1.6537
   63MOL   H10133705   5.074   6.430   3.701 -0.2556 -0.7812  1.2931
   63MOL   H10233706   4.943   6.470   3.595 -0.1802  1.0025  1.5082
   63MOL   H10333707   4.956   6.274   3.486 -0.1571  1.5209  1.0081
   63MOL   H10433708   5.110   6.231   3.569  0.2647 -0.1345 -0.2798
   63MOL   H10533709   5.358   6.408   3.046  0.3401  0.9797  1.9875
   63MOL   H10633710   5.211   6.320   3.022 -2.3180  1.2045  1.1657
   63MOL   H10733711   5.325   6.255   3.138  0.1258  0.3644  0.4825
   63MOL   H10833712   5.374   6.594   3.276 -0.2166  0.1573  0.4741
   63MOL   H10933713   5.304   6.515   3.409 -0.8403 -1.0033  0.4325
   63MOL   C11033714   6.083   6.793   3.264 -0.0346 -0.5565  0.2114
   63MOL   C11133715   6.038   6.663   3.197 -0.9443  0.8861  0.0499
   63MOL   C11233716   5.894   6.665   3.155 -0.6545  0.7009  0.1615
   63MOL   C11333717   5.842   6.539   3.088  0.1945  0.4292  0.3379
   63MOL   C11433718   5.695   6.554   3.057  0.2737 -0.2383  0.6603
   63MOL   O11533719   5.617   6.547   3.173 -0.4908  0.6583 -0.0378
   63MOL   C11633720   5.583   6.423   3.230  0.7203  0.3322 -0.2069
   63MOL   O11733721   5.609   6.312   3.183 -0.8411 -0.3225 -0.4197
   63MOL   C11833722   5.491   6.432   3.355 -0.3847 -0.4052  0.0265
   63MOL   C11933723   5.460   6.288   3.412  0.1247 -0.1964  0.2442
   63MOL   C12033724   5.552   6.530   3.466  0.3993  0.0748  0.1882
   63MOL   H12133725   6.055   6.875   3.198 -0.3416 -2.2783 -1.8859
   63MOL   H12233726   6.028   6.806   3.357  0.9913 -1.0297  0.8941
   63MOL   H12333727   6.190   6.788   3.285  0.0747  0.8535  0.0103
   63MOL   H12433728   6.109   6.654   3.115 -0.4868 -0.3619  0.5805
   63MOL   H12533729   6.062   6.579   3.261  1.7114  0.9936 -0.7404
   63MOL   H12633730   5.839   6.671   3.248  0.6762  1.0814  0.9398
   63MOL   H12733731   5.880   6.751   3.088 -0.4373 -0.4503 -1.3826
   63MOL   H12833732   5.854   6.450   3.149 -0.7685  0.8927  1.2091
   63MOL   H12933733   5.904   6.535   2.998  0.3369  0.1785  0.4467
   63MOL   H13033734   5.685   6.648   3.003 -1.5377 -0.8782 -0.1392
   63MOL   H13133735   5.661   6.482   2.983 -0.0040  0.8141 -0.2509
   63MOL   H13233736   5.393   6.296   3.497 -0.8467  0.9545 -0.6144
   63MOL   H13333737   5.409   6.219   3.344 -1.5842 -0.1681  1.4782
   63MOL   H13433738   5.548   6.235   3.449  0.0220 -0.8728 -0.4498
   63MOL   H13533739   5.597   6.613   3.411  0.8316 -0.5640 -0.4397
   63MOL   H13633740   5.467   6.579   3.514 -0.3805  0.6247 -1.7165
   63MOL   C13733741   5.343   6.814   4.070 -0.6513 -0.2863 -0.9780
   63MOL   C13833742   5.386   6.666   4.082  0.5506 -0.2149 -0.3554
   63MOL   C13933743   5.344   6.583   3.959  0.1621  0.1935  0.4606
   63MOL   C14033744   5.397   6.440   3.949  0.5731  0.6040 -0.6854
   63MOL   C14133745   5.370   6.374   3.813 -0.3161 -0.1494  0.3442
   63MOL   O14233746   5.451   6.438   3.715  0.5472 -0.2349  0.5976
   63MOL   C14333747   5.576   6.400   3.687  0.1871  0.8080  0.5315
   63MOL   O14433748   5.626   6.303   3.737  0.4145  0.3375 -0.1113
   63MOL   C14533749   5.645   6.490   3.583 -0.0923  0.2332 -0.5612
   63MOL   C14633750   5.777   6.423   3.524 -0.2452  0.3353  0.8926
   63MOL   C14733751   5.687   6.622   3.656  0.3970 -0.0439  0.3184
   63MOL   H14833752   5.346   6.860   4.169  0.1365  0.5583 -1.3912
   63MOL   H14933753   5.242   6.824   4.031 -0.4903 -1.0268 -1.6102
   63MOL   H15033754   5.410   6.870   4.005  0.0620 -0.6550 -0.5624
   63MOL   H15133755   5.343   6.616   4.169  0.0055  0.4461 -0.2405
   63MOL   H15233756   5.494   6.658   4.097  0.5746  2.6276  1.2111
   63MOL   H15333757   5.237   6.566   3.973  0.1734 -0.3967 -0.1186
   63MOL   H15433758   5.355   6.641   3.868  0.4299 -0.2956  0.1766
   63MOL   H15533759   5.505   6.437   3.966  0.4780  0.3722 -0.1175
   63MOL   H15633760   5.369   6.381   4.036  1.7721  2.0458  0.7193
   63MOL   H15733761   5.267   6.377   3.777  0.0040 -0.6534 -0.6406
   63MOL   H15833762   5.393   6.268   3.821  0.2580  0.2204  4.3906
   63MOL   H15933763   5.753   6.365   3.435 -3.0825  2.2878  0.3176
   63MOL   H16033764   5.828   6.351   3.587 -0.3774 -0.9319 -0.4237
   63MOL   H16133765   5.849   6.499   3.494 -0.0402 -0.3368 -0.3431
   63MOL   H16233766   5.737   6.686   3.584 -3.5419  1.2001 -1.4633
   63MOL   H16333767   5.595   6.680   3.662 -0.2229 -0.3739 -4.4947
   63MOL   C16433768   6.322   6.296   3.368 -0.1694 -0.0355 -0.2077
   63MOL   C16533769   6.365   6.352   3.502  0.5149  0.2942  0.0557
   63MOL   C16633770   6.312   6.482   3.546  0.1724 -0.5889  0.0657
   63MOL   C16733771   6.151   6.506   3.552 -0.1113 -0.3684  0.4429
   63MOL   C16833772   6.118   6.628   3.630  0.1063  0.3197  0.6525
   63MOL   O16933773   5.978   6.644   3.660  0.1467  0.1491 -0.3156
   63MOL   C17033774   5.916   6.575   3.755  0.6015 -0.7739 -0.3495
   63MOL   O17133775   5.969   6.487   3.824 -0.3589  0.2450  0.6624
   63MOL   C17233776   5.777   6.631   3.789  0.0999 -0.4748 -0.3278
   63MOL   C17333777   5.717   6.566   3.915 -0.1255 -0.1719  0.2021
   63MOL   C17433778   5.786   6.787   3.819 -0.2931 -0.2333 -0.3412
   63MOL   H17533779   6.357   6.196   3.344  1.9458  0.4932  0.5380
   63MOL   H17633780   6.353   6.355   3.281  0.0017 -1.6494 -1.2567
   63MOL   H17733781   6.213   6.295   3.376 -0.1506 -5.1814  0.6992
   63MOL   H17833782   6.473   6.364   3.492  0.4969 -1.8821 -3.6574
   63MOL   H17933783   6.350   6.279   3.582  1.2537 -0.3920 -0.4302
   63MOL   H18033784   6.341   6.495   3.650 -2.5913  0.5648  0.7291
   63MOL   H18133785   6.364   6.558   3.487 -1.4668  2.4148  2.3392
   63MOL   H18233786   6.096   6.423   3.598  0.4245 -0.6645  0.5569
   63MOL   H18333787   6.123   6.522   3.448  0.1063  0.2320  0.4747
   63MOL   H18433788   6.148   6.713   3.569 -0.1797 -1.0791 -1.4868
   63MOL   H18533789   6.181   6.641   3.718  2.4714 -0.9331 -0.8176
   63MOL   H18633790   5.716   6.457   3.919  1.6241 -0.2959 -1.8994
   63MOL   H18733791   5.620   6.611   3.938 -0.2819 -0.1880 -0.4134
   63MOL   H18833792   5.785   6.588   3.998 -0.1247  2.1269 -0.3796
   63MOL   H18933793   5.826   6.832   3.728 -1.4420  1.9590  0.2012
   63MOL   H19033794   5.687   6.829   3.801 -0.9889 -1.1863  1.1399
   63MOL   C19133795   5.618   7.521   3.638 -0.9190 -0.3813 -0.0839
   63MOL   C19233796   5.691   7.511   3.773 -0.0057 -0.4120  0.0294
   63MOL   C19333797   5.620   7.423   3.877  0.2510  0.3982  0.0731
   63MOL   C19433798   5.642   7.279   3.842  0.7363 -0.2858 -0.0956
   63MOL   C19533799   5.779   7.225   3.862 -0.1326  0.3274  0.0980
   63MOL   O19633800   5.772   7.083   3.870 -0.0606 -0.6643 -0.1355
   63MOL   C19733801   5.881   7.010   3.893  0.2279  1.0541  0.4886
   63MOL   O19833802   5.996   7.053   3.889  0.4865 -0.2453  0.1949
   63MOL   C19933803   5.849   6.861   3.942  0.1219 -0.4425  0.2151
   63MOL   C20033804   5.989   6.793   3.980 -0.4150 -0.9312  0.0684
   63MOL   C20133805   5.750   6.864   4.066 -0.5338 -0.9602  0.2188
   63MOL   H20233806   5.621   7.436   3.570 -0.5723  1.6084 -2.6613
   63MOL   H20333807   5.514   7.538   3.666 -1.4064 -1.8986 -0.9556
   63MOL   H20433808   5.666   7.600   3.580  0.5460 -1.7128 -0.7203
   63MOL   H20533809   5.705   7.606   3.825  0.2325 -0.5557  0.2282
   63MOL   H20633810   5.791   7.471   3.756 -0.8387 -2.3111 -0.4845
   63MOL   H20733811   5.515   7.453   3.876 -0.5074 -2.1487 -0.9748
   63MOL   H20833812   5.669   7.440   3.973 -0.0715 -0.2743  0.3557
   63MOL   H20933813   5.581   7.209   3.898  1.1475  0.1422  0.9109
   63MOL   H21033814   5.612   7.259   3.739 -2.2579  1.1103  0.4326
   63MOL   H21133815   5.857   7.243   3.788  0.4844 -1.4315  0.3103
   63MOL   H21233816   5.816   7.260   3.958  1.0926 -2.1410  0.5657
   63MOL   H21333817   5.975   6.695   4.026  0.6740 -0.3734  1.6333
   63MOL   H21433818   6.046   6.851   4.052  1.6570 -1.4986 -1.0791
   63MOL   H21533819   6.048   6.793   3.888 -1.0521  3.8003 -0.4750
   63MOL   H21633820   5.703   6.767   4.085 -0.7353 -0.7755  0.6851
   63MOL   H21733821   5.664   6.917   4.026 -0.6944 -1.9635 -0.7816
   63MOL   C21833822   5.867   6.240   4.109  0.7516  0.0198 -0.1076
   63MOL   C21933823   5.879   6.297   4.250 -0.4848 -0.4178 -0.5833
   63MOL   C22033824   5.761   6.386   4.283 -0.5656 -0.3531 -0.5482
   63MOL   C22133825   5.783   6.475   4.397 -0.2726  0.0221  0.1930
   63MOL   C22233826   5.876   6.591   4.371 -0.6912 -0.5107  0.2675
   63MOL   O22333827   5.813   6.691   4.296 -0.3873  0.0314  0.2029
   63MOL   C22433828   5.878   6.803   4.281 -1.6529 -0.2369 -0.0145
   63MOL   O22533829   5.996   6.821   4.314  0.1950  0.1862  0.0501
   63MOL   C22633830   5.801   6.912   4.214 -0.0800 -0.9536  0.5630
   63MOL   C22733831   5.665   6.934   4.291 -0.9565 -0.1932 -0.2794
   63MOL   C22833832   5.877   7.053   4.202 -0.4195 -1.0047 -0.4358
   63MOL   H22933833   5.861   6.310   4.025  1.6502  1.0633  0.6860
   63MOL   H23033834   5.957   6.179   4.098  0.3619 -0.8044  1.1769
   63MOL   H23133835   5.781   6.173   4.104  1.6236 -1.0773 -0.5409
   63MOL   H23233836   5.965   6.362   4.242  0.3434 -1.4559 -0.2742
   63MOL   H23333837   5.896   6.216   4.321 -0.5530 -1.4717 -1.7523
   63MOL   H23433838   5.673   6.326   4.308  0.3285 -0.7673  1.6764
   63MOL   H23533839   5.726   6.451   4.203 -2.9013 -0.0180  0.7121
   63MOL   H23633840   5.685   6.512   4.428 -0.7848 -1.4527  0.3898
   63MOL   H23733841   5.824   6.413   4.477 -0.4192  1.3708  1.3099
   63MOL   H23833842   5.963   6.552   4.318  0.6770 -1.4167  3.0714
   63MOL   H23933843   5.937   6.633   4.451  0.9725 -2.7432  0.2270
   63MOL   H24033844   5.586   6.860   4.280 -1.3071 -0.0461  1.1516
   63MOL   H24133845   5.630   7.027   4.245  0.4524  1.0258  1.0400
   63MOL   H24233846   5.682   6.947   4.398 -1.5699 -2.5591  0.1165
   63MOL   H24333847   5.820   7.104   4.124 -1.4887  0.9934  1.5956
   63MOL   H24433848   5.974   7.034   4.156  0.8734  0.5199  1.5728
   63MOL   C24533849   5.701   7.303   4.925  0.3198  0.1946 -0.4082
   63MOL   C24633850   5.837   7.280   4.863  0.0928 -0.3347 -0.1323
   63MOL   C24733851   5.846   7.145   4.786 -0.0932 -0.5215  0.1017
   63MOL   C24833852   5.989   7.093   4.758 -1.1378 -0.6826 -0.0066
   63MOL   C24933853   5.999   6.990   4.648  0.6082 -0.5847 -0.5992
   63MOL   O25033854   5.934   7.036   4.529  0.2953 -0.0646 -0.2363
   63MOL   C25133855   5.999   7.103   4.425  0.2449  0.6059 -0.2027
   63MOL   O25233856   6.121   7.104   4.416  0.3838  1.0788  0.3127
   63MOL   C25333857   5.908   7.164   4.313 -0.0133 -1.4311  0.3310
   63MOL   C25433858   5.770   7.227   4.363  0.0126 -0.1283  0.1170
   63MOL   C25533859   5.992   7.267   4.236 -1.1736 -0.4286 -0.4186
   63MOL   H25633860   5.669   7.222   4.990 -0.2706  1.7227  1.2160
   63MOL   H25733861   5.702   7.395   4.982  1.4830 -0.1837  0.1869
   63MOL   H25833862   5.621   7.307   4.851  1.4836 -0.7930 -1.7452
   63MOL   H25933863   5.867   7.366   4.803  0.6226  1.5594  2.7369
   63MOL   H26033864   5.897   7.275   4.954  0.6021  2.4747 -0.2723
   63MOL   H26133865   5.781   7.146   4.699  1.1149  0.3762 -0.8154
   63MOL   H26233866   5.805   7.063   4.845  0.7086 -0.0816  1.2807
   63MOL   H26333867   6.045   7.175   4.713 -0.1172 -2.0790 -1.3381
   63MOL   H26433868   6.042   7.055   4.845 -1.7819  0.4717  0.8969
   63MOL   H26533869   6.107   6.990   4.638  0.6362  1.2676 -0.4856
   63MOL   H26633870   5.972   6.892   4.689 -1.0033 -0.8095 -2.1591
   63MOL   H26733871   5.707   7.263   4.281  0.0707 -0.0849  0.0913
   63MOL   H26833872   5.700   7.155   4.406  1.0296 -1.0335  0.2756
   63MOL   H26933873   5.788   7.304   4.437 -0.5802  2.2245 -2.1213
   63MOL   H27033874   6.093   7.233   4.212  0.1666  2.2949  1.0831
   63MOL   H27133875   5.949   7.287   4.138 -1.3415  0.6996 -0.1350
   63MOL   C27233876   5.677   0.309   4.617  1.1311 -1.0546  0.3925
   63MOL   C27333877   5.687   0.159   4.635  0.5502 -0.4091 -0.1711
   63MOL   C27433878   5.733   0.087   4.506 -0.1724 -0.3025  0.3789
   63MOL   C27533879   5.794   7.764   4.515  0.1450  0.2981 -0.0046
   63MOL   C27633880   5.809   7.713   4.369  0.2413 -0.2565  0.2913
   63MOL   O27733881   5.907   7.615   4.368 -0.0530  0.1785  0.9719
   63MOL   C27833882   5.908   7.508   4.278  0.5726 -0.6596 -0.3402
   63MOL   O27933883   5.815   7.488   4.204 -0.2862 -0.2754  0.3507
   63MOL   C28033884   6.026   7.410   4.296 -0.3902 -0.1961  0.4165
   63MOL   C28133885   6.056   7.404   4.450 -0.9903 -0.1946 -1.0898
   63MOL   C28233886   6.152   7.470   4.222 -0.3313  0.8694 -0.2140
   63MOL   H28333887   5.616   0.337   4.531 -1.2532 -1.0120  2.0604
   63MOL   H28433888   5.638   0.353   4.708  1.8264 -1.1430  0.7388
   63MOL   H28533889   5.778   0.349   4.622  1.4916 -2.1250  2.0445
   63MOL   H28633890   5.749   0.147   4.725 -1.5223  0.4362  1.4197
   63MOL   H28733891   5.593   0.117   4.668 -0.2344  2.3480  1.3011
   63MOL   H28833892   5.650   0.087   4.436  0.0714 -1.1744  0.0723
   63MOL   H28933893   5.810   0.151   4.464  0.2516  0.2518  1.9473
   63MOL   H29033894   5.892   7.767   4.564  0.6402  1.5769 -1.0496
   63MOL   H29133895   5.729   7.698   4.572 -1.8217  2.5392  0.4022
   63MOL   H29233896   5.852   7.796   4.313  1.2833 -2.4564 -2.2773
   63MOL   H29333897   5.717   7.680   4.321  0.9186  0.0774 -1.2656
   63MOL   H29433898   5.978   7.366   4.516 -1.2360  1.8385 -0.1486
   63MOL   H29533899   6.144   7.341   4.463 -1.3763 -1.0796 -2.6259
   63MOL   H29633900   6.078   7.501   4.494  0.7173  0.5049 -3.3511
   63MOL   H29733901   6.182   7.555   4.284  0.3783 -0.6161  1.5474
   63MOL   H29833902   6.237   7.410   4.256  0.5183  2.4047  0.4346
   63MOL   C29933903   6.410   6.718   3.924  0.7344 -0.6194  0.3703
   63MOL   C30033904   6.348   6.844   3.983  0.7094 -0.1084  0.2110
   63MOL   C30133905   6.458   6.956   3.995  0.5562 -0.0883  0.6429
   63MOL   C30233906   6.416   7.084   4.062  0.2604  0.9887 -0.1093
   63MOL   C30333907   6.295   7.150   3.997 -0.4373 -0.6892 -0.7206
   63MOL   O30433908   6.264   7.278   4.051  0.1753 -0.2076  0.5959
   63MOL   C30533909   6.175   7.361   3.993 -0.9656 -0.0374  0.7359
   63MOL   O30633910   6.101   7.338   3.903  0.1588  0.2817 -0.3927
   63MOL   C30733911   6.169   7.500   4.066  0.1878  0.1905  0.1601
   63MOL   C30833912   6.045   7.572   4.014 -0.1625  0.1834  0.1728
   63MOL   C30933913   6.308   7.578   4.046  0.2347  0.1724 -0.0899
   63MOL   H31033914   6.353   6.627   3.939 -2.0200  1.0264  0.1820
   63MOL   H31133915   6.505   6.713   3.977 -0.0685 -0.7875  1.8126
   63MOL   H31233916   6.438   6.722   3.819  0.7710 -1.3574  0.3526
   63MOL   H31333917   6.309   6.822   4.082  0.6504 -1.2035 -0.0545
   63MOL   H31433918   6.261   6.884   3.930  0.6632 -0.0553  0.3269
   63MOL   H31533919   6.499   6.967   3.895  0.6958  0.7393  0.7882
   63MOL   H31633920   6.539   6.932   4.064  2.1589  0.3671 -1.0665
   63MOL   H31733921   6.498   7.155   4.069 -0.5781  1.9066  0.6384
   63MOL   H31833922   6.389   7.066   4.166  0.6652 -1.8389 -0.4726
   63MOL   H31933923   6.309   7.155   3.889 -2.4519  0.0397 -0.9705
   63MOL   H32033924   6.206   7.090   4.015  0.7705 -2.1254  0.6054
   63MOL   H32133925   6.029   7.671   4.057 -0.3059  0.2857 -0.1198
   63MOL   H32233926   6.060   7.599   3.910  1.1705  3.3357  1.1127
   63MOL   H32333927   5.949   7.522   4.013 -1.0711  1.8966  0.2807
   63MOL   H32433928   6.381   7.535   4.115  0.5083 -1.9062 -1.6094
   63MOL   H32533929   6.295   7.675   4.093  1.1877  0.6198 -0.7135
   63MOL   C32633930   6.155   0.531   3.896  0.1185 -0.0152  0.6423
   63MOL   C32733931   6.254   0.442   3.967  0.2012 -0.3978  0.4372
   63MOL   C32833932   6.270   0.302   3.899 -0.2895 -0.1559 -0.4689
   63MOL   C32933933   6.147   0.210   3.901  0.1891  0.0575  0.2003
   63MOL   C33033934   6.163   0.085   3.818  0.0362 -0.2245  1.0676
   63MOL   O33133935   6.240   7.809   3.884 -0.0317  0.2972  0.0965
   63MOL   C33233936   6.280   7.693   3.824  0.2888 -0.5182  0.3490
   63MOL   O33333937   6.240   7.656   3.716  0.1715 -0.4627  0.4208
   63MOL   C33433938   6.377   7.609   3.905  0.0347 -0.0091  0.3613
   63MOL   C33533939   6.501   7.700   3.939 -0.1973 -0.0985 -0.3553
   63MOL   C33633940   6.425   7.479   3.833  0.6316 -1.0755 -0.3604
   63MOL   H33733941   6.059   0.480   3.887  0.7476 -1.0551 -0.2924
   63MOL   H33833942   6.187   0.543   3.792 -3.6322 -0.5392 -0.6214
   63MOL   H33933943   6.138   0.631   3.936  1.4597  0.1938  0.7336
   63MOL   H34033944   6.212   0.418   4.064 -1.7181 -0.1523 -0.3182
   63MOL   H34133945   6.348   0.496   3.982  0.5737 -0.7407 -0.5925
   63MOL   H34233946   6.348   0.252   3.956 -0.8588 -1.6157 -0.9681
   63MOL   H34333947   6.307   0.302   3.797  0.0712 -0.4908 -0.3395
   63MOL   H34433948   6.070   0.272   3.854  0.1991  2.9702  3.7493
   63MOL   H34533949   6.099   0.182   3.995 -0.0008 -1.1845 -0.2554
   63MOL   H34633950   6.201   0.118   3.721  0.3065  0.5282  1.4292
   63MOL   H34733951   6.061   0.049   3.805 -0.5510  1.4452  0.9275
   63MOL   H34833952   6.556   7.645   4.015 -0.4703 -1.1228 -0.8886
   63MOL   H34933953   6.467   7.792   3.988 -1.1605 -0.0936 -1.0076
   63MOL   H35033954   6.562   7.718   3.850  0.6071  0.8975  0.3868
   63MOL   H35133955   6.341   7.436   3.777  1.0838 -1.5391 -0.6842
   63MOL   H35233956   6.443   7.415   3.919  1.1289  1.3684  1.3749
   63MOL   C35333957   6.961   7.248   4.436 -0.0748  0.4666  0.2807
   63MOL   C35433958   6.875   7.231   4.314 -0.2283  0.5727  0.0776
   63MOL   C35533959   6.909   7.335   4.195 -0.0970  0.6627  0.4919
   63MOL   C35633960   6.794   7.331   4.088 -0.0751  0.0926 -0.0573
   63MOL   C35733961   6.817   7.430   3.971  1.0676 -0.5475  0.2094
   63MOL   O35833962   6.694   7.426   3.898 -0.1796  0.5952 -0.2978
   63MOL   C35933963   6.680   7.497   3.783 -0.3409 -0.1034 -0.1428
   63MOL   O36033964   6.774   7.570   3.737 -0.6098  0.2792 -0.0332
   63MOL   C36133965   6.541   7.466   3.723 -0.1397 -0.2289  0.4442
   63MOL   C36233966   6.515   7.543   3.587  0.1608  0.3905 -0.1663
   63MOL   C36333967   6.526   7.309   3.685 -0.6656 -0.1591  0.5832
   63MOL   H36433968   7.057   7.208   4.404 -1.0380 -0.7937 -1.1515
   63MOL   H36533969   6.921   7.199   4.525 -0.3281 -0.4756 -0.3379
   63MOL   H36633970   6.972   7.352   4.465  0.7585  0.2604  0.7077
   63MOL   H36733971   6.879   7.130   4.274  1.1553  1.2075 -1.4156
   63MOL   H36833972   6.771   7.245   4.341 -0.5149  0.3447 -0.8915
   63MOL   H36933973   6.989   7.284   4.143 -2.2363 -2.1951 -0.1353
   63MOL   H37033974   6.944   7.433   4.231 -1.6462  1.4347 -0.0533
   63MOL   H37133975   6.702   7.345   4.145 -1.1043 -0.0863 -1.6618
   63MOL   H37233976   6.771   7.230   4.057 -0.7951  0.1558  0.2588
   63MOL   H37333977   6.844   7.526   4.015 -0.4396 -0.3658  0.7815
   63MOL   H37433978   6.893   7.382   3.910 -0.6858 -2.7117 -0.3320
   63MOL   H37533979   6.478   7.643   3.606 -0.6824  0.4521 -2.0749
   63MOL   H37633980   6.609   7.547   3.532  0.8611 -2.7233  0.6690
   63MOL   H37733981   6.444   7.483   3.530  0.6304 -1.4565  1.1327
   63MOL   H37833982   6.515   7.259   3.781 -1.1371  1.1789  1.2515
   63MOL   H37933983   6.430   7.298   3.635 -0.0515  1.0766 -0.9288
   63MOL   C38033984   6.091   7.489   3.432  0.4515 -0.3282 -0.3874
   63MOL   C38133985   6.156   7.360   3.380  0.0103 -0.2289 -0.0591
   63MOL   C38233986   6.247   7.391   3.252  0.5141  0.0665  0.8251
   63MOL   C38333987   6.338   7.270   3.208 -0.5289  0.4506 -0.2246
   63MOL   C38433988   6.482   7.299   3.253 -0.7980 -0.6680  0.2498
   63MOL   O38533989   6.496   7.281   3.396  0.1423  0.5822  0.0604
   63MOL   C38633990   6.620   7.276   3.451 -0.2290  0.1667  0.2307
   63MOL   O38733991   6.720   7.318   3.387 -0.2769  0.7294 -0.7374
   63MOL   C38833992   6.628   7.226   3.597  0.1531  0.0054 -0.2462
   63MOL   C38933993   6.776   7.227   3.648  0.4800  0.0997  0.6301
   63MOL   C39033994   6.557   7.077   3.604  0.1146 -0.5186 -0.1345
   63MOL   H39133995   6.048   7.472   3.531  1.1076  1.1659  0.1669
   63MOL   H39233996   6.165   7.564   3.458  0.0119  0.2475 -0.8063
   63MOL   H39333997   6.016   7.533   3.368 -0.4802 -1.8199 -0.3538
   63MOL   H39433998   6.077   7.287   3.361  1.9959 -2.2315 -0.9817
   63MOL   H39533999   6.231   7.320   3.448 -0.4196 -1.6849 -0.4133
   63MOL   H39634000   6.178   7.402   3.168  0.0323 -1.3102  1.0185
   63MOL   H39734001   6.301   7.485   3.253 -1.0367  1.0005 -0.2111
   63MOL   H39834002   6.314   7.168   3.238  2.0382 -0.1378  0.0059
   63MOL   H39934003   6.342   7.272   3.099  0.4402  1.9698 -0.1784
   63MOL   H40034004   6.516   7.400   3.231  0.1580 -1.1309 -0.4145
   63MOL   H40134005   6.548   7.238   3.191 -1.4818 -1.5534  0.3752
   63MOL   H40234006   6.839   7.170   3.581 -0.1205 -0.5094  0.5773
   63MOL   H40334007   6.790   7.190   3.750 -0.6276  2.3243  1.6542
   63MOL   H40434008   6.816   7.328   3.651 -0.5129  0.4801  1.8266
   63MOL   H40534009   6.457   7.102   3.569  1.0924 -0.5489 -3.0422
   63MOL   H40634010   6.547   7.065   3.712  1.9832 -1.6691 -0.0736
   63MOL   C40734011   7.381   6.896   3.599  0.2345  0.1773 -0.0842
   63MOL   C40834012   7.289   7.005   3.540  0.1549 -0.2132  0.5575
   63MOL   C40934013   7.153   7.013   3.607  0.6469  0.5816 -0.2495
   63MOL   C41034014   7.077   6.877   3.605 -0.2965  0.3051 -0.5919
   63MOL   C41134015   6.945   6.880   3.675  0.6200 -0.2363 -0.6382
   63MOL   O41234016   6.837   6.911   3.594 -0.2758 -0.2020  0.4355
   63MOL   C41334017   6.715   6.888   3.628  0.2417 -0.3374  0.3133
   63MOL   O41434018   6.682   6.830   3.733  0.2677 -0.0617  0.1993
   63MOL   C41534019   6.613   6.952   3.531  0.6691  0.5759 -0.4391
   63MOL   C41634020   6.494   6.853   3.509  0.6494 -0.1615  1.1581
   63MOL   C41734021   6.669   6.970   3.378 -0.2500  0.2922  0.2553
   63MOL   H41834022   7.400   6.932   3.700  0.3000 -1.4336  0.4901
   63MOL   H41934023   7.340   6.795   3.597  0.8605 -0.0791 -0.0896
   63MOL   H42034024   7.478   6.897   3.549 -0.6619 -1.4237 -1.9549
   63MOL   H42134025   7.267   6.978   3.437  4.0493  1.6676 -0.8553
   63MOL   H42234026   7.341   7.101   3.537 -1.3902  0.6015 -0.6170
   63MOL   H42334027   7.160   7.041   3.712 -0.7470  2.5953 -0.6584
   63MOL   H42434028   7.096   7.094   3.561  2.6018  1.8268 -0.5749
   63MOL   H42534029   7.132   6.798   3.655 -1.3196  0.6534  1.1157
   63MOL   H42634030   7.063   6.849   3.500 -0.8748  0.2484 -0.5037
   63MOL   H42734031   6.929   6.790   3.735 -0.6481  0.4110  0.0142
   63MOL   H42834032   6.940   6.957   3.751 -0.7226 -1.9160  1.0258
   63MOL   H42934033   6.423   6.896   3.438  0.3324  0.2512  1.7210
   63MOL   H43034034   6.433   6.837   3.597 -1.3652  0.0415 -0.1664
   63MOL   H43134035   6.518   6.750   3.482  0.4760 -0.1304  0.8841
   63MOL   H43234036   6.754   7.038   3.381 -0.5187  0.7447 -1.7774
   63MOL   H43334037   6.595   7.032   3.327  0.9662  1.2122 -0.4064
   63MOL   C43434038   6.684   6.847   2.663  0.0376 -0.3329 -0.4569
   63MOL   C43534039   6.600   6.753   2.756 -0.1291  0.0584  0.0765
   63MOL   C43634040   6.490   6.825   2.842  0.1260 -0.3476 -0.0045
   63MOL   C43734041   6.452   6.732   2.961  0.1410  0.1520  0.4246
   63MOL   C43834042   6.391   6.811   3.078 -0.0948 -0.1937  0.4301
   63MOL   O43934043   6.508   6.866   3.144 -0.2985  0.1446 -0.2931
   63MOL   C44034044   6.582   6.786   3.223  0.0286  0.7290 -0.6598
   63MOL   O44134045   6.560   6.669   3.252 -0.1064  0.5731 -0.2758
   63MOL   C44234046   6.708   6.865   3.275 -0.3038  0.0309 -0.2711
   63MOL   C44334047   6.803   6.753   3.331 -0.7446  0.4868  0.4906
   63MOL   C44434048   6.769   6.939   3.149 -0.7716 -0.2409 -0.0492
   63MOL   H44534049   6.769   6.789   2.627 -0.9788 -1.3925 -1.1672
   63MOL   H44634050   6.615   6.885   2.588 -0.4091  1.0194  0.6176
   63MOL   H44734051   6.722   6.928   2.725 -2.9662 -0.2943  1.4866
   63MOL   H44834052   6.555   6.663   2.716  0.4637 -0.2502  0.0983
   63MOL   H44934053   6.674   6.719   2.829 -0.5409 -0.1213  0.4159
   63MOL   H45034054   6.528   6.921   2.876 -1.1620  0.7293 -1.5030
   63MOL   H45134055   6.400   6.849   2.785  0.7684 -0.0720 -0.9262
   63MOL   H45234056   6.532   6.665   2.994  0.2636 -0.8094 -1.7262
   63MOL   H45334057   6.366   6.676   2.924 -0.6054  2.3572 -1.3014
   63MOL   H45434058   6.332   6.752   3.149  2.6423 -1.3350  1.8238
   63MOL   H45534059   6.334   6.888   3.028  1.1084  1.0055  0.8831
   63MOL   H45634060   6.895   6.798   3.369 -0.2245  0.4269 -0.6905
   63MOL   H45734061   6.750   6.685   3.398 -0.1710  0.2116  0.6648
   63MOL   H45834062   6.834   6.697   3.243  0.0510 -0.5852  1.4350
   63MOL   H45934063   6.699   7.018   3.121 -1.6427 -0.7920  0.5298
   63MOL   H46034064   6.758   6.873   3.063  0.3995  0.3080 -0.6360
   63MOL   C46134065   7.087   6.259   2.727 -0.5690  0.3929  1.0253
   63MOL   C46234066   6.997   6.386   2.737 -0.2380  0.3038  0.0051
   63MOL   C46334067   7.072   6.489   2.817 -0.7608 -0.0094  0.2208
   63MOL   C46434068   7.001   6.624   2.851 -0.1457 -0.1595 -0.5691
   63MOL   C46534069   7.068   6.703   2.960  0.3996 -0.0049  0.0735
   63MOL   O46634070   6.987   6.806   3.002  0.5351 -0.1635  0.0470
   63MOL   C46734071   7.027   6.893   3.099  0.5295  0.4354  0.2432
   63MOL   O46834072   7.146   6.887   3.139 -0.0040 -0.3978 -0.1160
   63MOL   C46934073   6.921   7.002   3.139 -0.4422 -0.1740 -0.4180
   63MOL   C47034074   6.969   7.056   3.278  0.0782  0.0532  0.3344
   63MOL   C47134075   6.915   7.121   3.034 -0.1924 -0.1723  0.0398
   63MOL   H47234076   7.166   6.273   2.653 -2.7294 -0.5795 -1.5568
   63MOL   H47334077   7.036   6.166   2.701  1.1234  0.3398 -2.4337
   63MOL   H47434078   7.132   6.243   2.824  1.9436 -0.6821 -0.2775
   63MOL   H47534079   6.901   6.362   2.784 -0.0077  0.6551  0.6505
   63MOL   H47634080   6.972   6.420   2.636 -0.6825  0.1782  0.0716
   63MOL   H47734081   7.171   6.500   2.772 -2.0847 -0.0236 -2.7981
   63MOL   H47834082   7.097   6.438   2.910  0.4322 -1.0662 -0.6530
   63MOL   H47934083   6.899   6.605   2.883  0.4397 -0.1549  1.3150
   63MOL   H48034084   6.991   6.683   2.759  1.0607  0.6104 -0.2171
   63MOL   H48134085   7.083   6.634   3.044  0.4422 -1.2431 -0.9370
   63MOL   H48234086   7.169   6.734   2.933  1.0807 -0.1090  2.3492
   63MOL   H48334087   6.915   7.150   3.288 -2.3235 -0.7998 -3.8078
   63MOL   H48434088   7.076   7.078   3.274  0.2736 -1.1020 -0.7691
   63MOL   H48534089   6.951   6.994   3.366  1.0412  0.5225  0.8708
   63MOL   H48634090   6.851   7.196   3.081 -1.0693 -2.1287  2.0675
   63MOL   H48734091   6.856   7.091   2.947  0.6788 -2.3417  0.1815
   63MOL   C48834092   7.174   7.361   2.357 -0.0859  0.8215  0.2058
   63MOL   C48934093   7.091   7.242   2.397 -0.3043 -0.2675 -0.1427
   63MOL   C49034094   7.138   7.185   2.534 -0.1060 -0.2091  0.0122
   63MOL   C49134095   7.094   7.036   2.550 -0.1387  0.1114  0.6052
   63MOL   C49234096   7.124   6.992   2.690  0.5056  0.1307 -0.3370
   63MOL   O49334097   7.062   7.066   2.793 -0.2208 -0.1028 -0.2907
   63MOL   C49434098   7.131   7.129   2.895  0.2569  0.3515 -0.6112
   63MOL   O49534099   7.251   7.133   2.901  0.0056  0.1919  0.5238
   63MOL   C49634100   7.035   7.208   2.987 -0.0879  0.5831 -0.2482
   63MOL   C49734101   7.118   7.266   3.105  0.6145 -0.4676 -0.0568
   63MOL   C49834102   6.988   7.330   2.900  0.0449  0.5039  0.1278
   63MOL   H49934103   7.270   7.319   2.327 -0.3617  1.2040 -1.2676
   63MOL   H50034104   7.138   7.411   2.266 -0.5514  1.5280  0.7728
   63MOL   H50134105   7.185   7.448   2.422 -0.8381 -0.1785  1.6938
   63MOL   H50234106   7.091   7.167   2.319  2.4954  0.6134 -1.0454
   63MOL   H50334107   6.986   7.267   2.417 -0.0868  2.4350 -2.1540
   63MOL   H50434108   7.246   7.187   2.544 -0.1660  1.7165  0.5743
   63MOL   H50534109   7.083   7.244   2.608  0.7009 -2.4951  2.4914
   63MOL   H50634110   7.154   6.968   2.489  0.5284  0.3236  1.0210
   63MOL   H50734111   6.990   7.014   2.526 -0.1531 -0.0390  0.7944
   63MOL   H50834112   7.094   6.889   2.709 -1.6519  1.5155  4.6875
   63MOL   H50934113   7.233   6.988   2.695  0.4165 -0.2685  1.7378
   63MOL   H51034114   7.194   7.192   3.130 -0.8101 -3.0209 -2.9614
   63MOL   H51134115   7.061   7.279   3.197 -0.8180  0.9216 -1.1124
   63MOL   H51234116   7.171   7.357   3.077  3.6410 -1.1593  3.0312
   63MOL   H51334117   6.970   7.291   2.800 -0.4867  1.1172 -0.0219
   63MOL   H51434118   7.074   7.389   2.869  0.0888  0.4812  0.2059
   63MOL   C51534119   6.218   7.044   2.572  0.3485 -0.2753 -0.3023
   63MOL   C51634120   6.351   7.111   2.598 -0.8497  0.0631  0.2963
   63MOL   C51734121   6.351   7.209   2.717 -0.3881 -0.0818 -0.0658
   63MOL   C51834122   6.482   7.299   2.728 -0.6400  0.9221  0.7436
   63MOL   C51934123   6.602   7.224   2.779 -0.3395 -0.0584  0.0979
   63MOL   O52034124   6.711   7.307   2.806  0.5105 -0.2347 -0.1479
   63MOL   C52134125   6.726   7.360   2.925  0.6503  0.4997  0.6142
   63MOL   O52234126   6.656   7.350   3.024  0.8203  0.8297 -0.0183
   63MOL   C52334127   6.870   7.429   2.934 -0.2940  0.2391 -0.3939
   63MOL   C52434128   6.880   7.534   2.817 -0.6015  0.9037  0.0805
   63MOL   C52534129   6.892   7.511   3.068  0.3066  0.2890 -0.0397
   63MOL   H52634130   6.224   6.984   2.481 -0.6729 -1.0067  0.1000
   63MOL   H52734131   6.198   6.970   2.649  1.6518 -2.5167 -2.0325
   63MOL   H52834132   6.143   7.120   2.555 -0.1046 -0.5203  0.5910
   63MOL   H52934133   6.427   7.036   2.616 -0.9128  0.0138  0.3573
   63MOL   H53034134   6.387   7.167   2.512  0.4501 -1.9717 -0.4827
   63MOL   H53134135   6.266   7.275   2.702 -1.2653 -0.9507  0.9468
   63MOL   H53234136   6.334   7.155   2.810  1.1728 -1.3323 -0.4813
   63MOL   H53334137   6.456   7.389   2.785 -2.0729  0.7737  0.3525
   63MOL   H53434138   6.511   7.334   2.629  4.0426  1.3436  2.1564
   63MOL   H53534139   6.559   7.179   2.868 -0.5253 -0.3398 -0.1340
   63MOL   H53634140   6.625   7.138   2.717  1.8791  0.8382 -0.3746
   63MOL   H53734141   6.872   7.484   2.720  0.9066 -1.6197  1.2031
   63MOL   H53834142   6.974   7.589   2.830 -1.5642  3.0012 -1.4883
   63MOL   H53934143   6.804   7.613   2.823 -1.0163  0.6960 -2.0646
   63MOL   H54034144   6.909   7.447   3.154  0.4996  0.7912  0.2977
   63MOL   H54134145   6.807   7.578   3.079 -0.1932 -0.3025 -0.2954
   63MOL   H54234146   6.982   7.573   3.061  0.9744 -0.6772 -0.0496
   64MOL     C134147   6.945   2.710   5.823  0.8403  0.3995 -0.3351
   64MOL     C234148   7.057   2.604   5.854 -0.1045  0.3598  0.3635
   64MOL     C334149   7.197   2.662   5.832 -0.5637 -0.1995 -0.4004
   64MOL     C434150   7.241   2.756   5.948  0.2373 -0.5356 -0.0232
   64MOL     C534151   7.272   2.681   6.075  0.2402 -0.0778 -0.0333
   64MOL     O634152   7.311   2.782   6.170  0.0998 -0.8793 -0.0468
   64MOL     C734153   7.239   2.801   6.287 -0.3946 -0.1502  0.2896
   64MOL     O834154   7.147   2.728   6.320  0.3950  0.2706 -0.3519
   64MOL     C934155   7.245   2.942   6.351  0.0627  0.1275  0.1883
   64MOL    C1034156   7.171   3.048   6.270 -0.7113 -0.0956 -0.6590
   64MOL    C1134157   7.389   2.980   6.389 -0.3969  0.2233 -0.7496
   64MOL    H1234158   6.850   2.657   5.833  1.2694 -0.4527 -0.6872
   64MOL    H1334159   6.946   2.742   5.719 -0.3360 -0.3277 -0.5843
   64MOL    H1434160   6.951   2.791   5.896 -1.0754  0.3496 -0.1083
   64MOL    H1534161   7.041   2.573   5.957 -1.1245 -0.7082 -0.1087
   64MOL    H1634162   7.044   2.518   5.789  0.5524 -0.6750  1.5843
   64MOL    H1734163   7.271   2.584   5.820 -0.9749 -1.1338  2.6801
   64MOL    H1834164   7.202   2.720   5.740 -1.5252  0.7251  0.1085
   64MOL    H1934165   7.165   2.829   5.977 -2.3936 -2.9059 -0.6680
   64MOL    H2034166   7.329   2.811   5.917 -0.7139  0.7272 -0.5348
   64MOL    H2134167   7.188   2.616   6.099  0.3159 -0.3340 -0.4435
   64MOL    H2234168   7.363   2.623   6.057 -0.1947 -0.8588  0.2499
   64MOL    H2334169   7.228   3.098   6.192 -1.9620  1.5649 -0.5413
   64MOL    H2434170   7.127   3.119   6.339  2.0437 -0.2642  1.3401
   64MOL    H2534171   7.086   3.006   6.215 -0.2777 -1.1314 -0.5610
   64MOL    H2634172   7.422   3.080   6.363 -2.4838  1.6727  2.0153
   64MOL    H2734173   7.454   2.923   6.322 -0.8308 -1.2693  0.0696
   64MOL    H2834174   7.190   2.942   6.445  1.5614 -1.0722  1.0781
   64MOL    C2934175   0.045   2.709   7.018 -0.2753  0.2828 -0.0262
   64MOL    C3034176   0.142   2.822   6.983 -0.4081 -0.1346  0.2196
   64MOL    C3134177   0.112   2.869   6.839  0.0753  0.1325 -0.0222
   64MOL    C3234178   0.010   2.982   6.829 -0.0405 -0.0961  0.1342
   64MOL    C3334179   7.784   3.017   6.685 -0.6929 -0.0878 -0.4219
   64MOL    O3434180   7.657   2.961   6.664  0.0262  0.7272  0.3519
   64MOL    C3534181   7.596   2.988   6.544 -0.5096  0.1326  0.1778
   64MOL    O3634182   7.648   3.031   6.445 -0.2006  0.4954 -0.1579
   64MOL    C3734183   7.447   2.946   6.537  0.8781  0.3589 -0.5353
   64MOL    C3834184   7.442   2.787   6.547  0.0596  0.0520 -0.1513
   64MOL    C3934185   7.367   3.003   6.654  0.2145 -0.3354  0.3548
   64MOL    H4034186   0.054   2.665   7.117  1.2245 -1.4523 -0.9155
   64MOL    H4134187   7.754   2.739   7.008 -0.4274 -0.1590  0.2450
   64MOL    H4234188   0.063   2.626   6.950 -1.2719  1.3602 -1.6531
   64MOL    H4334189   0.247   2.795   6.991 -0.5475 -2.4407 -4.0426
   64MOL    H4434190   0.133   2.914   7.042 -2.6286 -0.6887  0.7934
   64MOL    H4534191   0.074   2.784   6.782  1.6057 -0.7772  0.2933
   64MOL    H4634192   0.198   2.913   6.789 -1.0267  2.3539 -0.0149
   64MOL    H4734193   7.735   2.955   6.885  0.5180 -0.9909  0.6166
   64MOL    H4834194   0.054   3.066   6.883 -2.5765  1.5236 -0.2495
   64MOL    H4934195   0.039   2.976   6.611  2.2109  1.1214  1.4700
   64MOL    H5034196   7.779   3.125   6.673 -1.8401 -0.2669 -1.6080
   64MOL    H5134197   7.345   2.748   6.577 -1.0167  1.9025 -1.0812
   64MOL    H5234198   7.516   2.761   6.622 -0.2764  3.0780  1.3304
   64MOL    H5334199   7.462   2.747   6.448 -1.5536  3.2571 -1.8397
   64MOL    H5434200   7.399   2.966   6.751  1.8986  0.8494  0.2712
   64MOL    H5534201   7.270   2.953   6.656 -1.0790  2.0974  1.5623
   64MOL    C5634202   0.065   3.568   7.080 -0.3843  0.6779 -0.7199
   64MOL    C5734203   7.795   3.469   7.008 -0.3181 -0.6288  0.9059
   64MOL    C5834204   7.654   3.465   7.076  0.1723 -0.1775 -0.4227
   64MOL    C5934205   7.548   3.399   6.994 -0.0566  0.3845 -0.2896
   64MOL    C6034206   7.577   3.253   6.952 -0.2722 -0.2633 -0.1839
   64MOL    O6134207   7.473   3.205   6.876  0.8537 -0.0029 -0.2481
   64MOL    C6234208   7.466   3.223   6.743 -0.0553 -0.1778  0.3616
   64MOL    O6334209   7.558   3.276   6.681  0.6590 -0.4197 -0.4379
   64MOL    C6434210   7.348   3.161   6.678 -0.0841 -0.1896 -0.3173
   64MOL    C6534211   7.235   3.172   6.777 -0.1377  0.0317 -0.1471
   64MOL    C6634212   7.308   3.251   6.549 -0.4194 -0.0959 -0.1759
   64MOL    H6734213   0.170   3.564   7.051 -0.4753  3.1470 -1.4681
   64MOL    H6834214   0.057   3.552   7.188 -1.8898 -0.3740 -0.9681
   64MOL    H6934215   0.038   3.672   7.065  0.1515  1.0594  0.8574
   64MOL    H7034216   7.793   3.498   6.903 -1.9344 -0.0955  1.0773
   64MOL    H7134217   0.020   3.368   7.024  1.5528 -0.0710  0.0102
   64MOL    H7234218   7.668   3.419   7.174 -0.7360  1.2836  0.4060
   64MOL    H7334219   7.629   3.571   7.075  1.5982  0.1919  0.5758
   64MOL    H7434220   7.533   3.453   6.901  1.0217 -0.4745 -0.9724
   64MOL    H7534221   7.449   3.400   7.039 -0.3367  2.8161 -0.8960
   64MOL    H7634222   7.672   3.246   6.899 -0.3019 -0.2464 -0.2391
   64MOL    H7734223   7.568   3.197   7.045 -0.8151  1.7929  1.0410
   64MOL    H7834224   7.223   3.275   6.812 -1.7406 -0.3322  0.4697
   64MOL    H7934225   7.244   3.104   6.862  0.8141 -0.9976 -1.0619
   64MOL    H8034226   7.144   3.150   6.721 -0.9725  2.6348  0.0817
   64MOL    H8134227   7.225   3.198   6.503 -0.7906  0.7015 -0.4373
   64MOL    H8234228   7.389   3.244   6.476 -1.2650  2.9854 -1.5138
   64MOL    C8334229   6.916   2.812   6.614 -0.5949 -0.2717 -0.1563
   64MOL    C8434230   6.870   2.942   6.685 -0.0515 -0.7077  0.7098
   64MOL    C8534231   6.896   3.069   6.596 -0.1710  0.2855  0.4644
   64MOL    C8634232   6.874   3.204   6.673  0.0079 -0.1989 -0.6349
   64MOL    C8734233   6.888   3.330   6.589  0.4640  0.1690 -0.2020
   64MOL    O8834234   7.024   3.342   6.544  0.5544 -0.1242  0.0144
   64MOL    C8934235   7.112   3.410   6.610  0.4625 -0.0702  0.0676
   64MOL    O9034236   7.087   3.483   6.706  0.3845  0.0251  0.0789
   64MOL    C9134237   7.253   3.402   6.547 -0.1826  0.3296 -0.5503
   64MOL    C9234238   7.350   3.498   6.621 -0.1849 -0.4551 -0.1811
   64MOL    C9334239   7.236   3.433   6.389 -0.0247 -0.1396 -0.2065
   64MOL    H9434240   6.886   2.793   6.511 -1.2412  1.3410 -0.2862
   64MOL    H9534241   7.025   2.808   6.621 -0.5846  0.8568  0.4510
   64MOL    H9634242   6.874   2.729   6.671 -0.6119  1.4312  2.4043
   64MOL    H9734243   6.932   2.961   6.772  0.7615 -0.5862  0.1184
   64MOL    H9834244   6.766   2.934   6.714  0.6400  0.7127  3.7510
   64MOL    H9934245   6.830   3.072   6.510  1.0889  2.1739 -0.4748
   64MOL   H10034246   6.997   3.079   6.556 -0.1960 -0.6701  0.1532
   64MOL   H10134247   6.929   3.213   6.768 -2.1796  1.8562  0.5054
   64MOL   H10234248   6.776   3.206   6.720 -0.2214  2.7887 -1.0993
   64MOL   H10334249   6.841   3.419   6.633 -4.1406 -1.6178 -1.2232
   64MOL   H10434250   6.823   3.305   6.505 -2.3476  0.7353  1.7154
   64MOL   H10534251   7.434   3.522   6.556 -0.2155  2.2439  0.7074
   64MOL   H10634252   7.391   3.463   6.715  1.1584  1.1602 -0.1488
   64MOL   H10734253   7.302   3.595   6.630  0.3890 -0.0022 -1.7793
   64MOL   H10834254   7.339   3.444   6.356  0.3271 -0.9209  0.6023
   64MOL   H10934255   7.207   3.344   6.334 -0.3787  1.1092 -2.0985
   64MOL   C11034256   6.390   3.490   5.938  0.2272  0.4624  0.0152
   64MOL   C11134257   6.548   3.517   5.939  0.5011  0.3532 -0.4055
   64MOL   C11234258   6.619   3.446   6.060 -0.1842  0.2506 -0.5073
   64MOL   C11334259   6.775   3.475   6.081 -0.0417  0.0191 -0.0210
   64MOL   C11434260   6.834   3.452   6.219  0.3563  0.4454 -0.3752
   64MOL   O11534261   6.971   3.474   6.231  0.2392 -0.5889  0.7390
   64MOL   C11634262   7.018   3.549   6.329  1.1995  0.9351 -0.1474
   64MOL   O11734263   6.946   3.599   6.413 -0.0241 -0.3174 -0.7394
   64MOL   C11834264   7.168   3.567   6.328  0.0666  0.1821  0.3649
   64MOL   C11934265   7.209   3.584   6.181 -0.4772  0.0024  0.2722
   64MOL   C12034266   7.207   3.701   6.411 -0.5463  1.0317 -0.8615
   64MOL   H12134267   6.324   3.548   5.874 -0.1590  0.6788  0.6009
   64MOL   H12234268   6.370   3.384   5.927  0.5845  0.3374  0.5212
   64MOL   H12334269   6.352   3.509   6.039 -2.9312 -1.3611 -0.7577
   64MOL   H12434270   6.606   3.487   5.852 -1.1883  0.0610 -1.4561
   64MOL   H12534271   6.575   3.622   5.949  2.3415 -0.3723  3.7372
   64MOL   H12634272   6.569   3.466   6.155  0.5504  0.6809 -0.2031
   64MOL   H12734273   6.613   3.337   6.055 -0.8161  0.2858 -0.5274
   64MOL   H12834274   6.790   3.582   6.061 -0.1060 -0.0174 -0.2671
   64MOL   H12934275   6.831   3.428   6.000  2.6034  1.4170  0.9097
   64MOL   H13034276   6.769   3.505   6.288  0.1409  1.0568 -1.0458
   64MOL   H13134277   6.826   3.346   6.241  0.3925  0.2614 -1.2382
   64MOL   H13234278   7.153   3.665   6.133 -1.0539 -0.5756 -0.0492
   64MOL   H13334279   7.314   3.610   6.183 -0.3828 -0.3765  0.2515
   64MOL   H13434280   7.193   3.496   6.118 -1.6280  0.5189 -0.1804
   64MOL   H13534281   7.157   3.689   6.508 -1.0151 -3.4520 -1.5223
   64MOL   H13634282   7.314   3.692   6.428 -0.9086 -0.7695  0.6535
   64MOL   C13734283   7.699   3.472   6.401 -0.4218  0.1200  0.0007
   64MOL   C13834284   7.745   3.607   6.447  1.0009  0.2559 -0.9385
   64MOL   C13934285   7.641   3.723   6.421 -0.7643  0.2397  0.0972
   64MOL   C14034286   7.602   3.753   6.278  0.3796  0.6881  0.1986
   64MOL   C14134287   7.531   3.881   6.251  0.3430 -0.5188 -0.1326
   64MOL   O14234288   7.406   3.888   6.325  0.2554  0.0721  0.4527
   64MOL   C14334289   7.290   3.889   6.263 -0.3058  0.3882 -0.5908
   64MOL   O14434290   7.276   3.915   6.148 -0.4583  0.2801  0.1228
   64MOL   C14534291   7.175   3.849   6.361  0.6342 -0.5101 -0.1560
   64MOL   C14634292   7.036   3.874   6.298 -0.2615  0.1829  0.3824
   64MOL   C14734293   7.184   3.933   6.491 -0.4884 -0.5708  0.2837
   64MOL   H14834294   7.604   3.448   6.450 -1.2370  1.4429 -0.8862
   64MOL   H14934295   7.767   3.390   6.424 -0.6340 -0.4414 -1.3582
   64MOL   H15034296   7.670   3.480   6.296  3.5762 -0.6767 -1.2444
   64MOL   H15134297   0.029   3.628   6.403  0.5672  2.2209 -1.0262
   64MOL   H15234298   7.758   3.609   6.555 -0.6816  1.5430 -0.7391
   64MOL   H15334299   7.551   3.710   6.481 -1.3163 -0.9447 -0.9582
   64MOL   H15434300   7.685   3.810   6.469 -2.2433  0.4708  1.0502
   64MOL   H15534301   7.683   3.737   6.207  0.5046 -0.7654  0.6574
   64MOL   H15634302   7.534   3.671   6.257  0.7448  0.5186 -0.3170
   64MOL   H15734303   7.513   3.881   6.143 -1.2052  0.9662  0.0970
   64MOL   H15834304   7.594   3.967   6.270  1.4730 -0.9866 -1.7099
   64MOL   H15934305   7.028   3.810   6.210  1.7355  1.3069 -0.6286
   64MOL   H16034306   7.019   3.970   6.250  1.6152  0.0590 -0.5444
   64MOL   H16134307   6.950   3.842   6.357 -0.5849 -2.0050 -1.2182
   64MOL   H16234308   7.120   3.886   6.566  0.4806 -1.9612  0.2741
   64MOL   H16334309   7.283   3.909   6.529 -0.1167  0.2558 -0.1726
   64MOL   C16434310   6.940   4.797   6.779  0.1596  0.3412  0.5941
   64MOL   C16534311   6.923   4.730   6.644  0.7916  0.1225 -0.5380
   64MOL   C16634312   6.922   4.579   6.658 -0.1171 -0.0228 -0.4809
   64MOL   C16734313   6.906   4.509   6.515 -0.2694  0.0292 -0.3374
   64MOL   C16834314   6.894   4.356   6.525 -0.6369  0.5540  0.2975
   64MOL   O16934315   7.023   4.282   6.509  0.0242 -0.2750  0.3410
   64MOL   C17034316   7.032   4.142   6.518 -0.1448 -0.0802 -0.1956
   64MOL   O17134317   6.938   4.067   6.536 -0.2051  0.3474 -0.0757
   64MOL   C17234318   7.179   4.093   6.501  0.3080  0.2089  0.4815
   64MOL   C17334319   7.242   4.162   6.378  0.4083 -0.6342  0.3017
   64MOL   C17434320   7.266   4.159   6.623 -0.3736 -0.2998  0.6158
   64MOL   H17534321   6.926   4.905   6.769 -0.7443  0.2933  1.2074
   64MOL   H17634322   7.040   4.774   6.814  1.2002  1.5650 -1.4985
   64MOL   H17734323   6.858   4.766   6.844  0.8345 -1.3147  0.6864
   64MOL   H17834324   7.010   4.751   6.582  1.5183 -0.8754  0.1115
   64MOL   H17934325   6.832   4.758   6.592  0.2782 -1.6323 -0.6343
   64MOL   H18034326   7.019   4.553   6.699  0.2719  3.1244  0.7493
   64MOL   H18134327   6.851   4.549   6.735  0.8478  1.7979  1.1579
   64MOL   H18234328   6.993   4.528   6.453  0.3739  0.3910  0.6618
   64MOL   H18334329   6.829   4.557   6.454  0.8681  0.2340 -1.6419
   64MOL   H18434330   6.819   4.313   6.458  0.0904 -0.5927  0.2000
   64MOL   H18534331   6.860   4.347   6.629 -2.1698 -1.2868 -0.3277
   64MOL   H18634332   7.349   4.150   6.359  0.7065  2.4918 -0.2625
   64MOL   H18734333   7.248   4.270   6.391 -0.6097 -0.4584 -0.6750
   64MOL   H18834334   7.199   4.146   6.280  0.1231 -1.4144  0.5529
   64MOL   H18934335   7.371   4.173   6.597 -0.5306 -0.3860 -0.0784
   64MOL   H19034336   7.232   4.263   6.622  0.6606  0.0507 -1.0167
   64MOL   C19134337   6.563   3.614   6.804 -0.1328 -0.2676 -0.8268
   64MOL   C19234338   6.709   3.652   6.763 -0.2964  0.5510 -0.4001
   64MOL   C19334339   6.751   3.776   6.836  0.2707 -0.2072  0.0528
   64MOL   C19434340   6.887   3.824   6.797 -0.6467  0.3003 -0.6005
   64MOL   C19534341   6.910   3.972   6.844 -0.3435 -0.1541 -0.5970
   64MOL   O19634342   7.046   3.999   6.827 -0.2381  0.0041 -0.0522
   64MOL   C19734343   7.107   4.116   6.825  0.3433  0.6178  0.3043
   64MOL   O19834344   7.048   4.223   6.843  0.2605  0.1515  0.1122
   64MOL   C19934345   7.258   4.110   6.775 -0.0568  0.0132 -0.4524
   64MOL   C20034346   7.338   4.220   6.845  0.4507  0.0418 -0.4359
   64MOL   C20134347   7.321   3.964   6.793 -0.4416 -0.2681 -1.1134
   64MOL   H20234348   6.570   3.509   6.831 -1.8878 -0.3003 -0.4517
   64MOL   H20334349   6.534   3.666   6.895  0.8245  0.4476 -0.9152
   64MOL   H20434350   6.492   3.620   6.721  0.5861 -3.1475 -1.6968
   64MOL   H20534351   6.725   3.652   6.655 -2.9747  1.2593 -0.8291
   64MOL   H20634352   6.784   3.579   6.792 -1.0394  0.6206  1.7991
   64MOL   H20734353   6.734   3.762   6.942 -0.3392  1.8708  0.2548
   64MOL   H20834354   6.678   3.853   6.810  0.1093 -1.4049 -3.3451
   64MOL   H20934355   6.966   3.764   6.843 -1.4310  0.7700  1.3798
   64MOL   H21034356   6.906   3.818   6.690  1.0348  2.4552 -0.4676
   64MOL   H21134357   6.844   4.046   6.798  0.0624  1.7938  1.8294
   64MOL   H21234358   6.897   3.977   6.953  1.7252  3.6123 -0.4468
   64MOL   H21334359   7.297   4.320   6.831 -0.3329 -0.4231 -1.5628
   64MOL   H21434360   7.439   4.217   6.804  0.6864 -3.3149  0.2402
   64MOL   H21534361   7.351   4.208   6.953 -0.0695 -1.6340 -0.5470
   64MOL   H21634362   7.409   3.960   6.729 -1.4512  1.1945 -2.6288
   64MOL   H21734363   7.256   3.893   6.743  0.6469 -1.5480 -0.7508
   64MOL   C21834364   7.712   4.168   6.466 -0.0335 -0.1350 -0.4450
   64MOL   C21934365   7.765   4.198   6.600  0.3804  0.4334 -0.0195
   64MOL   C22034366   7.719   4.089   6.698  0.2226 -0.4309  0.1132
   64MOL   C22134367   7.753   4.122   6.846 -0.3412 -0.8419  0.4097
   64MOL   C22234368   7.721   4.010   6.944 -0.1168  0.0748 -0.8861
   64MOL   O22334369   7.600   3.946   6.919  0.0198  0.5243  0.1401
   64MOL   C22434370   7.490   3.974   6.980  0.1574  0.4250  0.0003
   64MOL   O22534371   7.489   4.060   7.073 -0.0009 -0.3178  0.0068
   64MOL   C22634372   7.361   3.903   6.933 -0.0359 -0.1866 -0.3469
   64MOL   C22734373   7.396   3.762   6.901 -0.1102 -0.2986 -0.2884
   64MOL   C22834374   7.250   3.913   7.041  0.7581 -0.4547  0.2396
   64MOL   H22934375   7.764   4.083   6.424 -1.1541 -0.3609 -1.4204
   64MOL   H23034376   7.610   4.129   6.468  0.1543 -0.7699 -2.0364
   64MOL   H23134377   7.712   4.251   6.395 -1.1575  0.7750  0.5940
   64MOL   H23234378   7.709   4.285   6.637 -0.9733 -1.0961  1.6279
   64MOL   H23334379   0.060   4.203   6.597  0.4777 -2.1246 -1.2636
   64MOL   H23434380   7.767   3.994   6.674 -1.1980 -2.0434  3.2923
   64MOL   H23534381   7.612   4.080   6.682  0.3306  1.8251 -2.0567
   64MOL   H23634382   0.043   4.148   6.862 -0.9475  1.1943  1.1817
   64MOL   H23734383   7.697   4.214   6.862 -2.4126 -1.7938 -1.1213
   64MOL   H23834384   7.720   4.050   7.046  1.4655 -0.2235 -0.7431
   64MOL   H23934385   7.794   3.930   6.945 -1.5573 -1.3024  2.1304
   64MOL   H24034386   7.470   3.726   6.972 -0.6632 -0.3185  0.2788
   64MOL   H24134387   7.436   3.751   6.800  1.4998  0.6880  0.2207
   64MOL   H24234388   7.305   3.703   6.891 -0.6227  0.4390 -0.0381
   64MOL   H24334389   7.162   3.871   6.993  1.4878 -0.4995 -1.0665
   64MOL   H24434390   7.239   4.015   7.079 -0.8329  0.1904 -1.8561
   64MOL   C24534391   6.679   3.179   7.056  0.3323  0.3415 -0.2435
   64MOL   C24634392   6.722   3.321   7.082  0.7690 -0.0246  0.3021
   64MOL   C24734393   6.869   3.343   7.094  0.2366 -0.5321  0.4546
   64MOL   C24834394   6.907   3.497   7.111  0.4069 -0.3658  0.3050
   64MOL   C24934395   7.060   3.513   7.116 -0.3409  0.3744 -0.0061
   64MOL   O25034396   7.086   3.650   7.135  0.3560 -0.2057 -0.7826
   64MOL   C25134397   7.211   3.691   7.164 -0.0775 -0.8852  0.2975
   64MOL   O25234398   7.308   3.617   7.150 -0.4577 -0.9990 -0.0527
   64MOL   C25334399   7.238   3.844   7.186 -0.1854  0.1270 -0.1292
   64MOL   C25434400   7.107   3.895   7.245 -0.6888  0.1065  0.4533
   64MOL   C25534401   7.362   3.878   7.283  0.1572  0.8676 -0.1008
   64MOL   H25634402   6.739   3.121   7.126  1.4744  0.8804 -0.7654
   64MOL   H25734403   6.578   3.145   7.080  0.4587 -0.0629 -0.2874
   64MOL   H25834404   6.697   3.146   6.953 -0.5116 -1.4785  0.1777
   64MOL   H25934405   6.693   3.391   7.004  0.3118 -0.6355 -0.0867
   64MOL   H26034406   6.674   3.357   7.173  0.4646  0.0696  0.1070
   64MOL   H26134407   6.921   3.309   7.004  1.2012  2.9567 -0.3946
   64MOL   H26234408   6.909   3.289   7.180 -0.9799  0.1632  1.4568
   64MOL   H26334409   6.869   3.565   7.034  1.3963  2.0105  1.8452
   64MOL   H26434410   6.870   3.539   7.205  1.8346  0.3658  0.5606
   64MOL   H26534411   7.105   3.449   7.191 -2.3799 -0.6487  0.3714
   64MOL   H26634412   7.104   3.493   7.019  0.3251  2.1420 -0.0994
   64MOL   H26734413   7.107   3.999   7.280 -2.5413  0.3483 -0.1837
   64MOL   H26834414   7.034   3.904   7.164  0.7136 -2.6430 -1.1752
   64MOL   H26934415   7.061   3.833   7.322 -0.9213 -1.5780 -1.0208
   64MOL   H27034416   7.449   3.842   7.229  0.6997  0.6424  0.9099
   64MOL   H27134417   7.376   3.986   7.289  2.3441  0.9114 -4.0359
   64MOL   C27234418   7.121   3.732   0.324 -0.3086 -0.1096 -0.2605
   64MOL   C27334419   7.020   3.752   0.206  0.2845  0.0245 -0.4358
   64MOL   C27434420   7.093   3.819   0.080 -0.3007  0.2738 -0.2722
   64MOL   C27534421   7.011   3.829   7.767  0.3767 -0.2698  0.0772
   64MOL   C27634422   7.079   3.915   7.657 -0.5143  0.1408  0.1710
   64MOL   O27734423   7.169   3.845   7.569  0.1879 -1.0795  0.5141
   64MOL   C27834424   7.271   3.913   7.520 -0.2468 -0.3809  0.3910
   64MOL   O27934425   7.283   4.034   7.534 -0.8728  0.2188 -0.1310
   64MOL   C28034426   7.370   3.830   7.433  0.1792 -0.6756  0.0989
   64MOL   C28134427   7.344   3.675   7.454  0.0854  0.2392 -0.4400
   64MOL   C28234428   7.510   3.883   7.485  0.4967 -0.2322  0.1755
   64MOL   H28334429   7.171   3.828   0.334 -2.6341  1.0848  0.3720
   64MOL   H28434430   7.066   3.715   0.417 -0.8924 -1.2710 -0.8151
   64MOL   H28534431   7.203   3.662   0.315  0.8046  1.3240 -1.5352
   64MOL   H28634432   6.968   3.657   0.191 -1.8039  0.7933  1.6082
   64MOL   H28734433   6.945   3.818   0.249 -0.5203 -1.8522  1.1256
   64MOL   H28834434   7.117   3.921   0.109  1.2563  0.2107 -1.2739
   64MOL   H28934435   7.180   3.762   0.048 -0.4468  1.9598 -3.8158
   64MOL   H29034436   6.990   3.726   7.738  0.3981 -1.2002  3.2286
   64MOL   H29134437   6.915   3.869   7.799  0.6233  1.0839 -0.8186
   64MOL   H29234438   7.128   3.996   7.711  1.1285  1.0086 -2.4809
   64MOL   H29334439   6.999   3.971   7.607 -1.7568 -0.8975  0.9627
   64MOL   H29434440   7.369   3.651   7.557  2.6567 -0.7524 -1.2457
   64MOL   H29534441   7.247   3.632   7.427  0.6718 -1.2809 -0.1991
   64MOL   H29634442   7.417   3.616   7.398 -0.6780  0.5114 -1.7538
   64MOL   H29734443   7.538   3.977   7.438  0.6102  0.2565  1.2296
   64MOL   H29834444   7.516   3.902   7.592  1.7534 -0.8146  0.2244
   64MOL   C29934445   7.244   3.461   0.054  0.1813 -0.2439  0.6139
   64MOL   C30034446   7.365   3.557   0.018 -0.0685 -0.0230  0.2328
   64MOL   C30134447   7.453   3.589   0.141 -0.7499  0.1900 -1.3046
   64MOL   C30234448   7.578   3.677   0.118  0.0557 -0.1700 -0.2176
   64MOL   C30334449   7.651   3.632   7.805  0.0405 -0.0564  0.8565
   64MOL   O30434450   7.640   3.730   7.701 -0.0627  0.2542  0.4191
   64MOL   C30534451   7.657   3.690   7.573  0.1884  0.4646 -0.0353
   64MOL   O30634452   7.689   3.578   7.548 -0.1570 -0.1854  0.5729
   64MOL   C30734453   7.644   3.805   7.466  0.1566  0.5861  0.2216
   64MOL   C30834454   7.660   3.749   7.323 -0.2480  0.2894 -0.0373
   64MOL   C30934455   7.767   3.906   7.483 -0.0790 -0.7246 -0.1507
   64MOL   H31034456   7.277   3.357   0.043 -2.6161 -1.1217  0.2661
   64MOL   H31134457   7.154   3.465   7.806  1.9819 -1.1277 -2.1827
   64MOL   H31234458   7.216   3.483   0.156  1.5323 -0.0460  0.9497
   64MOL   H31334459   7.332   3.655   7.795 -0.0818 -0.4172 -0.8404
   64MOL   H31434460   7.425   3.519   7.749  0.1951 -1.3000  0.9976
   64MOL   H31534461   7.480   3.492   0.184  1.7257  1.8289  0.9532
   64MOL   H31634462   7.392   3.642   0.214 -1.6433 -1.8604 -0.5104
   64MOL   H31734463   7.632   3.671   0.213  0.6982  0.4218 -0.5425
   64MOL   H31834464   7.549   3.782   0.109 -0.1148 -0.3216 -1.4670
   64MOL   H31934465   7.757   3.639   0.015 -0.3029  0.5376  2.2257
   64MOL   H32034466   7.626   3.532   7.769  2.3573 -0.0953 -0.7082
   64MOL   H32134467   7.672   3.825   7.246 -0.0340  1.6861  1.3577
   64MOL   H32234468   7.756   3.702   7.301  0.5112  1.6212  0.4251
   64MOL   H32334469   7.591   3.668   7.298  0.1907  0.4407 -1.8020
   64MOL   H32434470   7.744   3.978   7.562  1.2432  0.0738 -0.4743
   64MOL   H32534471   7.768   3.973   7.397  1.0487 -1.6696 -0.8886
   64MOL   C32634472   0.142   4.077   0.534 -0.7353 -0.1379  0.2227
   64MOL   C32734473   0.137   4.097   0.386  0.0803 -0.1167  0.0376
   64MOL   C32834474   0.109   3.975   0.306  0.5300  0.4709 -0.2639
   64MOL   C32934475   0.112   4.001   0.157 -0.2348 -0.5202 -0.2566
   64MOL   C33034476   0.102   3.873   0.072  0.6254  0.1970 -0.0455
   64MOL   O33134477   0.070   3.903   7.750  0.2829  0.1523  0.0088
   64MOL   C33234478   0.152   3.846   7.655 -0.3826 -0.6740  0.3636
   64MOL   O33334479   0.259   3.795   7.681 -0.0145 -0.6949  0.4143
   64MOL   C33434480   0.106   3.865   7.510 -0.1111 -0.0826 -0.5340
   64MOL   C33534481   0.153   3.736   7.438  0.2189 -0.3550  0.0451
   64MOL   C33634482   0.206   3.970   7.453 -0.3667 -0.1166  0.2487
   64MOL   H33734483   0.193   3.982   0.555  0.7026  0.4073 -0.6838
   64MOL   H33834484   0.042   4.075   0.575 -0.3890 -1.6042  1.0615
   64MOL   H33934485   0.197   4.153   0.589 -1.7488  1.5346 -1.0249
   64MOL   H34034486   0.231   4.143   0.356 -1.4211  2.1434 -1.3248
   64MOL   H34134487   0.057   4.170   0.378  1.5878  1.3759 -2.0033
   64MOL   H34234488   0.011   3.935   0.333  1.4897  0.2488  3.1779
   64MOL   H34334489   0.179   3.893   0.322 -1.7121 -1.7880 -1.6137
   64MOL   H34434490   0.199   4.058   0.122 -1.5817  1.7693  0.0095
   64MOL   H34534491   0.034   4.071   0.127  0.2892  0.0290 -0.3528
   64MOL   H34634492   0.021   3.812   0.114  1.0644 -0.2632  0.1423
   64MOL   H34734493   0.192   3.814   0.086  0.6902  0.0372 -1.1416
   64MOL   H34834494   0.253   3.703   7.464  0.3460 -1.3684 -1.6643
   64MOL   H34934495   0.143   3.756   7.331  0.1169 -2.1527 -0.2953
   64MOL   H35034496   0.081   3.657   7.459  2.4931 -2.7795 -1.0373
   64MOL   H35134497   0.165   3.981   7.353  1.8315  0.9108 -0.5682
   64MOL   H35234498   0.303   3.920   7.447 -1.9007 -3.1519 -0.1907
   64MOL   C35334499   0.181   4.637   7.389  0.9099 -0.0254  0.0004
   64MOL   C35434500   0.040   4.575   7.397  0.0938 -0.4076 -0.2563
   64MOL   C35534501   0.011   4.478   7.287 -0.4927 -0.5463 -0.3120
   64MOL   C35634502   7.710   4.385   7.314 -0.3868  0.6641  0.0291
   64MOL   C35734503   7.723   4.282   7.430 -0.5496  0.4021 -0.3467
   64MOL   O35834504   0.030   4.212   7.419  0.5144  0.6155 -0.0011
   64MOL   C35934505   0.097   4.193   7.533  0.2687  0.5497 -0.2054
   64MOL   O36034506   0.065   4.240   7.647 -0.6149 -0.7683 -0.1041
   64MOL   C36134507   0.236   4.116   7.511 -0.4386  0.0790 -0.3943
   64MOL   C36234508   0.311   4.170   7.380 -0.1949 -0.3849 -0.3558
   64MOL   C36334509   0.337   4.119   7.635 -0.1118 -0.0377 -0.5370
   64MOL   H36434510   0.203   4.686   7.483 -1.7722 -0.3144  0.8196
   64MOL   H36534511   0.179   4.719   7.317 -0.8763 -0.5281 -0.5517
   64MOL   H36634512   0.263   4.574   7.355  1.3743 -1.5849  3.7374
   64MOL   H36734513   0.051   4.526   7.494  3.2065  0.2708 -0.1953
   64MOL   H36834514   7.774   4.648   7.392  0.9399  0.7627  2.4610
   64MOL   H36934515   0.102   4.422   7.267  0.9088  1.1771  1.0438
   64MOL   H37034516   7.807   4.542   7.200 -1.9446 -2.7605 -1.6862
   64MOL   H37134517   7.677   4.329   7.227  0.1011  0.3847  0.0229
   64MOL   H37234518   7.621   4.446   7.324 -0.4854  0.2860  1.7176
   64MOL   H37334519   7.717   4.334   7.526  0.6363 -2.6232  1.4213
   64MOL   H37434520   7.639   4.214   7.438 -0.9783  1.0434  0.6849
   64MOL   H37534521   0.251   4.165   7.289 -2.2732 -1.3955  1.0208
   64MOL   H37634522   0.349   4.272   7.384 -0.7754 -0.1182 -1.3402
   64MOL   H37734523   0.394   4.100   7.373 -0.5833 -0.8760 -0.0803
   64MOL   H37834524   0.269   4.100   7.718  1.1217 -4.2173 -0.4162
   64MOL   H37934525   0.404   4.033   7.642  1.1908  1.0399  0.5138
   64MOL   C38034526   0.537   4.782   7.160  0.4735 -0.4787  0.2288
   64MOL   C38134527   0.646   4.719   7.241  0.2005  0.1314  0.9967
   64MOL   C38234528   0.598   4.581   7.310 -0.1726 -1.0194 -0.7814
   64MOL   C38334529   0.711   4.525   7.399  0.3784 -0.9979 -0.5779
   64MOL   C38434530   0.689   4.382   7.448  0.0767  0.3252  0.1108
   64MOL   O38534531   0.574   4.367   7.526 -0.2953 -0.5029  0.4304
   64MOL   C38634532   0.551   4.250   7.576  0.1204  1.2759 -0.2542
   64MOL   O38734533   0.611   4.145   7.545  0.4221 -0.1502  0.2183
   64MOL   C38834534   0.431   4.244   7.680 -0.6119 -0.6655  0.0536
   64MOL   C38934535   0.349   4.377   7.687 -0.3494  0.7478 -0.2559
   64MOL   C39034536   0.482   4.200   0.014 -0.0948  0.4889  0.7369
   64MOL   H39134537   0.523   4.739   7.062 -2.2655 -1.1776  0.8982
   64MOL   H39234538   0.449   4.804   7.220 -0.0127 -2.9328  0.4356
   64MOL   H39334539   0.573   4.881   7.132 -0.6687  0.0510  0.5965
   64MOL   H39434540   0.656   4.802   7.311 -1.7026  0.0082  1.4285
   64MOL   H39534541   0.740   4.704   7.187 -0.5292 -1.7951  0.2626
   64MOL   H39634542   0.506   4.603   7.363 -0.0802 -2.5746  0.0477
   64MOL   H39734543   0.574   4.510   7.231  0.3081 -2.4742  0.3742
   64MOL   H39834544   0.802   4.520   7.339  0.6620 -0.3557 -0.2054
   64MOL   H39934545   0.738   4.595   7.478 -2.4088  0.7435 -1.1003
   64MOL   H40034546   0.778   4.354   7.504  2.3427  1.7944 -2.5911
   64MOL   H40134547   0.691   4.309   7.367  1.8492  0.3018  0.1627
   64MOL   H40234548   0.417   4.460   7.704  1.6309 -0.4031 -2.3514
   64MOL   H40334549   0.273   4.371   7.765  0.4788 -0.0180  0.4987
   64MOL   H40434550   0.293   4.391   7.594 -1.0387  0.7208  0.1506
   64MOL   H40534551   0.573   4.148   7.799  0.0486 -0.1693  2.2676
   64MOL   H40634552   0.420   4.121   0.058 -0.1295 -1.3139 -2.3801
   64MOL   C40734553   0.440   4.889   7.562 -0.2919  0.0278 -0.4600
   64MOL   C40834554   0.467   4.917   7.708  0.0937 -0.6102  0.1159
   64MOL   C40934555   0.591   4.845   7.768  0.3605  0.1917 -0.2250
   64MOL   C41034556   0.562   4.708   7.807  0.4806 -0.1040  0.9926
   64MOL   C41134557   0.673   4.645   0.077  0.0040  0.5204  0.0620
   64MOL   O41234558   0.616   4.526   0.137 -0.2048 -0.4495 -0.0082
   64MOL   C41334559   0.619   4.409   0.072 -1.0144  0.5968  0.2379
   64MOL   O41434560   0.699   4.388   7.793  0.0725  0.2543  0.0838
   64MOL   C41534561   0.532   4.297   0.128 -0.0082  0.1965 -0.1081
   64MOL   C41634562   0.419   4.358   0.212  0.1850  0.1863 -0.3629
   64MOL   C41734563   0.607   4.202   0.231 -0.0580  0.2954 -0.2108
   64MOL   H41834564   0.418   4.784   7.545  1.9133 -0.4374 -0.6065
   64MOL   H41934565   0.351   4.945   7.534 -0.2087 -0.7267 -2.3127
   64MOL   H42034566   0.510   4.913   7.482 -0.4744  0.1799 -0.5734
   64MOL   H42134567   0.385   4.897   7.778 -0.1241  0.5598  0.2101
   64MOL   H42234568   0.491   5.023   7.712 -1.3103 -0.2746  0.0973
   64MOL   H42334569   0.680   4.849   7.706  1.0585 -2.2593  0.5783
   64MOL   H42434570   0.629   4.894   0.044 -1.5940  0.5413  0.4430
   64MOL   H42534571   0.542   4.652   7.716 -0.5558  0.1492  1.0526
   64MOL   H42634572   0.468   4.704   0.047 -0.5042  1.4828 -0.5307
   64MOL   H42734573   0.755   4.621   0.010  0.3766 -1.0228  1.0453
   64MOL   H42834574   0.713   4.711   0.153 -0.9236  1.0520  0.0955
   64MOL   H42934575   0.361   4.289   0.273 -1.5957  0.1387 -2.1023
   64MOL   H43034576   0.351   4.415   0.149  0.5856  0.7339 -0.3049
   64MOL   H43134577   0.438   4.430   0.292  0.1496  0.1488 -0.3207
   64MOL   H43234578   0.662   4.133   0.167 -0.0301  0.4825 -0.3877
   64MOL   H43334579   0.528   4.141   0.273 -1.4856  0.1683 -2.9719
   64MOL   C43434580   0.921   4.051   7.456  0.1515  0.6723  0.1345
   64MOL   C43534581   1.024   4.055   7.578  0.1293  0.2564  0.1531
   64MOL   C43634582   0.976   4.134   7.695 -0.1346  0.7348  1.0895
   64MOL   C43734583   1.050   4.103   0.011  0.2112 -0.0610 -0.3940
   64MOL   C43834584   1.030   4.213   0.117  0.0745  0.5457  0.1211
   64MOL   O43934585   0.900   4.201   0.173 -0.0326  0.4203  0.0722
   64MOL   C44034586   0.846   4.291   0.259 -0.8062  0.4511  0.4886
   64MOL   O44134587   0.903   4.399   0.282 -1.0577  0.1900  0.2482
   64MOL   C44234588   0.719   4.239   0.333 -0.5210  0.6281 -0.6015
   64MOL   C44334589   0.763   4.100   0.392 -0.0279  0.9825 -0.3518
   64MOL   C44434590   0.677   4.344   0.445 -0.3014 -0.3863 -0.5512
   64MOL   H44534591   0.977   4.017   7.369  1.0754 -2.3016  1.8375
   64MOL   H44634592   0.835   3.987   7.477 -1.5434  2.5491 -0.8911
   64MOL   H44734593   0.875   4.149   7.444 -0.2874  0.6048  1.2040
   64MOL   H44834594   1.044   3.949   7.594 -2.2660 -0.3968 -0.9905
   64MOL   H44934595   1.119   4.091   7.538 -0.1221 -0.7482 -1.4078
   64MOL   H45034596   0.973   4.240   7.670 -0.7998  0.2156 -1.0956
   64MOL   H45134597   0.869   4.120   7.713 -0.6371  2.5509 -0.3297
   64MOL   H45234598   1.157   4.100   7.808  0.2720 -0.1261 -0.0008
   64MOL   H45334599   1.022   4.009   0.059 -0.6428  0.8146  0.8552
   64MOL   H45434600   1.037   4.314   0.077 -0.3649  0.7052  0.4328
   64MOL   H45534601   1.108   4.198   0.192  0.4237 -1.4578 -0.6079
   64MOL   H45634602   0.824   4.102   0.482  0.4573 -2.0543 -0.5572
   64MOL   H45734603   0.679   4.038   0.425  1.3571 -0.2020  1.0402
   64MOL   H45834604   0.823   4.042   0.322 -1.6931 -0.8248 -0.3260
   64MOL   H45934605   0.608   4.413   0.397 -2.7095 -1.5060  1.2293
   64MOL   H46034606   0.753   4.416   0.477  0.7429 -1.0307 -1.5273
   64MOL   C46134607   1.357   4.311   0.510 -0.2342 -0.2938 -0.2341
   64MOL   C46234608   1.277   4.324   0.638  0.4254  0.2647  0.9288
   64MOL   C46334609   1.144   4.250   0.649  0.0517 -0.1117 -0.2998
   64MOL   C46434610   1.062   4.277   0.773  0.1169 -0.3547 -0.0558
   64MOL   C46534611   0.929   4.212   0.778 -0.6965  0.5409 -0.8731
   64MOL   O46634612   0.842   4.269   0.684  0.2399  0.7267  0.5996
   64MOL   C46734613   0.713   4.221   0.673  0.2965  0.0438  0.7741
   64MOL   O46834614   0.678   4.121   0.732 -0.0190 -0.0674 -0.3582
   64MOL   C46934615   0.609   4.309   0.585 -0.2712 -0.4443  0.1095
   64MOL   C47034616   0.482   4.233   0.556 -0.1955  0.1145  0.0953
   64MOL   C47134617   0.577   4.451   0.653  0.0733  0.3916 -0.2403
   64MOL   H47234618   1.410   4.406   0.502  0.0074 -0.4420 -0.4024
   64MOL   H47334619   1.294   4.292   0.423 -2.1178  0.5133  0.9284
   64MOL   H47434620   1.417   4.220   0.509 -0.7585 -0.6433  0.0910
   64MOL   H47534621   1.268   4.432   0.655  0.1570  0.9388 -2.9566
   64MOL   H47634622   1.345   4.279   0.711  1.0112  0.4891  0.5249
   64MOL   H47734623   1.173   4.145   0.635  0.5642 -0.1804  1.1882
   64MOL   H47834624   1.076   4.285   0.571 -1.5484  0.1040  1.1796
   64MOL   H47934625   1.059   4.383   0.800 -2.0222 -0.3803 -0.0541
   64MOL   H48034626   1.120   4.234   0.854 -1.1200  1.2294  1.7061
   64MOL   H48134627   0.933   4.106   0.751  0.9449  0.1832  0.6200
   64MOL   H48234628   0.899   4.218   0.883  2.8212 -0.1624  0.2737
   64MOL   H48334629   0.487   4.156   0.479  0.4373  0.1950  0.0549
   64MOL   H48434630   0.404   4.302   0.524 -0.3860 -0.5188 -0.8234
   64MOL   H48534631   0.441   4.180   0.643 -1.3998 -0.0641 -0.5639
   64MOL   H48634632   0.521   4.498   0.573 -1.0746 -2.5629 -1.2184
   64MOL   H48734633   0.665   4.514   0.666 -0.0013 -0.0298  2.7329
   64MOL   C48834634   7.715   4.829   0.901 -0.3157  0.9821  0.8790
   64MOL   C48934635   7.772   4.776   0.767 -0.4353  0.2664  0.1786
   64MOL   C49034636   0.084   4.678   0.773  0.4511 -0.4082  0.0482
   64MOL   C49134637   0.062   4.526   0.740 -0.1245 -0.0760 -0.2576
   64MOL   C49234638   0.162   4.465   0.644  0.1875  0.4177 -0.2299
   64MOL   O49334639   0.291   4.505   0.698  0.3250  0.2424  0.7873
   64MOL   C49434640   0.356   4.419   0.772  0.6042  0.4824 -0.1580
   64MOL   O49534641   0.311   4.312   0.819  0.6442 -0.0869  0.1163
   64MOL   C49634642   0.502   4.460   0.793  0.1803  0.0883  0.2840
   64MOL   C49734643   0.506   4.606   0.832 -0.4948 -0.6477  0.2407
   64MOL   C49834644   0.587   4.379   0.898  0.7124  0.7841 -0.0202
   64MOL   H49934645   7.658   4.918   0.876 -2.5057  0.3022  3.2691
   64MOL   H50034646   7.639   4.762   0.942 -1.3056  0.8518 -1.0469
   64MOL   H50134647   7.791   4.854   0.974  0.7943 -0.9029  0.4117
   64MOL   H50234648   7.809   4.871   0.729 -1.4246  1.1828  1.4317
   64MOL   H50334649   7.698   4.757   0.690  1.0926 -0.8641 -1.0421
   64MOL   H50434650   0.153   4.725   0.704  0.1737  1.4234  0.9809
   64MOL   H50534651   0.133   4.679   0.870 -1.1342  3.0474  0.9038
   64MOL   H50634652   7.773   4.504   0.711  0.0824 -1.2078 -0.1682
   64MOL   H50734653   0.065   4.475   0.836  0.1945 -1.1214 -0.8065
   64MOL   H50834654   0.134   4.360   0.636 -1.0844  0.6143  1.3858
   64MOL   H50934655   0.147   4.503   0.543 -1.0805  1.0482  0.1863
   64MOL   H51034656   0.592   4.639   0.890  0.9497  1.4558 -2.9224
   64MOL   H51134657   0.424   4.637   0.896  0.9449  2.3918  0.7149
   64MOL   H51234658   0.521   4.679   0.752 -2.9943  0.6880  0.9615
   64MOL   H51334659   0.691   4.374   0.865  1.2474 -0.8079  1.7958
   64MOL   H51434660   0.551   4.276   0.891  0.7605  0.8410 -1.2580
   64MOL   C51534661   0.956   4.699   0.612 -0.4320 -0.3073 -0.9489
   64MOL   C51634662   1.031   4.684   0.746 -0.0231 -0.3594  0.1539
   64MOL   C51734663   0.937   4.652   0.860  0.0188  0.7954 -0.4593
   64MOL   C51834664   1.001   4.600   0.989  0.4299  0.3950 -0.8921
   64MOL   C51934665   0.900   4.588   1.106  0.4329  0.6759  0.1858
   64MOL   O52034666   0.793   4.493   1.070  0.4587  0.0209  0.3933
   64MOL   C52134667   0.664   4.512   1.101 -0.2596 -0.0595  0.3432
   64MOL   O52234668   0.615   4.615   1.155 -0.3023 -0.0412 -0.2916
   64MOL   C52334669   0.577   4.390   1.054 -0.0390 -0.0968  0.6045
   64MOL   C52434670   0.627   4.268   1.138  0.3240 -0.0129 -0.2490
   64MOL   C52534671   0.431   4.421   1.099 -0.1235  0.3647 -0.4019
   64MOL   H52634672   0.893   4.788   0.610  2.9926  2.3657  2.5495
   64MOL   H52734673   1.017   4.694   0.523  1.6363  0.3911  0.4088
   64MOL   H52834674   0.894   4.609   0.604  0.0758 -0.4987 -2.8856
   64MOL   H52934675   1.102   4.602   0.736  0.7271  0.3105 -0.0281
   64MOL   H53034676   1.083   4.778   0.763  0.1917 -0.0046 -2.2769
   64MOL   H53134677   0.859   4.725   0.884 -2.1187 -0.9832 -1.7912
   64MOL   H53234678   0.878   4.568   0.822  0.7934  0.0884 -0.1168
   64MOL   H53334679   1.079   4.667   1.026  1.1449 -2.3712  2.9439
   64MOL   H53434680   1.053   4.505   0.975  2.6469  1.0514  2.3821
   64MOL   H53534681   0.942   4.573   1.205  1.1880 -1.0563 -0.3749
   64MOL   H53634682   0.849   4.683   1.123  1.5629  1.0960  1.3044
   64MOL   H53734683   0.544   4.198   1.145  1.0465 -0.8632 -0.0853
   64MOL   H53834684   0.654   4.276   1.244 -0.1418  1.5021 -0.2287
   64MOL   H53934685   0.704   4.217   1.081  0.2600  0.0748 -0.4149
   64MOL   H54034686   0.360   4.340   1.082  0.7108 -0.4959  0.1635
   64MOL   H54134687   0.387   4.507   1.049  2.2407  1.3569 -0.8635
   64MOL   H54234688   0.427   4.434   1.207  2.7442  0.0648 -0.2120
   65MOL     C134689   6.628   6.910   5.350  0.0293  0.0624  0.7395
   65MOL     C234690   6.630   6.888   5.497 -0.2206  0.5010 -0.1794
   65MOL     C334691   6.517   6.794   5.548  0.0585  0.0568 -0.6265
   65MOL     C434692   6.384   6.857   5.530  0.2316 -0.1282 -0.5842
   65MOL     C534693   6.274   6.766   5.584  0.7369  0.1144  0.5569
   65MOL     O634694   6.295   6.766   5.713 -0.1702  0.4045 -0.1785
   65MOL     C734695   6.294   6.650   5.789 -0.6723  0.1707 -0.0445
   65MOL     O834696   6.273   6.536   5.759  0.6627 -0.1283 -0.1403
   65MOL     C934697   6.301   6.688   5.940  0.5138 -0.1022 -0.1093
   65MOL    C1034698   6.179   6.771   5.974  0.4811 -0.3418  0.4201
   65MOL    C1134699   6.431   6.756   5.978  0.6773 -0.3309 -0.1108
   65MOL    H1234700   6.670   7.004   5.316 -0.8448 -0.4729 -1.9691
   65MOL    H1334701   6.531   6.897   5.300 -0.1714 -0.6105  1.2903
   65MOL    H1434702   6.693   6.839   5.299 -1.9117 -0.4903 -1.0908
   65MOL    H1534703   6.722   6.841   5.533 -1.6650 -1.4530  1.0491
   65MOL    H1634704   6.610   6.982   5.549 -3.9432  0.4172 -1.3374
   65MOL    H1734705   6.516   6.701   5.492 -0.2758  0.6703 -1.6356
   65MOL    H1834706   6.535   6.774   5.654 -0.6834  0.8581 -0.3426
   65MOL    H1934707   6.355   6.883   5.429  0.6255 -0.2066 -0.7191
   65MOL    H2034708   6.388   6.953   5.582 -0.7679 -0.4011  0.0054
   65MOL    H2134709   6.171   6.797   5.567  0.4384 -1.7595 -1.2805
   65MOL    H2234710   6.272   6.664   5.545 -0.0497 -0.1605  1.2805
   65MOL    H2334711   6.086   6.715   5.968 -0.1783  0.7268  0.5065
   65MOL    H2434712   6.179   6.854   5.904 -0.8900 -0.3037  0.4553
   65MOL    H2534713   6.178   6.802   6.079 -0.5342  1.6335 -0.1544
   65MOL    H2634714   6.416   6.847   6.035  0.2705  1.3592 -2.8333
   65MOL    H2734715   6.484   6.792   5.890  0.1569 -1.9464 -1.1064
   65MOL    H2834716   6.291   6.597   5.999  4.0489 -0.3578  0.2034
   65MOL    C2934717   6.924   6.618   5.393  0.1072  0.0775 -0.4429
   65MOL    C3034718   6.897   6.518   5.506 -0.5544  0.5960  0.1404
   65MOL    C3134719   6.772   6.553   5.593  0.1973  0.3919  0.0329
   65MOL    C3234720   6.752   6.455   5.710  0.3113 -0.6681  0.1359
   65MOL    C3334721   6.614   6.456   5.761  0.4610  0.2621  0.1584
   65MOL    O3434722   6.599   6.572   5.853 -0.5150  0.0363 -0.0317
   65MOL    C3534723   6.569   6.545   5.988  0.5061  0.8496  0.4028
   65MOL    O3634724   6.566   6.434   6.043  0.1627 -0.2999 -0.1203
   65MOL    C3734725   6.531   6.672   6.064 -0.2321 -0.0249  0.2437
   65MOL    C3834726   6.466   6.628   6.199 -0.0226  0.1996 -0.1508
   65MOL    C3934727   6.656   6.771   6.080  0.1610 -0.3626  0.8669
   65MOL    H4034728   7.027   6.597   5.363 -0.2130  0.3107 -1.7141
   65MOL    H4134729   6.862   6.611   5.304  0.8937  0.6520 -1.0382
   65MOL    H4234730   6.937   6.722   5.424  1.2939 -0.6075  1.4837
   65MOL    H4334731   6.978   6.524   5.578 -0.9509 -0.4217  0.6841
   65MOL    H4434732   6.888   6.416   5.469  0.2496  0.2115  0.9846
   65MOL    H4534733   6.687   6.568   5.525  0.2305 -0.8161 -0.2902
   65MOL    H4634734   6.780   6.651   5.639 -0.8965  0.8367 -0.6940
   65MOL    H4734735   6.782   6.356   5.675  1.9998  0.2333 -1.0355
   65MOL    H4834736   6.823   6.475   5.791 -0.7443 -1.9530  1.4178
   65MOL    H4934737   6.595   6.361   5.813  0.0804  1.3874  2.1282
   65MOL    H5034738   6.532   6.452   5.689  1.7801  0.0400 -1.3565
   65MOL    H5134739   6.507   6.539   6.247 -0.3545 -0.4208 -1.0287
   65MOL    H5234740   6.359   6.612   6.197 -0.0692  0.5841 -0.8277
   65MOL    H5334741   6.477   6.709   6.272  1.0825  0.3866 -0.5123
   65MOL    H5434742   6.606   6.858   6.123 -1.5430 -1.4133  1.0806
   65MOL    H5534743   6.677   6.810   5.981  1.8544 -0.4669  1.1758
   65MOL    C5634744   6.810   6.845   6.976 -0.3163 -0.0558  0.0642
   65MOL    C5734745   6.858   6.815   6.836 -0.1690 -0.4142 -0.1892
   65MOL    C5834746   6.740   6.840   6.742 -0.2716 -0.0934 -0.1521
   65MOL    C5934747   6.773   6.813   6.591  0.0852 -0.7020  0.3261
   65MOL    C6034748   6.659   6.816   6.500  0.3079  0.1838  0.6496
   65MOL    O6134749   6.715   6.831   6.371 -0.0554  0.3342  0.3365
   65MOL    C6234750   6.749   6.718   6.300 -0.2344  0.1351 -0.0044
   65MOL    O6334751   6.766   6.601   6.346 -0.4675  0.2980 -0.5552
   65MOL    C6434752   6.790   6.752   6.159  0.6191  0.0334 -0.9372
   65MOL    C6534753   6.862   6.891   6.155 -0.4327  0.6874 -0.1353
   65MOL    C6634754   6.873   6.643   6.083 -0.7928  0.2645 -0.3150
   65MOL    H6734755   6.888   6.833   7.051  0.4098 -0.5798 -0.7712
   65MOL    H6834756   6.724   6.786   7.007  0.4519 -0.2799  1.8100
   65MOL    H6934757   6.781   6.949   6.993  1.8783  0.0093  3.9387
   65MOL    H7034758   6.940   6.883   6.817 -0.4674  0.0010 -0.0106
   65MOL    H7134759   6.892   6.712   6.826  0.3503 -0.2278 -0.3222
   65MOL    H7234760   6.659   6.775   6.774 -0.0404  0.2743  1.1973
   65MOL    H7334761   6.697   6.941   6.739 -0.7111 -0.2494  0.9538
   65MOL    H7434762   6.810   6.711   6.579 -0.9794 -0.8407 -2.1266
   65MOL    H7534763   6.846   6.890   6.566 -0.8650 -0.3157 -1.3121
   65MOL    H7634764   6.603   6.725   6.519  0.4790 -0.2890 -1.1090
   65MOL    H7734765   6.592   6.902   6.512 -2.1727 -1.7518  0.9031
   65MOL    H7834766   6.943   6.892   6.228 -2.2764 -1.2837  2.0089
   65MOL    H7934767   6.801   6.973   6.193 -1.1934  1.2644 -2.5048
   65MOL    H8034768   6.894   6.909   6.052  0.1956  1.4479  0.1837
   65MOL    H8134769   6.852   6.654   5.976 -2.5270  1.6948  0.1445
   65MOL    H8234770   6.824   6.550   6.112 -1.6279  0.6978 -0.3058
   65MOL    C8334771   7.445   6.671   5.430  0.2191  0.5120  0.1509
   65MOL    C8434772   7.302   6.686   5.491  0.0928  0.0547  0.0936
   65MOL    C8534773   7.302   6.775   5.614 -0.6753  0.1045 -0.2300
   65MOL    C8634774   7.178   6.749   5.701 -0.2920 -0.1897 -0.0835
   65MOL    C8734775   7.184   6.820   5.835  0.8169 -0.4099  0.4925
   65MOL    O8834776   7.084   6.766   5.927 -0.1395  0.3059  0.5248
   65MOL    C8934777   7.113   6.729   6.043  0.5322  0.3371 -0.1168
   65MOL    O9034778   7.205   6.776   6.107  0.2539 -0.7655 -0.0578
   65MOL    C9134779   7.026   6.614   6.097 -0.2782 -0.8785  0.1665
   65MOL    C9234780   7.064   6.583   6.243 -0.2586  0.0738  0.5834
   65MOL    C9334781   7.041   6.485   5.997  0.3107  0.2906 -0.9293
   65MOL    H9434782   7.511   6.616   5.498  0.3326 -1.1092 -1.2363
   65MOL    H9534783   7.440   6.617   5.335 -0.6715 -1.2557  1.1812
   65MOL    H9634784   7.483   6.772   5.413  0.8774 -0.0140 -1.6255
   65MOL    H9734785   7.273   6.582   5.507  1.7484 -0.7036 -1.5861
   65MOL    H9834786   7.241   6.731   5.413 -0.9327  2.0534  2.0183
   65MOL    H9934787   7.321   6.881   5.601  2.0435 -0.0270  2.2233
   65MOL   H10034788   7.390   6.749   5.672 -0.2175  1.7506 -0.1745
   65MOL   H10134789   7.155   6.644   5.716  1.6047 -0.3015  2.3981
   65MOL   H10234790   7.090   6.783   5.646  0.2875 -1.5705 -1.8914
   65MOL   H10334791   7.175   6.928   5.821  0.8172 -0.5052 -0.2970
   65MOL   H10434792   7.286   6.794   5.864  1.7117 -0.1139 -2.2649
   65MOL   H10534793   7.043   6.665   6.311 -0.1143  0.0256  0.6873
   65MOL   H10634794   7.171   6.572   6.264 -0.2032  1.5282  1.1188
   65MOL   H10734795   7.006   6.498   6.278 -2.7569  1.5502  0.1453
   65MOL   H10834796   6.953   6.422   6.008  0.1996  0.3074 -1.6621
   65MOL   H10934797   7.037   6.528   5.896 -1.5641 -1.2212 -1.5259
   65MOL   C11034798   6.593   5.978   6.335  0.0138  0.2953 -0.5323
   65MOL   C11134799   6.628   6.100   6.245 -0.3964 -0.1426  0.0177
   65MOL   C11234800   6.772   6.146   6.279  0.1907 -0.7438  0.1449
   65MOL   C11334801   6.878   6.060   6.205  0.6185 -0.3689 -0.4686
   65MOL   C11434802   7.030   6.116   6.220  0.0699 -0.5904  0.7689
   65MOL   O11534803   7.052   6.216   6.123  0.6205 -0.0458  0.7531
   65MOL   C11634804   7.166   6.287   6.117  0.4521  0.0605  0.1329
   65MOL   O11734805   7.249   6.302   6.206  0.1152  0.0532  0.6258
   65MOL   C11834806   7.170   6.387   5.989 -0.8807  0.2980 -0.8487
   65MOL   C11934807   7.298   6.475   5.987  0.1537  0.1543  1.0267
   65MOL   C12034808   7.177   6.299   5.855  0.5508  0.6802 -0.0428
   65MOL   H12134809   6.490   5.943   6.334 -0.1756  0.7284  1.7169
   65MOL   H12234810   6.662   5.900   6.305  0.2623  1.0686 -2.0673
   65MOL   H12334811   6.604   6.004   6.440  1.3799 -1.9518 -0.0935
   65MOL   H12434812   6.606   6.075   6.142  1.3033  0.9324 -0.6224
   65MOL   H12534813   6.554   6.177   6.267 -1.0824 -1.0828  1.0468
   65MOL   H12634814   6.773   6.249   6.242  0.0583 -1.3072 -1.4672
   65MOL   H12734815   6.794   6.140   6.386 -0.1640 -0.0377  0.2601
   65MOL   H12834816   6.851   6.052   6.100  0.5296 -0.1390 -0.4631
   65MOL   H12934817   6.867   5.959   6.245 -1.2617  0.2711  0.6929
   65MOL   H13034818   7.054   6.153   6.320 -0.2940 -2.1633  1.4660
   65MOL   H13134819   7.104   6.036   6.210 -0.4754 -0.7961 -1.8617
   65MOL   H13234820   7.382   6.407   5.971 -0.2982 -0.1984  0.1095
   65MOL   H13334821   7.301   6.536   5.897 -3.7674 -1.2214 -0.1459
   65MOL   H13434822   7.321   6.529   6.079  1.6589  2.1400 -0.4712
   65MOL   H13534823   7.086   6.239   5.866  1.3944 -0.3658  1.4585
   65MOL   H13634824   7.156   6.365   5.771 -1.6615 -0.0475 -0.0999
   65MOL   C13734825   0.200   6.020   5.899 -0.9339  0.4698 -0.3611
   65MOL   C13834826   0.137   6.157   5.906  0.0763  0.1346 -0.9241
   65MOL   C13934827   0.005   6.172   5.820 -0.7982 -0.0339 -0.3921
   65MOL   C14034828   7.760   6.317   5.811 -0.2002 -0.3004  0.0882
   65MOL   C14134829   7.640   6.307   5.712 -0.2986 -0.0328 -0.2442
   65MOL   O14234830   7.530   6.242   5.768 -0.0087  0.2302  0.5079
   65MOL   C14334831   7.409   6.283   5.740  0.7244  0.5122  0.2872
   65MOL   O14434832   7.375   6.385   5.675  0.3830 -0.4885 -0.2778
   65MOL   C14534833   7.293   6.205   5.814 -0.0343  0.1724 -0.4251
   65MOL   C14634834   7.340   6.126   5.932  0.1852  0.2677 -0.1430
   65MOL   C14734835   7.232   6.092   5.715 -0.5256 -0.6998  0.9830
   65MOL   H14834836   0.287   6.022   5.964 -0.7624 -1.2015 -0.5178
   65MOL   H14934837   0.226   5.994   5.796  1.6017 -0.7511  0.5530
   65MOL   H15034838   0.137   5.934   5.924  1.3001 -1.3155 -0.7311
   65MOL   H15134839   0.198   6.236   5.862 -1.6713  1.5076 -0.9326
   65MOL   H15234840   0.112   6.190   6.007  1.6897 -0.1338 -0.4175
   65MOL   H15334841   0.015   6.128   5.721  0.0361 -1.4342  0.3060
   65MOL   H15434842   7.736   6.110   5.853 -1.6520  2.1439  1.7356
   65MOL   H15534843   7.731   6.343   5.913  2.2990  1.3173  0.4343
   65MOL   H15634844   0.024   6.386   5.780 -0.7527 -0.2223 -1.1662
   65MOL   H15734845   7.673   6.259   5.620  0.7895 -0.5672  0.4156
   65MOL   H15834846   7.624   6.414   5.697 -1.5600 -0.1084  0.5060
   65MOL   H15934847   7.395   6.189   6.002 -0.3665 -1.6584  2.1028
   65MOL   H16034848   7.414   6.047   5.917  2.4747  2.1343  0.9555
   65MOL   H16134849   7.257   6.078   5.984  0.6111  1.4402  1.6637
   65MOL   H16234850   7.311   6.019   5.700  1.3037  1.1431  1.3850
   65MOL   H16334851   7.152   6.042   5.770 -1.5075 -0.2958 -0.0591
   65MOL   C16434852   7.525   6.179   4.827 -0.5706  0.0136  0.0729
   65MOL   C16534853   7.484   6.111   4.953  0.7776  0.2450 -0.1415
   65MOL   C16634854   7.333   6.119   4.973 -0.6221  0.1880  0.1987
   65MOL   C16734855   7.292   6.071   5.117 -0.1623  0.1321  0.4485
   65MOL   C16834856   7.355   6.159   5.229  0.0455 -0.4656  0.6686
   65MOL   O16934857   7.264   6.133   5.340 -0.1462  0.0982  0.1560
   65MOL   C17034858   7.305   6.128   5.468 -0.5131  0.2394  0.3070
   65MOL   O17134859   7.426   6.131   5.491 -0.0835 -0.0668 -0.4732
   65MOL   C17234860   7.189   6.108   5.560  0.2385  0.1414  0.2096
   65MOL   C17334861   7.105   6.240   5.539 -0.0123  0.5475  0.4514
   65MOL   C17434862   7.105   5.983   5.515  0.6455 -1.0923  0.2438
   65MOL   H17534863   7.482   6.279   4.830  2.6362  1.4415  0.7693
   65MOL   H17634864   7.485   6.120   4.744 -0.7981 -0.7658  0.7398
   65MOL   H17734865   7.633   6.191   4.818 -0.2951  0.5291  3.5654
   65MOL   H17834866   7.528   6.167   5.036  0.4870  0.5667 -0.2041
   65MOL   H17934867   7.526   6.010   4.950 -2.2787 -1.0894  0.0250
   65MOL   H18034868   7.291   6.219   4.962 -0.1601  0.5497  1.6479
   65MOL   H18134869   7.286   6.057   4.896  0.1086 -0.5711  0.3495
   65MOL   H18234870   7.320   5.967   5.131 -0.4864 -0.1306 -0.8074
   65MOL   H18334871   7.185   6.050   5.126 -0.0783 -0.2832  0.4740
   65MOL   H18434872   7.350   6.264   5.200  0.4247 -0.0945  1.8695
   65MOL   H18534873   7.461   6.145   5.248  0.5794  1.9352 -0.3956
   65MOL   H18634874   7.046   6.233   5.447 -0.4403 -1.8899  0.8758
   65MOL   H18734875   7.160   6.330   5.514 -0.9880  1.1742  0.5496
   65MOL   H18834876   7.034   6.250   5.621 -0.3144  2.4113 -0.0027
   65MOL   H18934877   7.006   5.992   5.559  0.7207 -2.5098  0.7542
   65MOL   H19034878   7.081   5.987   5.409  0.0275 -1.3727  0.3665
   65MOL   C19134879   6.876   5.599   6.322  0.5083  0.7763  0.0120
   65MOL   C19234880   6.847   5.658   6.187 -0.3258  0.1159 -0.4051
   65MOL   C19334881   6.974   5.689   6.111 -0.2648  0.6301 -0.1805
   65MOL   C19434882   6.949   5.738   5.971 -0.4941  0.0894  0.4486
   65MOL   C19534883   7.083   5.771   5.902 -0.4771  0.8264  0.4137
   65MOL   O19634884   7.069   5.803   5.771  0.5075 -0.5090  0.0724
   65MOL   C19734885   7.178   5.796   5.683  0.0696 -0.2315  0.3032
   65MOL   O19834886   7.285   5.751   5.716  0.3572  0.2129 -0.0722
   65MOL   C19934887   7.145   5.832   5.540 -0.3413  0.3744  0.6672
   65MOL   C20034888   7.268   5.798   5.451  0.3379  0.4244  1.0454
   65MOL   C20134889   7.017   5.741   5.493 -0.1604  0.0247 -0.0157
   65MOL   H20234890   6.930   5.505   6.328 -1.5397 -0.3953  0.4542
   65MOL   H20334891   6.928   5.671   6.386  1.1096 -0.6301  1.1322
   65MOL   H20434892   6.789   5.575   6.383  1.3724 -0.1284  0.9015
   65MOL   H20534893   6.798   5.755   6.195 -1.1867 -0.3120 -0.3534
   65MOL   H20634894   6.786   5.593   6.124  0.7782 -1.6191  0.2800
   65MOL   H20734895   7.032   5.597   6.113 -2.7677 -1.0724 -2.2362
   65MOL   H20834896   7.027   5.764   6.169 -0.6499 -0.3637  1.4763
   65MOL   H20934897   6.898   5.660   5.914 -1.4928  2.3572 -1.8588
   65MOL   H21034898   6.878   5.821   5.979 -4.1711 -2.9626  0.8325
   65MOL   H21134899   7.135   5.848   5.959 -0.9751 -0.4838  2.6811
   65MOL   H21234900   7.144   5.681   5.906  1.0814  1.8407  0.1929
   65MOL   H21334901   7.348   5.867   5.477  0.8954  0.7624 -1.4836
   65MOL   H21434902   7.248   5.801   5.344 -0.1150 -0.9592  1.0882
   65MOL   H21534903   7.311   5.700   5.470  0.3545  0.4600  1.1979
   65MOL   H21634904   6.990   5.782   5.395  2.1995  1.5941 -0.0715
   65MOL   H21734905   6.943   5.770   5.568  1.3779 -0.2886  1.6584
   65MOL   C21834906   7.752   5.481   5.073  0.5277 -0.3988 -0.5137
   65MOL   C21934907   7.618   5.543   5.107  0.0420 -0.2182  0.5537
   65MOL   C22034908   7.525   5.444   5.183 -0.5033  0.1299  0.0892
   65MOL   C22134909   7.416   5.514   5.266 -0.4928 -0.2630  0.2940
   65MOL   C22234910   7.319   5.411   5.326  0.8430 -0.7171  0.2649
   65MOL   O22334911   7.227   5.480   5.410 -0.3146 -0.5568 -0.3026
   65MOL   C22434912   7.116   5.541   5.365  0.3263 -0.2371 -0.1973
   65MOL   O22534913   7.092   5.567   5.249  0.3117 -0.3315  0.0768
   65MOL   C22634914   7.010   5.583   5.477 -0.2666  0.4038 -0.2052
   65MOL   C22734915   6.878   5.555   5.414 -0.0498 -0.4227  0.2967
   65MOL   C22834916   7.033   5.514   5.609  0.1482  0.3365 -0.2841
   65MOL   H22934917   0.004   5.483   5.160  0.6038  1.0648 -0.5936
   65MOL   H23034918   7.744   5.374   5.054 -1.8942 -0.4779  0.7213
   65MOL   H23134919   7.794   5.525   4.983 -3.2320  1.0421 -1.6664
   65MOL   H23234920   7.574   5.562   5.009 -0.0641  1.2046  0.8731
   65MOL   H23334921   7.628   5.645   5.144 -0.1307  1.0344 -2.7067
   65MOL   H23434922   7.577   5.373   5.247  1.5286  1.3388 -0.1746
   65MOL   H23534923   7.486   5.377   5.106  0.0078 -0.2710  0.1772
   65MOL   H23634924   7.458   5.577   5.344  1.1999 -0.0467 -0.7571
   65MOL   H23734925   7.363   5.588   5.206  0.4843  1.3223  1.3462
   65MOL   H23834926   7.365   5.346   5.400  2.1791 -0.6570 -0.4986
   65MOL   H23934927   7.254   5.364   5.253 -2.7771  3.5533  0.4795
   65MOL   H24034928   6.794   5.587   5.476 -0.3755 -0.4874 -0.1111
   65MOL   H24134929   6.862   5.449   5.395  0.2298 -0.5707  0.8986
   65MOL   H24234930   6.863   5.607   5.319  0.1977 -1.0470 -0.0865
   65MOL   H24334931   6.972   5.577   5.674 -1.1013 -0.1880 -0.9184
   65MOL   H24434932   7.132   5.531   5.649 -0.7676 -0.5796  2.5168
   65MOL   C24534933   6.958   4.777   5.577 -0.7843 -0.9130 -0.5242
   65MOL   C24634934   6.968   4.873   5.456 -0.1623 -0.1882 -0.0195
   65MOL   C24734935   6.830   4.941   5.442 -0.6009 -1.1934  0.2312
   65MOL   C24834936   6.829   5.052   5.335  0.3023  0.7571  0.0339
   65MOL   C24934937   6.942   5.154   5.347  0.5372 -0.2568 -0.0906
   65MOL   O25034938   6.922   5.228   5.463 -0.0810  0.4817  0.6709
   65MOL   C25134939   7.027   5.274   5.532 -0.0690 -0.4480 -0.5832
   65MOL   O25234940   7.140   5.233   5.514  0.1284 -0.0767  0.0328
   65MOL   C25334941   6.994   5.365   5.651  0.0278  0.3580  0.9184
   65MOL   C25434942   6.841   5.359   5.684  0.4870  0.2956  0.7562
   65MOL   C25534943   7.087   5.326   5.776  0.3673  0.3631 -0.6402
   65MOL   H25634944   6.870   4.712   5.577  0.7093 -3.0193  1.3964
   65MOL   H25734945   7.036   4.701   5.572 -0.1336 -0.2128 -1.1070
   65MOL   H25834946   6.955   4.836   5.668  1.9707 -0.4346 -0.6807
   65MOL   H25934947   7.052   4.943   5.457 -0.4026  0.0937  0.2792
   65MOL   H26034948   6.980   4.813   5.366 -0.5803 -1.3058  0.6693
   65MOL   H26134949   6.785   4.980   5.533 -1.2427  1.4218 -1.1591
   65MOL   H26234950   6.754   4.868   5.414  0.2649 -1.5880 -1.1257
   65MOL   H26334951   6.849   5.010   5.236 -0.6866  0.1676  0.0699
   65MOL   H26434952   6.731   5.099   5.336  0.6354  1.4454  0.3789
   65MOL   H26534953   7.041   5.114   5.326  0.7469 -0.0178  0.4504
   65MOL   H26634954   6.915   5.221   5.265 -0.6283 -0.9075 -0.2494
   65MOL   H26734955   6.784   5.367   5.592 -2.1602 -1.5980  2.1807
   65MOL   H26834956   6.806   5.268   5.732 -0.4502 -1.4120 -3.0310
   65MOL   H26934957   6.812   5.442   5.749 -0.6416 -0.8014  1.6657
   65MOL   H27034958   7.191   5.304   5.750  0.6205 -0.7410  1.2022
   65MOL   H27134959   7.093   5.419   5.832 -1.8357  0.6020 -0.7409
   65MOL   C27234960   6.618   4.820   6.427 -0.3849 -0.0445 -0.1333
   65MOL   C27334961   6.683   4.959   6.447 -0.1930  0.3668 -0.1932
   65MOL   C27434962   6.665   5.056   6.329 -0.1789 -0.9401  0.4101
   65MOL   C27534963   6.773   5.037   6.220 -0.4794  0.2976 -0.2827
   65MOL   C27634964   6.773   5.143   6.109  0.3170 -0.0287 -0.8093
   65MOL   O27734965   6.895   5.132   6.033  0.8904  0.3419  0.2058
   65MOL   C27834966   6.928   5.238   5.966 -0.0187 -0.2853 -0.8154
   65MOL   O27934967   6.870   5.345   5.980  0.3634 -0.0295 -0.7517
   65MOL   C28034968   7.054   5.207   5.879 -0.0588 -0.5804 -0.8464
   65MOL   C28134969   7.030   5.078   5.797  0.2249  0.2103 -0.1030
   65MOL   C28234970   7.180   5.175   5.974 -0.3571  1.0878 -0.0514
   65MOL   H28334971   6.683   4.753   6.371  0.1859 -1.0160  1.6845
   65MOL   H28434972   6.602   4.774   6.524  0.2821  0.0310  0.0149
   65MOL   H28534973   6.522   4.833   6.377  0.4076  2.1260 -1.2127
   65MOL   H28634974   6.629   5.007   6.528  0.6899 -1.5970  1.6071
   65MOL   H28734975   6.789   4.946   6.472 -0.3909  1.1182  1.0574
   65MOL   H28834976   6.561   5.053   6.295 -0.0313 -0.3013 -0.0964
   65MOL   H28934977   6.659   5.162   6.355 -0.9333 -0.5371 -1.3545
   65MOL   H29034978   6.867   5.057   6.272 -1.0738 -0.5527  1.1633
   65MOL   H29134979   6.771   4.938   6.175 -1.0032 -0.0221  0.4227
   65MOL   H29234980   6.772   5.237   6.165  2.2730  0.4580 -1.5568
   65MOL   H29334981   6.685   5.138   6.045  0.8054 -0.2541 -1.4639
   65MOL   H29434982   6.931   5.082   5.751 -0.5066 -0.2101  1.3912
   65MOL   H29534983   7.106   5.061   5.720 -1.3010 -2.7620 -1.0224
   65MOL   H29634984   7.024   4.989   5.859  2.3252 -1.1307 -1.7565
   65MOL   H29734985   7.145   5.086   6.026 -0.0683  0.7393 -0.4525
   65MOL   H29834986   7.262   5.142   5.911 -1.2101 -0.4434 -0.3865
   65MOL   C29934987   7.763   5.564   5.469  0.1862 -0.3076 -0.1606
   65MOL   C30034988   7.694   5.450   5.551  0.1088 -0.0085  0.6718
   65MOL   C30134989   7.608   5.517   5.660  0.3900 -1.1006 -0.8304
   65MOL   C30234990   7.517   5.417   5.730 -0.0767 -0.1548 -0.4501
   65MOL   C30334991   7.443   5.476   5.848 -0.0715  0.2186 -0.4229
   65MOL   O30434992   7.363   5.376   5.905  0.0758 -0.5213  0.5212
   65MOL   C30534993   7.295   5.390   6.014  0.5513  0.5012  0.2345
   65MOL   O30634994   7.286   5.496   6.067  0.2365 -0.8589 -0.1871
   65MOL   C30734995   7.253   5.257   6.076  0.0279 -0.7360  0.0345
   65MOL   C30834996   7.163   5.292   6.197  0.3603  0.7555 -0.2270
   65MOL   C30934997   7.384   5.171   6.115 -0.7314 -1.0248  0.3549
   65MOL   H31034998   7.813   5.522   5.382 -0.1477 -3.0121  0.8941
   65MOL   H31134999   0.023   5.607   5.536  1.4527 -0.5575 -1.3869
   65MOL   H31235000   7.689   5.639   5.439  1.4214  1.0068  0.0125
   65MOL   H31335001   7.767   5.383   5.598 -0.6498 -1.2499  0.1120
   65MOL   H31435002   7.629   5.402   5.478  2.7834 -2.8494  0.0255
   65MOL   H31535003   7.551   5.597   5.612  1.7932  2.7931  3.5893
   65MOL   H31635004   7.679   5.570   5.723 -0.9880  0.2337 -0.3729
   65MOL   H31735005   7.584   5.341   5.772 -1.9376 -1.5659  0.0012
   65MOL   H31835006   7.448   5.369   5.661 -0.6382  0.3330 -0.2297
   65MOL   H31935007   7.501   5.527   5.925  2.1487 -1.2897 -1.0597
   65MOL   H32035008   7.372   5.542   5.799 -2.1189 -1.0917  0.6976
   65MOL   H32135009   7.186   5.362   6.277  0.1004  1.4708 -0.7745
   65MOL   H32235010   7.068   5.330   6.159 -0.1527  0.0096  0.2945
   65MOL   H32335011   7.138   5.199   6.250 -3.6898  0.3613 -2.6293
   65MOL   H32435012   7.459   5.169   6.036 -0.2234 -0.9286  0.8243
   65MOL   H32535013   7.353   5.066   6.115 -0.1493 -1.2081  1.5362
   65MOL   C32635014   6.865   5.376   6.644 -0.3351 -0.0782 -0.1471
   65MOL   C32735015   6.923   5.246   6.614  0.4734  0.4255  0.4818
   65MOL   C32835016   7.073   5.231   6.572  0.8400 -0.4720 -0.3032
   65MOL   C32935017   7.107   5.082   6.560  0.2492  0.4583  0.0464
   65MOL   C33035018   7.254   5.046   6.540  0.3605  0.1336 -0.3724
   65MOL   O33135019   7.300   5.123   6.423  0.5228  0.1641 -0.3613
   65MOL   C33235020   7.406   5.079   6.351 -0.1534 -0.0135 -0.5206
   65MOL   O33335021   7.459   4.967   6.370  0.2188  0.2319  0.9898
   65MOL   C33435022   7.466   5.184   6.250  0.8165 -0.1396 -0.2134
   65MOL   C33535023   7.605   5.140   6.212 -0.2891 -0.8015  0.2143
   65MOL   C33635024   7.468   5.326   6.307  0.3595 -1.0920 -0.0392
   65MOL   H33735025   6.774   5.376   6.703 -1.6505  1.3663 -2.0850
   65MOL   H33835026   6.845   5.432   6.552  0.8223  0.3713 -0.1360
   65MOL   H33935027   6.944   5.438   6.688 -0.0977 -0.3068 -0.2505
   65MOL   H34035028   6.860   5.203   6.537  1.0095  0.9903 -0.2751
   65MOL   H34135029   6.910   5.179   6.700 -1.3391  0.2804  0.0927
   65MOL   H34235030   7.137   5.281   6.645 -2.0353 -0.2383  2.1915
   65MOL   H34335031   7.095   5.282   6.478  0.9483 -0.8050 -0.4596
   65MOL   H34435032   7.059   5.032   6.476 -2.5239 -0.0700  1.8699
   65MOL   H34535033   7.066   5.026   6.644 -0.5881 -0.8224 -1.1925
   65MOL   H34635034   7.264   4.939   6.523  2.0134  0.2738 -0.3386
   65MOL   H34735035   7.312   5.082   6.624 -1.1353 -0.1826  0.8150
   65MOL   H34835036   7.674   5.127   6.295  0.2552  3.3793  0.5171
   65MOL   H34935037   7.660   5.205   6.145 -0.5470 -0.2824  0.4994
   65MOL   H35035038   7.600   5.043   6.161 -0.2025 -0.2669 -0.8170
   65MOL   H35135039   7.371   5.345   6.354  0.1115 -0.4248 -0.7981
   65MOL   H35235040   7.463   5.399   6.226  0.0598 -0.2480  0.7291
   65MOL   C35335041   0.335   5.643   5.860 -0.0411  0.3728 -0.5318
   65MOL   C35435042   0.196   5.636   5.919 -0.0295 -0.5058  0.4268
   65MOL   C35535043   0.138   5.491   5.935  0.1684  0.0438 -0.0625
   65MOL   C35635044   7.811   5.465   5.992 -0.8108  0.2088 -0.1032
   65MOL   C35735045   7.809   5.497   6.147  0.1576 -0.1622 -0.3826
   65MOL   O35835046   7.696   5.458   6.218 -0.3491 -0.1953  0.0047
   65MOL   C35935047   7.715   5.395   6.338  0.2820 -0.7324 -0.2798
   65MOL   O36035048   0.005   5.375   6.399 -0.4543 -0.4200 -0.2154
   65MOL   C36135049   7.577   5.375   6.413  0.1124 -0.5490 -0.2186
   65MOL   C36235050   7.592   5.268   6.529 -0.3292  0.6373  0.1819
   65MOL   C36335051   7.528   5.509   6.481  0.3414  0.2516  0.1003
   65MOL   H36435052   0.356   5.572   5.779 -4.5229 -0.8878 -0.7441
   65MOL   H36535053   0.405   5.627   5.942  2.2986 -2.5965 -2.9887
   65MOL   H36635054   0.355   5.739   5.812  0.8056 -0.4299 -1.8196
   65MOL   H36735055   0.192   5.685   6.017 -0.2738  2.8047 -1.1575
   65MOL   H36835056   0.118   5.682   5.858  1.6394 -0.5985 -1.8408
   65MOL   H36935057   0.214   5.433   5.986 -1.7432 -2.8022 -0.3026
   65MOL   H37035058   0.136   5.446   5.835  1.2652  0.5968 -0.3335
   65MOL   H37135059   7.806   5.356   5.988  1.4692  0.0256  1.0020
   65MOL   H37235060   7.729   5.519   5.945 -1.2336 -1.2312 -1.0555
   65MOL   H37335061   0.088   5.471   6.199  0.7463  3.2951  0.4327
   65MOL   H37435062   7.807   5.605   6.157  1.2846 -0.2443  0.8769
   65MOL   H37535063   7.619   5.163   6.512  0.6262  1.0401 -0.8694
   65MOL   H37635064   7.658   5.304   6.608 -0.0384 -2.3610  1.3815
   65MOL   H37735065   7.498   5.245   6.579  1.0977 -2.0348  1.7488
   65MOL   H37835066   7.548   5.578   6.399  1.1565  1.1760  1.0494
   65MOL   H37935067   7.421   5.495   6.492  0.4241 -0.7402 -0.3524
   65MOL   C38035068   7.362   5.490   7.440 -0.3189  0.2566  1.1286
   65MOL   C38135069   7.386   5.557   7.303 -0.0755 -0.1329 -0.2416
   65MOL   C38235070   7.479   5.487   7.200  0.6828 -0.0905 -0.2900
   65MOL   C38335071   7.469   5.560   7.068 -1.0806 -0.3402  0.1801
   65MOL   C38435072   7.587   5.507   6.983  0.2978  0.3748  0.1576
   65MOL   O38535073   7.593   5.558   6.854 -0.2543  0.5604 -0.1223
   65MOL   C38635074   7.540   5.504   6.746  0.0804  0.2765 -0.5028
   65MOL   O38735075   7.455   5.416   6.747 -0.2155  0.6676  0.6500
   65MOL   C38835076   7.587   5.574   6.610 -0.2001 -0.5815  0.5572
   65MOL   C38935077   7.744   5.570   6.613 -0.2139 -0.1464 -0.8606
   65MOL   C39035078   7.557   5.728   6.614 -0.2382  0.1932 -0.6657
   65MOL   H39135079   7.457   5.476   7.492 -0.5037 -2.2433  0.8346
   65MOL   H39235080   7.303   5.565   7.492  0.3889  1.1125  0.7264
   65MOL   H39335081   7.303   5.400   7.450  0.8858 -0.4575  2.0096
   65MOL   H39435082   7.414   5.661   7.320 -2.8307  0.4228  1.2531
   65MOL   H39535083   7.286   5.571   7.261 -0.0236  0.5702 -0.1398
   65MOL   H39635084   7.579   5.499   7.242  0.6136 -2.7027  0.7134
   65MOL   H39735085   7.460   5.380   7.198 -0.5802  0.1214 -0.0363
   65MOL   H39835086   7.374   5.532   7.024 -1.6443 -1.5224  2.1300
   65MOL   H39935087   7.477   5.669   7.075 -0.0205 -0.2208 -2.4025
   65MOL   H40035088   7.582   5.399   6.975 -1.4855  0.3751  1.0532
   65MOL   H40135089   7.678   5.542   7.032  0.2851  1.5611 -0.6283
   65MOL   H40235090   7.792   5.611   6.524  4.3001 -3.3544 -0.0934
   65MOL   H40335091   7.786   5.473   6.637 -1.7687 -0.1140  2.2482
   65MOL   H40435092   7.783   5.635   6.692 -0.8916  0.2539 -0.8484
   65MOL   H40535093   7.602   5.770   6.524  0.1411  0.1205 -0.5104
   65MOL   H40635094   7.612   5.761   6.702  1.6136  0.1268 -1.7718
   65MOL   C40735095   7.625   5.823   5.880  0.0283 -0.0076  0.0169
   65MOL   C40835096   7.639   5.901   6.017  0.4191 -0.6369  0.0157
   65MOL   C40935097   7.576   5.834   6.140  0.5249  0.3692 -0.0381
   65MOL   C41035098   7.415   5.836   6.151 -0.8394  0.0824  0.1890
   65MOL   C41135099   7.353   5.743   6.256  0.1701 -0.3883  0.7449
   65MOL   O41235100   7.397   5.776   6.387 -0.1418 -0.0140  0.1351
   65MOL   C41335101   7.330   5.740   6.498 -0.0673  0.2542  0.2982
   65MOL   O41435102   7.222   5.687   6.507 -0.1571  0.0148 -0.4615
   65MOL   C41535103   7.407   5.784   6.625 -0.1372 -0.2405 -0.3920
   65MOL   C41635104   7.341   5.732   6.750  0.2502 -0.1011 -0.4166
   65MOL   C41735105   7.418   5.941   6.630  0.2597 -0.1575  0.6364
   65MOL   H41835106   7.661   5.884   5.797 -0.6192  1.5031  0.8272
   65MOL   H41935107   7.662   5.721   5.876  0.4528  0.1713 -0.6710
   65MOL   H42035108   7.518   5.816   5.857 -0.3250 -0.0710  1.6045
   65MOL   H42135109   7.601   6.002   6.018  3.6522  0.6529 -0.6973
   65MOL   H42235110   7.744   5.913   6.045  0.1849 -2.0729  1.5820
   65MOL   H42335111   7.598   5.728   6.133 -0.5765  0.2128 -1.2536
   65MOL   H42435112   7.614   5.864   6.238  1.0309 -0.6057  0.0671
   65MOL   H42535113   7.367   5.808   6.057 -2.0162 -0.0299  0.8079
   65MOL   H42635114   7.378   5.936   6.176  0.4438  1.3980 -2.9589
   65MOL   H42735115   7.244   5.745   6.255  0.0925 -2.8358 -0.1845
   65MOL   H42835116   7.380   5.639   6.237  2.9012  0.5078 -0.5454
   65MOL   H42935117   7.325   5.624   6.743 -0.9313  0.0167  0.3483
   65MOL   H43035118   7.241   5.772   6.766  0.2440  0.3258 -1.4711
   65MOL   H43135119   7.400   5.740   6.841  1.2091 -0.5100 -0.9937
   65MOL   H43235120   7.458   5.967   6.532  0.2552  1.5385  1.0726
   65MOL   H43335121   7.489   5.965   6.709 -1.4526 -0.7976  2.4134
   65MOL   C43435122   6.701   5.724   6.784 -0.0232  0.2006  0.0137
   65MOL   C43535123   6.718   5.879   6.802  0.3061  0.1964 -0.9752
   65MOL   C43635124   6.864   5.922   6.810 -1.1166  0.1003  0.2147
   65MOL   C43735125   6.897   6.056   6.880  0.4824  0.0238  0.3405
   65MOL   C43835126   7.042   6.073   6.915 -0.2073  0.0625  0.9339
   65MOL   O43935127   7.109   6.080   6.793 -0.0847 -0.5715 -0.0054
   65MOL   C44035128   7.235   6.032   6.789 -0.8121  0.0559 -0.9679
   65MOL   O44135129   7.291   5.976   6.881  0.1458 -0.1654  0.2327
   65MOL   C44235130   7.300   6.044   6.650 -0.1138  0.1451  0.9404
   65MOL   C44335131   7.193   6.021   6.535  0.2698 -0.2190  0.3574
   65MOL   C44435132   7.355   6.192   6.609 -0.1700  0.0884 -0.3273
   65MOL   H44535133   6.755   5.688   6.696  0.8202  3.0530 -0.6745
   65MOL   H44635134   6.723   5.669   6.875  3.3081  0.4674 -0.5809
   65MOL   H44735135   6.600   5.693   6.756 -0.6287  1.5482  0.6352
   65MOL   H44835136   6.684   5.938   6.718 -0.6854  0.0468 -0.6842
   65MOL   H44935137   6.656   5.918   6.884 -0.8657  3.2361 -3.2230
   65MOL   H45035138   6.927   5.849   6.861  1.0805  1.1433 -0.9371
   65MOL   H45135139   6.904   5.926   6.708  0.3173 -1.9309  0.6771
   65MOL   H45235140   6.845   6.070   6.975  0.5941 -0.5722  0.4900
   65MOL   H45335141   6.866   6.147   6.828 -0.4694  0.6427  1.9663
   65MOL   H45435142   7.066   5.982   6.970 -0.4180 -1.3637 -1.2895
   65MOL   H45535143   7.059   6.169   6.965  1.2004 -0.3903  1.3469
   65MOL   H45635144   7.121   6.102   6.525 -1.5314 -1.8725 -0.1675
   65MOL   H45735145   7.252   6.000   6.446 -0.9647 -0.8093 -0.3171
   65MOL   H45835146   7.130   5.936   6.562  3.0923 -2.2501  0.7949
   65MOL   H45935147   7.359   6.184   6.500 -1.3519  2.2285 -0.5494
   65MOL   H46035148   7.454   6.191   6.655 -0.5524  0.7255  0.5129
   65MOL   C46135149   7.188   6.902   7.276 -0.0634 -0.1606 -0.0950
   65MOL   C46235150   7.200   6.867   7.124 -0.2431 -0.6374  0.0315
   65MOL   C46335151   7.185   6.715   7.105 -0.2237 -0.4137 -0.2036
   65MOL   C46435152   7.211   6.675   6.959  0.0977  0.6989 -0.2022
   65MOL   C46535153   7.227   6.521   6.953  0.4802 -0.2112  0.1470
   65MOL   O46635154   7.238   6.481   6.815 -0.0242  0.3481  0.3246
   65MOL   C46735155   7.308   6.371   6.784 -0.7753 -0.0994 -0.2912
   65MOL   O46835156   7.378   6.312   6.868 -0.0950 -0.0964 -0.4623
   65MOL   C46935157   7.291   6.331   6.636  0.4985 -0.2582  0.4035
   65MOL   C47035158   7.143   6.348   6.600 -0.1204 -0.6554  0.0473
   65MOL   C47135159   7.367   6.441   6.545 -0.2038 -0.3735  0.3169
   65MOL   H47235160   7.087   6.912   7.315 -0.2365  0.3283 -0.6815
   65MOL   H47335161   7.236   6.997   7.296  0.2869 -0.4272  0.3555
   65MOL   H47435162   7.245   6.830   7.336  1.7678 -0.6261 -2.3450
   65MOL   H47535163   7.307   6.882   7.104  0.0440 -0.9502  1.3007
   65MOL   H47635164   7.140   6.926   7.054 -0.9182 -1.0968  0.2216
   65MOL   H47735165   7.082   6.694   7.136 -1.8137  2.7113 -2.9919
   65MOL   H47835166   7.250   6.659   7.171 -1.3499  1.0473  2.2369
   65MOL   H47935167   7.306   6.717   6.924  0.5987  0.2543  0.6350
   65MOL   H48035168   7.126   6.706   6.898 -2.6448 -0.9647  2.6564
   65MOL   H48135169   7.307   6.493   7.021  1.1744 -1.2351 -1.0771
   65MOL   H48235170   7.133   6.485   6.997  1.0984  0.9976  2.5943
   65MOL   H48335171   7.123   6.332   6.494  1.4427 -1.0819 -0.1994
   65MOL   H48435172   7.105   6.450   6.607 -1.0416 -1.0864  1.4752
   65MOL   H48535173   7.074   6.293   6.663  0.4643  0.7890  2.0135
   65MOL   H48635174   7.331   6.539   6.579  0.9209  0.0874  0.2018
   65MOL   H48735175   7.322   6.431   6.446 -1.4023  0.7028  0.7368
   65MOL   C48835176   0.181   5.942   6.850 -1.0824 -0.2629  0.6662
   65MOL   C48935177   0.046   5.994   6.881 -0.6923  0.1560  0.1612
   65MOL   C49035178   0.017   6.128   6.812 -0.6539 -0.9122  0.1317
   65MOL   C49135179   7.700   6.180   6.864  0.1606 -1.0337  0.4172
   65MOL   C49235180   7.682   6.328   6.823 -0.5790  0.7374 -0.2306
   65MOL   O49335181   7.651   6.338   6.686 -0.4785 -0.0829 -0.4208
   65MOL   C49435182   7.611   6.453   6.641 -0.0046  0.4621  0.2811
   65MOL   O49535183   7.642   6.560   6.691  0.5137  0.0499  0.0041
   65MOL   C49635184   7.524   6.447   6.520  0.1549  0.2070 -0.0397
   65MOL   C49735185   7.533   6.584   6.445  0.2129  0.3171 -0.5756
   65MOL   C49835186   7.555   6.321   6.423 -0.1215 -0.5790  0.0677
   65MOL   H49935187   0.261   6.000   6.897 -2.1959  1.7107  0.2058
   65MOL   H50035188   0.189   5.838   6.882 -1.3329 -0.1636  1.0518
   65MOL   H50135189   0.193   5.922   6.744  0.0974  0.8260  0.5856
   65MOL   H50235190   0.042   6.006   6.990 -2.1516 -2.5944  0.4394
   65MOL   H50335191   7.790   5.916   6.854 -2.3376  1.8447 -0.5679
   65MOL   H50435192   0.091   6.204   6.837  1.0114 -1.4102 -2.9576
   65MOL   H50535193   0.024   6.126   6.703  0.7525 -2.4655  0.2188
   65MOL   H50635194   7.696   6.185   6.973 -1.2828 -1.5257  0.3929
   65MOL   H50735195   7.614   6.118   6.842  0.1551 -0.5748 -0.9358
   65MOL   H50835196   7.601   6.361   6.888 -0.0908  1.8316 -0.1722
   65MOL   H50935197   7.771   6.388   6.839 -0.3223  0.6726 -1.3535
   65MOL   H51035198   7.480   6.574   6.350  0.0614 -1.8668 -0.2924
   65MOL   H51135199   7.636   6.604   6.416 -0.8653  1.5447 -3.7836
   65MOL   H51235200   7.492   6.669   6.501  1.9500  0.0603  1.1219
   65MOL   H51335201   7.472   6.320   6.352  0.8196 -0.6334 -1.0367
   65MOL   H51435202   7.562   6.222   6.467 -1.5906 -0.5319  0.4463
   65MOL   C51535203   0.486   6.380   6.803  0.1409  0.0266 -0.4818
   65MOL   C51635204   0.372   6.371   6.703 -0.3400 -0.4173  0.2011
   65MOL   C51735205   0.280   6.492   6.725 -0.1435 -0.0341  0.4456
   65MOL   C51835206   0.154   6.490   6.643  0.8247 -0.0194  0.9517
   65MOL   C51935207   0.166   6.485   6.488 -0.3131 -0.1688 -0.2584
   65MOL   O52035208   0.038   6.465   6.423  0.4801  0.5009 -0.2994
   65MOL   C52135209   0.001   6.339   6.402  0.2474  0.2428  0.2796
   65MOL   O52235210   0.055   6.238   6.445 -0.5625 -0.1014 -0.0673
   65MOL   C52335211   7.678   6.323   6.330  0.3671 -0.5601  0.5594
   65MOL   C52435212   7.667   6.418   6.205  0.1039 -0.0053 -0.8013
   65MOL   C52535213   7.686   6.186   6.259 -0.1551 -0.8106  0.4943
   65MOL   H52635214   0.539   6.476   6.808 -0.8087  0.4551  2.7724
   65MOL   H52735215   0.464   6.357   6.908  0.8918  1.2915 -0.0296
   65MOL   H52835216   0.557   6.304   6.771 -0.4335 -0.1203 -1.4178
   65MOL   H52935217   0.417   6.370   6.604 -0.7907 -0.3017 -0.0096
   65MOL   H53035218   0.298   6.292   6.710 -1.5952  0.3468 -3.5089
   65MOL   H53135219   0.260   6.511   6.830 -0.2293 -0.7316  0.5605
   65MOL   H53235220   0.326   6.582   6.685  0.6630  0.3043  2.0915
   65MOL   H53335221   0.096   6.577   6.673  0.5540  0.1806 -0.1491
   65MOL   H53435222   0.100   6.401   6.677 -0.5039  0.5386  0.3075
   65MOL   H53535223   0.205   6.579   6.450 -0.8020  0.1886  0.1260
   65MOL   H53635224   0.234   6.404   6.460 -1.5300 -1.6162  0.8791
   65MOL   H53735225   7.706   6.519   6.215  2.0774 -0.8079 -0.1781
   65MOL   H53835226   7.567   6.428   6.162  0.4111 -1.1173 -1.7950
   65MOL   H53935227   7.736   6.378   6.131 -1.8638 -2.8433 -1.1792
   65MOL   H54035228   7.594   6.180   6.201 -1.2163  1.3079  1.8652
   65MOL   H54135229   7.669   6.110   6.335  0.4206 -0.3788  1.0623
   65MOL   H54235230   7.780   6.172   6.206  0.6398  2.7189  0.8460
   66MOL     C135231   0.481   4.410   3.755  0.0268  0.0951 -0.3488
   66MOL     C235232   0.537   4.320   3.867 -0.1384  0.7914 -0.6487
   66MOL     C335233   0.695   4.329   3.875 -0.1186  0.2054  0.5128
   66MOL     C435234   0.776   4.226   3.801  0.0552  0.2207  0.6135
   66MOL     C535235   0.758   4.212   3.651  0.0856  0.0679 -1.0651
   66MOL     O635236   0.833   4.316   3.590  0.0549 -0.1458  0.1363
   66MOL     C735237   0.920   4.294   3.480  0.2867  0.3422  0.2479
   66MOL     O835238   0.930   4.192   3.411 -0.1447 -0.3654  0.4882
   66MOL     C935239   1.020   4.412   3.444 -0.5362  0.1568  0.4854
   66MOL    C1035240   1.088   4.441   3.585 -0.3951 -0.3542 -0.7753
   66MOL    C1135241   0.932   4.525   3.375 -0.1062  0.3888  0.6039
   66MOL    H1235242   0.374   4.387   3.763  0.2464 -0.5453  0.8520
   66MOL    H1335243   0.517   4.381   3.657 -0.6817 -3.2241  0.3295
   66MOL    H1435244   0.490   4.519   3.763 -3.8518  0.4385  0.7386
   66MOL    H1535245   0.500   4.349   3.965 -2.1458  0.8455 -1.4065
   66MOL    H1635246   0.507   4.217   3.847  1.9114 -0.1072  0.7076
   66MOL    H1735247   0.744   4.425   3.856 -3.4695  1.3706 -3.0764
   66MOL    H1835248   0.701   4.319   3.983  0.3213 -1.0594  0.3771
   66MOL    H1935249   0.738   4.134   3.846  0.3026  1.0316  2.5244
   66MOL    H2035250   0.880   4.234   3.830  0.4915 -2.1127 -0.1850
   66MOL    H2135251   0.776   4.107   3.624  1.3415  0.1882 -0.7667
   66MOL    H2235252   0.654   4.217   3.619 -0.3161 -1.2237 -0.0331
   66MOL    H2335253   1.089   4.352   3.648 -1.3495 -0.5760 -1.0655
   66MOL    H2435254   1.040   4.519   3.643 -2.5128 -1.9381 -0.3195
   66MOL    H2535255   1.192   4.475   3.582  0.0497 -1.6198 -0.4011
   66MOL    H2635256   0.930   4.614   3.437  0.5166  0.7465  0.1185
   66MOL    H2735257   0.828   4.494   3.378  0.3129 -1.0886  0.2817
   66MOL    H2835258   1.085   4.362   3.373  0.7203  1.4469  0.7251
   66MOL    C2935259   0.882   5.267   2.780  0.6278 -0.1158 -0.3173
   66MOL    C3035260   0.873   5.112   2.766  0.1408 -0.0532 -0.0982
   66MOL    C3135261   0.856   5.035   2.894  1.3090 -0.1167  0.2704
   66MOL    C3235262   0.874   4.882   2.879 -0.1538  0.4029  0.1224
   66MOL    C3335263   0.800   4.810   2.988  0.1540  0.2710 -0.3255
   66MOL    O3435264   0.878   4.708   3.051  0.3444 -0.0300  0.4907
   66MOL    C3535265   0.870   4.679   3.183 -0.3635 -0.9313 -0.3837
   66MOL    O3635266   0.805   4.743   3.266 -0.0074 -0.6360  0.3057
   66MOL    C3735267   0.957   4.561   3.225  0.1244  0.1547 -0.0533
   66MOL    C3835268   0.906   4.440   3.139  0.3020 -0.1337  0.2257
   66MOL    C3935269   1.109   4.574   3.190  0.6501  0.0541  0.2083
   66MOL    H4035270   0.974   5.310   2.821  0.6828  0.0347 -0.5958
   66MOL    H4135271   0.875   5.313   2.681  0.2032 -1.5000 -0.9318
   66MOL    H4235272   0.802   5.314   2.837 -0.3489 -1.1330 -0.8497
   66MOL    H4335273   0.961   5.068   2.719  0.4526 -0.2935  0.6984
   66MOL    H4435274   0.790   5.104   2.695 -1.1330  2.0022  1.1323
   66MOL    H4535275   0.760   5.053   2.942  2.9883  1.2037  3.2672
   66MOL    H4635276   0.926   5.051   2.976 -0.9652 -0.9319  2.4287
   66MOL    H4735277   0.849   4.844   2.780 -0.8217  1.6726 -0.2011
   66MOL    H4835278   0.980   4.855   2.876 -0.5694 -1.3833  0.8370
   66MOL    H4935279   0.704   4.778   2.947 -1.0588  0.7829  2.0335
   66MOL    H5035280   0.770   4.884   3.062  0.6633 -0.4684  0.6370
   66MOL    H5135281   0.807   4.407   3.172  0.1955  1.1889  1.2778
   66MOL    H5235282   0.971   4.353   3.149  0.0925 -0.5349 -1.7972
   66MOL    H5335283   0.897   4.461   3.033  0.6893 -0.1914  0.1831
   66MOL    H5435284   1.113   4.572   3.081  0.5334  2.3582  0.1336
   66MOL    H5535285   1.162   4.482   3.216 -2.1617 -0.9751  2.5705
   66MOL    C5635286   1.613   4.209   2.766 -0.2979 -0.2245 -0.1236
   66MOL    C5735287   1.480   4.293   2.783 -0.1214  0.1186 -0.1371
   66MOL    C5835288   1.469   4.351   2.929  0.2956 -0.0545  0.1341
   66MOL    C5935289   1.551   4.475   2.959  0.2115  0.7660 -0.1177
   66MOL    C6035290   1.519   4.531   3.099 -0.0609 -0.0183  0.7338
   66MOL    O6135291   1.390   4.602   3.108  0.6644  0.4207 -0.4832
   66MOL    C6235292   1.342   4.628   3.235 -0.5890  0.4823  0.2179
   66MOL    O6335293   1.395   4.601   3.340 -0.2656 -0.4670  0.6977
   66MOL    C6435294   1.205   4.696   3.233 -0.4483  0.2254 -0.1710
   66MOL    C6535295   1.168   4.747   3.372 -0.4815 -0.0568 -0.0824
   66MOL    C6635296   1.213   4.810   3.123  0.0641  0.0444  0.2499
   66MOL    H6735297   1.628   4.209   2.658 -0.7104  1.0701 -0.1941
   66MOL    H6835298   1.621   4.116   2.822  1.2058  0.3899  0.7020
   66MOL    H6935299   1.691   4.273   2.806  0.6014 -1.3385 -0.0924
   66MOL    H7035300   1.475   4.370   2.706 -1.3552  0.0715 -0.1056
   66MOL    H7135301   1.394   4.227   2.786  0.6982 -0.9438  0.4254
   66MOL    H7235302   1.363   4.364   2.950  0.3197  2.7334 -1.2356
   66MOL    H7335303   1.496   4.273   3.000  1.7289 -0.5357 -0.9292
   66MOL    H7435304   1.532   4.557   2.889 -0.6605 -1.0053 -2.0065
   66MOL    H7535305   1.656   4.449   2.957  0.1775  0.1126  3.5100
   66MOL    H7635306   1.518   4.449   3.172 -0.3194 -1.2543 -0.6275
   66MOL    H7735307   1.590   4.603   3.139  1.2742 -1.8204  1.6823
   66MOL    H7835308   1.082   4.813   3.378 -1.9572 -1.7047 -2.3323
   66MOL    H7935309   1.253   4.782   3.431  1.0852 -2.2941 -0.9534
   66MOL    H8035310   1.135   4.659   3.426  0.1816 -0.8491 -0.9403
   66MOL    H8135311   1.106   4.822   3.103 -0.0910  0.5339  1.3404
   66MOL    H8235312   1.248   4.763   3.031  0.8993 -1.0072  1.0992
   66MOL    C8335313   0.564   5.239   3.325 -0.1912 -0.8544  0.2345
   66MOL    C8435314   0.678   5.333   3.268 -0.3920 -0.3642 -1.1234
   66MOL    C8535315   0.820   5.303   3.327  0.5681 -0.0683 -0.0448
   66MOL    C8635316   0.886   5.175   3.277  0.0641 -0.1896  0.1521
   66MOL    C8735317   1.032   5.157   3.319 -0.4938 -0.1591  0.2234
   66MOL    O8835318   1.096   5.058   3.231 -0.4352 -0.1654  0.5791
   66MOL    C8935319   1.222   5.041   3.249  0.3669 -0.2155  0.6087
   66MOL    O9035320   1.292   5.097   3.335 -0.2035  0.4077 -0.5661
   66MOL    C9135321   1.286   4.947   3.145  0.5356  0.5524 -0.2586
   66MOL    C9235322   1.435   4.917   3.193 -0.0778  0.6448 -0.3717
   66MOL    C9335323   1.280   5.013   2.999 -1.1060 -0.2854 -0.6059
   66MOL    H9435324   0.467   5.253   3.278  0.9384  1.9306 -1.3914
   66MOL    H9535325   0.594   5.134   3.326 -1.2604 -1.1626  1.8396
   66MOL    H9635326   0.536   5.278   3.423 -5.0904  0.1847 -1.4213
   66MOL    H9735327   0.639   5.435   3.275  0.5068 -0.1474  1.2043
   66MOL    H9835328   0.676   5.308   3.162  1.8522 -0.5654 -1.1422
   66MOL    H9935329   0.813   5.307   3.436  0.6434  2.0528 -0.0815
   66MOL   H10035330   0.890   5.385   3.308 -1.0712  1.5449  0.6266
   66MOL   H10135331   0.879   5.185   3.169 -0.1116 -1.2606  0.0488
   66MOL   H10235332   0.831   5.084   3.304 -0.4284  0.7735  2.4871
   66MOL   H10335333   1.026   5.137   3.426 -1.4027  1.9069  0.5643
   66MOL   H10435334   1.070   5.258   3.305  2.3599 -1.2337 -0.1946
   66MOL   H10535335   1.485   4.860   3.115  0.7429 -0.4291  0.8982
   66MOL   H10635336   1.449   4.865   3.288  0.3005 -0.5738 -1.0784
   66MOL   H10735337   1.482   5.015   3.197  1.3872 -0.0876  1.0219
   66MOL   H10835338   1.343   4.948   2.939 -1.1141 -0.0927 -0.8222
   66MOL   H10935339   1.182   4.984   2.961 -1.0044 -2.1059  0.4894
   66MOL   C11035340   2.094   5.307   2.688 -0.2668 -0.3534  0.2439
   66MOL   C11135341   1.943   5.252   2.683  0.4343 -0.3731  0.4991
   66MOL   C11235342   1.896   5.232   2.824  0.6578 -0.3587 -1.5364
   66MOL   C11335343   1.744   5.217   2.831 -0.5899  0.2306  0.2521
   66MOL   C11435344   1.689   5.173   2.966  1.1959  0.2450  0.3912
   66MOL   O11535345   1.550   5.130   2.972  0.3565 -0.3700  0.0901
   66MOL   C11635346   1.451   5.214   2.959  0.8609  0.3228  0.3616
   66MOL   O11735347   1.476   5.339   2.951  0.3870 -0.1203  0.7320
   66MOL   C11835348   1.308   5.159   2.947 -0.3357  0.1673  0.0358
   66MOL   C11935349   1.214   5.263   3.024  0.1656  0.1387  0.2767
   66MOL   C12035350   1.258   5.167   2.796 -0.3956 -0.5609 -0.9710
   66MOL   H12135351   2.117   5.348   2.590  0.6358 -0.9022  0.2343
   66MOL   H12235352   2.122   5.382   2.762  1.9710 -0.6646 -0.2511
   66MOL   H12335353   2.166   5.228   2.707 -0.7974 -1.1793 -1.1090
   66MOL   H12435354   1.878   5.329   2.640  2.1492 -0.0937 -1.7008
   66MOL   H12535355   1.935   5.165   2.618  0.7971  0.8645 -1.2336
   66MOL   H12635356   1.943   5.149   2.877 -0.6694 -0.3356 -0.3273
   66MOL   H12735357   1.927   5.320   2.880 -1.4084 -0.1658 -0.6588
   66MOL   H12835358   1.723   5.147   2.749  1.2786  0.6610 -0.6187
   66MOL   H12935359   1.692   5.305   2.794 -2.0767 -0.6531  0.1918
   66MOL   H13035360   1.747   5.089   3.004  2.7815  1.4079  0.5616
   66MOL   H13135361   1.702   5.246   3.045 -0.3832  0.3547  0.5756
   66MOL   H13235362   1.109   5.233   3.023 -0.6849  2.9702  0.6923
   66MOL   H13335363   1.243   5.256   3.129 -0.7873 -0.7979  0.4882
   66MOL   H13435364   1.217   5.363   2.982 -1.3661  0.9254  1.9832
   66MOL   H13535365   1.175   5.096   2.786  0.4849 -2.3573  3.5744
   66MOL   H13635366   1.190   5.251   2.781  0.0144 -0.0953 -0.1840
   66MOL   C13735367   1.503   4.577   2.309  0.4119  0.0170 -0.2317
   66MOL   C13835368   1.607   4.623   2.411 -0.4901  0.6007 -0.1071
   66MOL   C13935369   1.553   4.739   2.500  0.4673 -0.4472  0.5403
   66MOL   C14035370   1.424   4.696   2.582  0.1742 -0.5505  0.0224
   66MOL   C14135371   1.408   4.771   2.713  0.0456  0.0548 -0.0215
   66MOL   O14235372   1.353   4.899   2.698  0.8595  0.0557  0.4659
   66MOL   C14335373   1.428   5.008   2.675  0.5750 -0.4434 -0.1152
   66MOL   O14435374   1.550   4.997   2.665 -0.0413 -0.3619  0.6511
   66MOL   C14535375   1.345   5.140   2.667 -0.7388 -0.0666  0.1941
   66MOL   C14635376   1.237   5.113   2.554  0.1011 -0.1373  0.1154
   66MOL   C14735377   1.429   5.270   2.627 -0.1716 -0.6405 -0.1985
   66MOL   H14835378   1.427   4.530   2.372  1.8810 -1.2157  0.6505
   66MOL   H14935379   1.539   4.495   2.246 -0.7311 -0.1231 -0.7060
   66MOL   H15035380   1.438   4.644   2.252 -0.4441 -0.8501 -0.2844
   66MOL   H15135381   1.698   4.663   2.367 -1.0549  0.8848 -1.0306
   66MOL   H15235382   1.646   4.548   2.479  2.5566  1.8072 -0.4391
   66MOL   H15335383   1.624   4.789   2.566  1.7735  2.8470 -3.1641
   66MOL   H15435384   1.523   4.825   2.440 -1.5403 -1.5657 -0.1081
   66MOL   H15535385   1.346   4.720   2.509 -0.6869 -0.5472  0.9351
   66MOL   H15635386   1.435   4.588   2.592  1.4740 -0.6322 -1.9155
   66MOL   H15735387   1.504   4.765   2.763  0.5595 -0.6284 -1.0519
   66MOL   H15835388   1.340   4.716   2.778  0.3284 -0.0830  0.1574
   66MOL   H15935389   1.278   5.087   2.456 -2.8792  2.2358 -1.8603
   66MOL   H16035390   1.167   5.196   2.539  0.2221 -0.0797 -0.1224
   66MOL   H16135391   1.157   5.044   2.583 -0.0736 -0.9383 -2.1712
   66MOL   H16235392   1.370   5.354   2.664  1.5854  0.0594  1.0600
   66MOL   H16335393   1.512   5.263   2.696 -1.8955  0.9173  2.0854
   66MOL   C16435394   0.805   5.692   2.555 -0.2340  0.1484  0.1423
   66MOL   C16535395   0.791   5.558   2.480  0.1014 -0.2462  0.2340
   66MOL   C16635396   0.912   5.518   2.391  0.1719 -0.6306 -0.2266
   66MOL   C16735397   1.045   5.482   2.466  0.3082 -0.2297 -0.2527
   66MOL   C16835398   1.148   5.428   2.371 -0.0506  0.2663 -0.5523
   66MOL   O16935399   1.261   5.396   2.442 -0.6934  0.1220 -0.1680
   66MOL   C17035400   1.366   5.338   2.387  0.0086 -0.0455 -0.4369
   66MOL   O17135401   1.373   5.305   2.268 -0.0575 -0.3318  0.0567
   66MOL   C17235402   1.484   5.318   2.487 -0.0647  0.4211 -0.4109
   66MOL   C17335403   1.581   5.211   2.429 -0.7601 -0.1300  0.3385
   66MOL   C17435404   1.561   5.458   2.518 -0.2724 -0.5148 -0.6332
   66MOL   H17535405   0.716   5.704   2.617  0.1157 -0.8121  0.8548
   66MOL   H17635406   0.805   5.778   2.489 -0.1170  0.1877  0.1940
   66MOL   H17735407   0.887   5.706   2.626  1.1758 -2.2921 -0.9366
   66MOL   H17835408   0.697   5.567   2.426  0.3381  0.8738 -0.0085
   66MOL   H17935409   0.764   5.482   2.553  1.4789 -0.8962  0.0728
   66MOL   H18035410   0.878   5.435   2.330  0.9622 -1.9761  1.1267
   66MOL   H18135411   0.932   5.601   2.323 -0.1340 -0.8562 -0.5965
   66MOL   H18235412   1.012   5.400   2.530  1.9229 -0.8434 -0.1887
   66MOL   H18335413   1.071   5.558   2.540  0.0214  0.7357 -1.1328
   66MOL   H18435414   1.172   5.489   2.283  0.2930 -0.2800 -0.8415
   66MOL   H18535415   1.114   5.333   2.328  0.0227 -0.7133  1.5116
   66MOL   H18635416   1.611   5.235   2.327 -0.4211  3.8246  1.2785
   66MOL   H18735417   1.523   5.118   2.431 -1.0490  0.0190 -0.6436
   66MOL   H18835418   1.667   5.194   2.493 -1.1634  0.4487  1.0328
   66MOL   H18935419   1.494   5.519   2.579 -2.0480 -0.1781 -2.8321
   66MOL   H19035420   1.648   5.443   2.582 -0.1898 -0.1603 -0.6627
   66MOL   C19135421   1.364   6.316   2.187  0.2449  0.1733  0.1912
   66MOL   C19235422   1.466   6.202   2.199 -1.2050  0.2993  0.0364
   66MOL   C19335423   1.406   6.061   2.189  0.3917  0.1868 -1.1978
   66MOL   C19435424   1.504   5.957   2.212 -0.4281 -0.2327 -0.5357
   66MOL   C19535425   1.451   5.816   2.188  0.1472  0.3235 -0.6020
   66MOL   O19635426   1.541   5.725   2.249 -0.1267  0.2164  0.4812
   66MOL   C19735427   1.503   5.650   2.355  0.8233  0.5626  0.2071
   66MOL   O19835428   1.388   5.646   2.399  0.3498  0.2578  0.1594
   66MOL   C19935429   1.613   5.567   2.417 -0.1982  0.7811  0.7499
   66MOL   C20035430   1.694   5.505   2.301 -0.3604  0.3854 -0.1403
   66MOL   C20135431   1.728   5.666   2.472  0.1695  0.2691 -0.3420
   66MOL   H20235432   1.292   6.319   2.269 -1.2652 -1.0954 -1.0613
   66MOL   H20335433   1.417   6.410   2.179 -0.0606  0.3069 -0.2429
   66MOL   H20435434   1.302   6.301   2.099  1.7390 -2.7578 -0.4409
   66MOL   H20535435   1.510   6.215   2.298 -0.8140  1.0845 -0.2387
   66MOL   H20635436   1.549   6.221   2.131  1.2380 -0.0694  2.8189
   66MOL   H20735437   1.351   6.044   2.097 -3.3064 -0.3139  1.0344
   66MOL   H20835438   1.337   6.053   2.273  1.1224 -1.3856 -0.7348
   66MOL   H20935439   1.589   5.972   2.145  0.7161  0.4716  1.0571
   66MOL   H21035440   1.553   5.961   2.309 -0.2129  0.0917 -0.6546
   66MOL   H21135441   1.347   5.808   2.220  0.5430 -0.6351  0.4693
   66MOL   H21235442   1.453   5.799   2.080  0.9281 -1.9611 -0.2455
   66MOL   H21335443   1.752   5.422   2.341 -1.4323 -1.0357 -1.4471
   66MOL   H21435444   1.767   5.568   2.251  0.4152  0.7885  1.4904
   66MOL   H21535445   1.628   5.465   2.223 -0.4521  3.0771 -1.5078
   66MOL   H21635446   1.760   5.731   2.390  0.6428 -0.0716 -0.4207
   66MOL   H21735447   1.814   5.601   2.486 -1.3507 -1.7557 -0.2175
   66MOL   C21835448   1.636   5.833   3.386  0.1150 -0.4339  0.3569
   66MOL   C21935449   1.733   5.724   3.334 -0.2894 -0.2644  0.6298
   66MOL   C22035450   1.674   5.652   3.206  0.2860  0.2636 -0.1229
   66MOL   C22135451   1.686   5.728   3.076 -0.7554  0.5495 -0.0929
   66MOL   C22235452   1.644   5.639   2.959  0.1328  0.1465 -0.1481
   66MOL   O22335453   1.653   5.719   2.839 -0.2798  0.1116 -0.5724
   66MOL   C22435454   1.722   5.669   2.737  0.0762  0.6721 -0.1927
   66MOL   O22535455   1.769   5.554   2.736 -0.0065 -0.1718  0.4753
   66MOL   C22635456   1.717   5.753   2.603 -0.7585 -0.1665  0.2839
   66MOL   C22735457   1.583   5.833   2.596 -0.4958  0.3258 -0.5242
   66MOL   C22835458   1.832   5.856   2.596  0.3043 -0.2610  0.1745
   66MOL   H22935459   1.626   5.916   3.317  3.5924 -0.1907  0.0548
   66MOL   H23035460   1.531   5.802   3.387  0.2501 -0.8813  1.4891
   66MOL   H23135461   1.664   5.868   3.485 -1.1832  0.0485  0.5568
   66MOL   H23235462   1.769   5.662   3.416 -1.7267  0.1749  1.6118
   66MOL   H23335463   1.827   5.771   3.303  1.4247 -1.0658  4.3493
   66MOL   H23435464   1.571   5.622   3.227  0.8733 -2.2474 -0.6410
   66MOL   H23535465   1.726   5.557   3.194  2.0525  1.5126 -2.7605
   66MOL   H23635466   1.627   5.820   3.072 -0.2113  0.9165  0.2793
   66MOL   H23735467   1.791   5.757   3.075 -0.3846 -0.7140  0.7032
   66MOL   H23835468   1.543   5.599   2.954 -0.2988  1.3112 -1.0796
   66MOL   H23935469   1.706   5.549   2.957 -0.0044  0.0792 -2.0576
   66MOL   H24035470   1.579   5.910   2.673 -0.3806 -0.3130  0.1255
   66MOL   H24135471   1.501   5.762   2.607  1.7599 -2.0107  1.9559
   66MOL   H24235472   1.568   5.887   2.502 -0.1685 -1.4799 -1.6294
   66MOL   H24335473   1.810   5.938   2.665  0.4393  0.6466 -0.8538
   66MOL   H24435474   1.818   5.899   2.497  0.2783 -0.0731  0.2598
   66MOL   C24535475   2.029   6.191   2.014  0.4657  0.1266 -0.8411
   66MOL   C24635476   1.953   6.055   2.013  0.1640  0.1820 -0.0744
   66MOL   C24735477   2.010   5.967   2.126  0.0249 -0.9207  0.2798
   66MOL   C24835478   1.951   5.834   2.137  0.1183  0.4761 -0.1339
   66MOL   C24935479   2.017   5.747   2.252 -0.2912  0.2159  0.5136
   66MOL   O25035480   2.006   5.810   2.375  0.2214  0.2269  0.5754
   66MOL   C25135481   2.047   5.745   2.494 -0.3516 -0.6431 -0.0721
   66MOL   O25235482   2.102   5.638   2.494 -0.2166  0.4342 -0.3856
   66MOL   C25335483   1.989   5.825   2.612 -0.2376  0.5303  0.3130
   66MOL   C25435484   2.027   5.754   2.744  0.3563 -0.4160 -0.0770
   66MOL   C25535485   2.056   5.972   2.602 -0.1684  0.3393  0.0179
   66MOL   H25635486   2.137   6.188   1.999  0.7342 -0.3879  1.0107
   66MOL   H25735487   1.984   6.275   1.961  0.5264  0.1675 -0.8260
   66MOL   H25835488   2.033   6.226   2.118 -0.8331 -1.9166 -0.0644
   66MOL   H25935489   1.848   6.075   2.033  0.3943  1.1181  0.2035
   66MOL   H26035490   1.957   5.999   1.919  3.3626 -0.0471  0.1281
   66MOL   H26135491   1.998   6.014   2.224  0.7852 -0.7483  0.2966
   66MOL   H26235492   2.118   5.964   2.109 -0.0373  3.2082 -1.3277
   66MOL   H26335493   1.844   5.842   2.159 -0.4488  0.2185 -2.6329
   66MOL   H26435494   1.963   5.785   2.040  0.9394  1.1988 -0.4053
   66MOL   H26535495   1.960   5.655   2.266 -0.6696  0.0254 -2.1043
   66MOL   H26635496   2.123   5.728   2.240 -0.2599  0.1279  0.8962
   66MOL   H26735497   1.972   5.787   2.832 -2.2665  0.2618 -1.9106
   66MOL   H26835498   2.005   5.647   2.743  1.4477 -0.6491 -2.1350
   66MOL   H26935499   2.136   5.747   2.750  0.8377  2.8307 -2.9679
   66MOL   H27035500   2.042   6.008   2.501 -1.8048  2.0900  0.8404
   66MOL   H27135501   1.991   6.049   2.643 -0.1487  0.3477  0.0327
   66MOL   C27235502   1.647   6.121   2.873 -1.0221  0.2911 -0.2804
   66MOL   C27335503   1.751   6.057   2.957  0.1324 -0.3289 -0.6245
   66MOL   C27435504   1.864   6.152   2.999  0.4750 -0.0239 -0.4426
   66MOL   C27535505   1.975   6.061   3.069  0.5387  1.0128  0.9216
   66MOL   C27635506   2.111   6.076   3.004 -0.5781 -0.1183  0.5691
   66MOL   O27735507   2.105   6.056   2.864  0.6410  0.2483  0.6548
   66MOL   C27835508   2.217   6.005   2.804  0.2897  0.7045 -0.1344
   66MOL   O27935509   2.297   5.939   2.870  0.6888  0.5088  0.3466
   66MOL   C28035510   2.208   6.014   2.645  0.9291  0.6576  0.1003
   66MOL   C28135511   2.316   5.922   2.585  0.3916  0.0692 -0.1107
   66MOL   C28235512   2.227   6.161   2.591  0.2802  0.0418 -0.1665
   66MOL   H28335513   1.561   6.056   2.884  0.3122 -1.1274  2.2462
   66MOL   H28435514   1.614   6.217   2.912  0.1811  0.6254 -0.0556
   66MOL   H28535515   1.682   6.135   2.770 -0.3007 -1.0640 -0.2247
   66MOL   H28635516   1.705   6.017   3.046  1.2208  1.0226  0.5789
   66MOL   H28735517   1.791   5.977   2.894 -0.6900  0.5648 -2.3176
   66MOL   H28835518   1.906   6.212   2.918  1.2306  1.8499  1.2841
   66MOL   H28935519   1.812   6.215   3.072 -0.7891  2.3547 -3.2901
   66MOL   H29035520   1.974   6.085   3.175 -0.0843 -1.2743  1.4614
   66MOL   H29135521   1.933   5.960   3.067  0.7693  0.9244  0.4147
   66MOL   H29235522   2.180   6.015   3.062  1.6312  0.5368 -1.2802
   66MOL   H29335523   2.154   6.175   3.019 -0.1393 -0.2348  0.0671
   66MOL   H29435524   2.414   5.923   2.634  0.4802  1.5500 -0.3062
   66MOL   H29535525   2.297   5.815   2.597  1.1355  0.1123  1.7797
   66MOL   H29635526   2.323   5.951   2.480 -0.3225  3.1930  0.6560
   66MOL   H29735527   2.231   6.144   2.484 -2.7653  0.9818 -0.4758
   66MOL   H29835528   2.132   6.214   2.600 -0.5775 -1.3993 -0.6833
   66MOL   C29935529   2.713   6.614   3.152 -0.0912  0.5361  0.5326
   66MOL   C30035530   2.562   6.635   3.178 -0.4248 -0.4490  0.2243
   66MOL   C30135531   2.484   6.686   3.055  0.1793 -0.1122 -0.5543
   66MOL   C30235532   2.484   6.588   2.939  0.2132 -0.4450 -0.4401
   66MOL   C30335533   2.362   6.490   2.949 -0.3174 -0.1093 -0.5158
   66MOL   O30435534   2.390   6.395   2.845 -0.4597  0.9310  0.3457
   66MOL   C30535535   2.287   6.337   2.783  0.2476  0.0886  0.4405
   66MOL   O30635536   2.170   6.338   2.828 -0.7149  0.6570 -0.0861
   66MOL   C30735537   2.327   6.273   2.651  0.5599 -1.3081 -0.5703
   66MOL   C30835538   2.464   6.199   2.687  0.8366 -0.4855 -0.0162
   66MOL   C30935539   2.362   6.377   2.544 -0.2007  0.2511 -0.0849
   66MOL   H31035540   2.740   6.512   3.123  0.4204  0.0417  2.6372
   66MOL   H31135541   2.762   6.626   3.249  0.4795 -3.0963  0.7964
   66MOL   H31235542   2.752   6.700   3.098  0.4266  0.3393  0.5782
   66MOL   H31335543   2.555   6.704   3.262  3.1826 -0.2819  0.4271
   66MOL   H31435544   2.521   6.545   3.223 -1.0888  0.4660  1.4915
   66MOL   H31535545   2.520   6.785   3.029 -0.2344  0.4585  1.0043
   66MOL   H31635546   2.387   6.702   3.101  0.3387 -2.4751  0.7059
   66MOL   H31735547   2.579   6.537   2.922  1.3170  1.4312 -0.1204
   66MOL   H31835548   2.458   6.650   2.853  1.5991  1.4953  0.5200
   66MOL   H31935549   2.367   6.429   3.040 -1.7793  3.9632  2.4698
   66MOL   H32035550   2.276   6.553   2.931  0.3841  1.5936  1.8455
   66MOL   H32135551   2.543   6.274   2.680 -0.9907  1.2075 -4.1220
   66MOL   H32235552   2.478   6.149   2.783  2.1845 -0.3619 -0.1399
   66MOL   H32335553   2.497   6.131   2.609  0.3505 -1.1510  0.3592
   66MOL   H32435554   2.392   6.319   2.457 -2.7221 -1.4800  0.1710
   66MOL   H32535555   2.450   6.429   2.581 -0.7019  0.2767  1.0832
   66MOL   C32635556   1.622   6.504   1.961 -0.1635  0.1176 -0.5015
   66MOL   C32735557   1.767   6.499   2.023  0.1315  0.3936  1.2274
   66MOL   C32835558   1.762   6.475   2.173 -0.2511  0.6933 -0.3595
   66MOL   C32935559   1.901   6.486   2.233 -0.0831 -0.5717 -0.0465
   66MOL   C33035560   1.911   6.421   2.364  0.7992 -0.2407 -0.3557
   66MOL   O33135561   2.031   6.475   2.421 -0.1770 -0.6290 -0.7385
   66MOL   C33235562   2.157   6.426   2.394 -0.3185 -0.6310  0.1557
   66MOL   O33335563   2.180   6.341   2.311 -0.0294  0.3642 -0.0442
   66MOL   C33435564   2.273   6.493   2.483 -0.1137  0.2930 -0.1652
   66MOL   C33535565   2.217   6.580   2.591 -0.2047  0.0360  0.0341
   66MOL   C33635566   2.365   6.573   2.379 -0.8128  0.6332 -0.7641
   66MOL   H33735567   1.570   6.411   1.988  1.9797 -1.2670 -1.0131
   66MOL   H33835568   1.614   6.516   1.853  1.1122  1.8355 -0.4182
   66MOL   H33935569   1.561   6.580   2.010 -0.4476 -0.5684  0.2250
   66MOL   H34035570   1.821   6.590   1.996 -1.0299  0.0081 -2.6289
   66MOL   H34135571   1.815   6.412   1.979 -0.9798 -0.6139  1.9732
   66MOL   H34235572   1.726   6.374   2.190 -1.0948  0.9371 -0.6872
   66MOL   H34335573   1.702   6.558   2.210  1.0512  0.6666  1.9386
   66MOL   H34435574   1.923   6.592   2.238  2.7621 -1.1681  0.7904
   66MOL   H34535575   1.986   6.449   2.174  0.0710 -0.9048  0.3798
   66MOL   H34635576   1.903   6.313   2.351  0.6384 -0.1927 -0.6424
   66MOL   H34735577   1.830   6.444   2.433  1.5321  0.7310  0.1904
   66MOL   H34835578   2.146   6.523   2.651 -0.2671  0.1373  0.0566
   66MOL   H34935579   2.143   6.651   2.553  1.3679  0.7445 -1.7839
   66MOL   H35035580   2.289   6.623   2.660  1.1505  0.5882 -1.6913
   66MOL   H35135581   2.376   6.508   2.292  1.0554  0.5369 -0.4710
   66MOL   H35235582   2.469   6.571   2.411 -1.5790 -0.5688  1.7331
   66MOL   C35335583   2.533   7.265   2.832  0.4871  0.5054  0.2864
   66MOL   C35435584   2.641   7.161   2.800 -0.1556  0.0052 -0.1168
   66MOL   C35535585   2.597   7.017   2.795 -0.1939  0.4059  0.0190
   66MOL   C35635586   2.583   6.967   2.652  1.1575 -0.1483 -0.8525
   66MOL   C35735587   2.516   6.824   2.653  0.5332 -0.0405  0.6549
   66MOL   O35835588   2.493   6.785   2.523 -0.2007 -0.2840  0.0335
   66MOL   C35935589   2.379   6.812   2.458  0.4729 -0.6434 -0.6076
   66MOL   O36035590   2.301   6.898   2.499 -0.4127  0.5069  0.5834
   66MOL   C36135591   2.352   6.723   2.331  0.1161  0.5707  0.0920
   66MOL   C36235592   2.210   6.749   2.276  0.3455  0.0587  0.2504
   66MOL   C36335593   2.461   6.741   2.215 -0.2660 -0.4112  0.9321
   66MOL   H36435594   2.454   7.287   2.761  0.0049  0.4804  0.8116
   66MOL   H36535595   2.588   7.359   2.845 -1.8605  1.8926  0.5076
   66MOL   H36635596   2.492   7.261   2.933 -0.9011  0.9403 -0.2482
   66MOL   H36735597   2.693   7.203   2.714  0.0306  1.9811  0.9328
   66MOL   H36835598   2.718   7.157   2.877  2.0985  2.0254 -2.1978
   66MOL   H36935599   2.501   7.020   2.847 -1.4096 -0.3122 -2.1216
   66MOL   H37035600   2.651   6.941   2.852  1.9817  2.6815  1.1075
   66MOL   H37135601   2.680   6.971   2.602  1.5174  0.2616 -0.1417
   66MOL   H37235602   2.517   7.039   2.604 -0.5937 -2.8248 -2.5804
   66MOL   H37335603   2.579   6.748   2.700  0.5230 -1.0760 -0.9633
   66MOL   H37435604   2.417   6.821   2.699  0.0874 -1.2052 -0.3589
   66MOL   H37535605   2.188   6.854   2.259  0.7156  0.1554  0.3650
   66MOL   H37635606   2.198   6.688   2.187 -1.4513  2.0464 -0.9150
   66MOL   H37735607   2.131   6.719   2.345  1.3080  0.2264  1.4421
   66MOL   H37835608   2.557   6.730   2.265 -0.7870  0.6609  2.1919
   66MOL   H37935609   2.446   6.661   2.143 -0.2903  0.8751 -0.5321
   66MOL   C38035610   2.161   6.826   1.419  0.5644 -0.2006 -0.1159
   66MOL   C38135611   2.072   6.894   1.524 -0.1595  0.2670 -0.4076
   66MOL   C38235612   2.089   6.817   1.657 -0.1320 -1.0328 -0.2373
   66MOL   C38335613   2.219   6.827   1.733  0.3838 -0.1793  0.0908
   66MOL   C38435614   2.204   6.748   1.866  0.1147  0.6723 -0.1809
   66MOL   O38535615   2.324   6.773   1.939  0.0820 -0.4694 -0.2790
   66MOL   C38635616   2.331   6.876   2.024 -0.2109 -0.3291  0.7717
   66MOL   O38735617   2.252   6.968   2.031 -0.3492 -0.2504 -0.2840
   66MOL   C38835618   2.457   6.869   2.120  0.0935  0.3616 -0.1121
   66MOL   C38935619   2.471   7.004   2.197 -0.3271  0.3203  0.5959
   66MOL   C39035620   2.593   6.849   2.033  0.2560 -0.5110  0.1002
   66MOL   H39135621   2.149   6.882   1.326 -3.3519 -1.3319 -0.3525
   66MOL   H39235622   2.266   6.821   1.450 -0.4395  0.0102  3.5941
   66MOL   H39335623   2.132   6.722   1.406 -0.4744  0.1745 -0.8234
   66MOL   H39435624   1.964   6.898   1.505 -0.2249  0.2535 -0.0483
   66MOL   H39535625   2.099   6.999   1.524 -1.2289  0.5474 -0.3507
   66MOL   H39635626   2.010   6.859   1.720  1.2710  0.4435  0.5746
   66MOL   H39735627   2.067   6.713   1.634 -0.2225 -1.0779  0.0513
   66MOL   H39835628   2.300   6.785   1.673 -1.1250 -1.0232 -1.3832
   66MOL   H39935629   2.249   6.931   1.743 -2.8614  0.8248 -0.1215
   66MOL   H40035630   2.197   6.643   1.837  1.5520 -0.1721  2.3570
   66MOL   H40135631   2.109   6.782   1.906  0.2263 -1.3381  1.9102
   66MOL   H40235632   2.562   7.009   2.257  1.5060 -1.0336 -2.0087
   66MOL   H40335633   2.388   7.031   2.263 -1.0048  2.8197 -1.2112
   66MOL   H40435634   2.461   7.087   2.127  1.1795 -0.0567 -0.0853
   66MOL   H40535635   2.557   6.764   1.976 -1.5443  0.6986 -0.6228
   66MOL   H40635636   2.675   6.818   2.098  1.0632 -0.2863 -0.7938
   66MOL   C40735637   2.349   7.357   2.440 -0.0383 -0.0687 -0.9504
   66MOL   C40835638   2.507   7.323   2.445 -0.2732 -0.4098  0.3323
   66MOL   C40935639   2.568   7.342   2.303 -0.1583 -0.2245 -0.2922
   66MOL   C41035640   2.713   7.280   2.286  0.2485  0.3062 -0.7022
   66MOL   C41135641   2.755   7.260   2.136  0.5548  0.0985  0.0165
   66MOL   O41235642   2.679   7.158   2.065 -0.1311  0.2810 -0.5332
   66MOL   C41335643   2.743   7.040   2.017  0.4779  0.4830  0.2825
   66MOL   O41435644   2.862   7.012   2.051 -0.0965  0.2468  0.1179
   66MOL   C41535645   2.656   6.950   1.930  0.0229 -0.3291  0.7429
   66MOL   C41635646   2.757   6.858   1.843  0.1338  0.6761 -0.0241
   66MOL   C41735647   2.552   7.011   1.831  0.9667 -0.2294 -0.0320
   66MOL   H41835648   2.296   7.293   2.369 -1.0337 -0.7400  0.3887
   66MOL   H41935649   2.303   7.349   2.538  2.7303  0.6856  0.4404
   66MOL   H42035650   2.329   7.457   2.401 -2.6599  0.0226  0.5393
   66MOL   H42135651   2.519   7.220   2.479 -0.0102 -0.2788  0.6442
   66MOL   H42235652   2.571   7.384   2.510 -0.0955  2.4681 -2.4025
   66MOL   H42335653   2.497   7.294   2.234  1.8219 -1.5852 -1.4515
   66MOL   H42435654   2.557   7.448   2.282 -0.3756 -0.2938 -0.5424
   66MOL   H42535655   2.719   7.187   2.343  0.7806  0.1874 -0.9465
   66MOL   H42635656   2.781   7.335   2.351 -2.0834  1.9282  0.4238
   66MOL   H42735657   2.729   7.354   2.088  0.9811  0.1838 -0.0456
   66MOL   H42835658   2.859   7.230   2.134  0.6436  0.4056  0.0061
   66MOL   H42935659   2.830   6.914   1.784 -0.8458  0.0113 -1.9309
   66MOL   H43035660   2.690   6.799   1.779  2.2892 -1.2222 -0.6005
   66MOL   H43135661   2.812   6.787   1.905 -1.3243  1.6486  2.4596
   66MOL   H43235662   2.489   7.074   1.894  1.9793 -0.8839  1.6766
   66MOL   H43335663   2.493   6.932   1.787  1.7667  0.5314 -2.5942
   66MOL   C43435664   2.564   6.720   0.973  0.6189 -0.1860  0.1115
   66MOL   C43535665   2.500   6.795   1.085  0.2788 -0.6616  0.6143
   66MOL   C43635666   2.593   6.776   1.205  0.3703  0.4976  0.4824
   66MOL   C43735667   2.553   6.869   1.320  0.6789  0.5408  0.4803
   66MOL   C43835668   2.625   6.825   1.450  0.4699  0.9288 -0.2888
   66MOL   O43935669   2.575   6.906   1.558  0.0288 -0.1220  0.8180
   66MOL   C44035670   2.642   7.023   1.586  0.2293 -0.5682 -0.2328
   66MOL   O44135671   2.739   7.062   1.518 -0.1895 -0.1738  0.7059
   66MOL   C44235672   2.596   7.105   1.710 -0.2605 -0.5967 -0.8835
   66MOL   C44335673   2.713   7.201   1.757 -0.5201  0.4129  0.1754
   66MOL   C44435674   2.468   7.180   1.662  0.5023  0.3100 -0.1014
   66MOL   H44535675   2.560   6.615   1.000 -0.0963  0.0378  0.9315
   66MOL   H44635676   2.503   6.728   0.883  0.4726 -1.0556  0.1345
   66MOL   H44735677   2.665   6.754   0.949  0.2795  0.7539 -0.0100
   66MOL   H44835678   2.503   6.903   1.070 -1.4241 -0.7968 -0.8178
   66MOL   H44935679   2.398   6.761   1.100 -0.1536  1.1274  2.0226
   66MOL   H45035680   2.579   6.674   1.241 -0.2137  0.8304  1.2253
   66MOL   H45135681   2.699   6.783   1.178  0.2787  1.1543  0.2812
   66MOL   H45235682   2.446   6.885   1.338  0.7595 -0.4828  2.0665
   66MOL   H45335683   2.587   6.970   1.300 -2.6473  1.0897 -2.9310
   66MOL   H45435684   2.734   6.827   1.447  0.6158 -2.4003  1.2565
   66MOL   H45535685   2.610   6.720   1.475 -1.6818  1.3048  0.0191
   66MOL   H45635686   2.752   7.268   1.680  0.8033 -0.7170 -0.1476
   66MOL   H45735687   2.685   7.262   1.843 -0.2984  1.9679 -0.8122
   66MOL   H45835688   2.804   7.147   1.781 -2.0692 -1.7466  1.2952
   66MOL   H45935689   2.428   7.219   1.756  0.6430  0.3419 -0.0553
   66MOL   H46035690   2.397   7.104   1.628 -1.4373  1.0324  2.1881
   66MOL   C46135691   2.792   7.783   2.207 -0.3534 -0.4908 -0.1153
   66MOL   C46235692   2.697   7.673   2.141 -0.3696  0.0576 -0.3446
   66MOL   C46335693   2.685   7.686   1.987  0.4678  0.0639 -0.2278
   66MOL   C46435694   2.617   7.560   1.911  0.0521  0.2437 -0.5705
   66MOL   C46535695   2.617   7.594   1.758 -0.3853  0.6254  0.0159
   66MOL   O46635696   2.601   7.477   1.680  0.3702  0.4287  0.4026
   66MOL   C46735697   2.475   7.443   1.654 -1.0476 -0.4232  0.2124
   66MOL   O46835698   2.372   7.501   1.686  0.1184  0.2123 -0.5986
   66MOL   C46935699   2.463   7.310   1.570 -0.2624  0.3625  0.5745
   66MOL   C47035700   2.319   7.300   1.508 -0.6135  0.0420  0.3731
   66MOL   C47135701   2.576   7.311   1.453 -0.2606 -0.5014  0.1270
   66MOL   H47235702   2.880   7.810   2.148  2.0607 -0.5492  3.3605
   66MOL   H47335703   2.814   7.752   2.309 -1.8840 -0.0638  0.3705
   66MOL   H47435704   2.735   0.058   2.232  0.5777  1.1150 -3.3738
   66MOL   H47535705   2.596   7.679   2.180  0.2603 -0.1186  1.3843
   66MOL   H47635706   2.745   7.577   2.162  2.6208  1.3749 -0.7859
   66MOL   H47735707   2.783   7.707   1.944 -0.1780  0.7900 -1.3836
   66MOL   H47835708   2.621   7.773   1.973 -1.2891 -0.9543  1.2510
   66MOL   H47935709   2.514   7.539   1.941 -0.1674  1.3529 -0.5390
   66MOL   H48035710   2.674   7.468   1.925 -1.5002 -0.6581 -0.0630
   66MOL   H48135711   2.551   7.672   1.719 -1.8817 -0.6408 -0.0286
   66MOL   H48235712   2.714   7.632   1.727 -0.4706  1.1561  0.3910
   66MOL   H48335713   2.251   7.273   1.589  0.5950  1.1529  1.7671
   66MOL   H48435714   2.308   7.212   1.445  1.3920 -0.7832  1.1388
   66MOL   H48535715   2.274   7.384   1.455 -1.5757  0.2720  1.5215
   66MOL   H48635716   2.564   7.215   1.405 -1.2123 -0.3586  0.0726
   66MOL   H48735717   2.675   7.302   1.498 -0.0065  0.8120 -0.1466
   66MOL   C48835718   2.417   0.253   1.543  0.4252 -0.0811  0.2428
   66MOL   C48935719   2.297   0.156   1.509  0.6616  0.3510  0.5431
   66MOL   C49035720   2.351   0.043   1.421 -0.7576 -0.0718 -0.0956
   66MOL   C49135721   2.250   7.741   1.415 -0.6238  0.4442 -0.2013
   66MOL   C49235722   2.295   7.638   1.306 -0.2927  0.2547 -0.0593
   66MOL   O49335723   2.422   7.576   1.347 -0.5974 -0.1052  0.2607
   66MOL   C49435724   2.472   7.469   1.283 -0.6411 -0.0703 -0.0484
   66MOL   O49535725   2.413   7.401   1.207  0.1243 -0.0890 -0.5790
   66MOL   C49635726   2.604   7.419   1.337  0.1071  0.9016 -0.0235
   66MOL   C49735727   2.674   7.331   1.227  0.2203 -0.5256  0.0913
   66MOL   C49835728   2.710   7.533   1.383  0.2920 -0.1245 -0.0942
   66MOL   H49935729   2.475   0.206   1.623  0.3962  1.1700  1.0117
   66MOL   H50035730   2.480   0.271   1.456 -0.6304 -2.9588 -1.1765
   66MOL   H50135731   2.379   0.346   1.587 -1.1753  0.2075 -1.6944
   66MOL   H50235732   2.224   0.207   1.446 -0.0040 -1.3491 -0.0753
   66MOL   H50335733   2.239   0.115   1.592  1.4661 -0.5215  0.6847
   66MOL   H50435734   2.361   0.082   1.320  0.9879 -0.6016 -0.1521
   66MOL   H50535735   2.450   0.005   1.449 -1.0468 -1.8254 -1.3532
   66MOL   H50635736   2.157   7.783   1.378 -2.0843 -2.7545 -0.3528
   66MOL   H50735737   2.229   7.692   1.510  0.4385 -0.1250 -0.2547
   66MOL   H50835738   2.214   7.570   1.278 -0.7462  1.4134 -1.6497
   66MOL   H50935739   2.310   7.701   1.218  0.3338 -1.8387 -1.4862
   66MOL   H51035740   2.680   7.384   1.132  0.7768  0.8835  0.8900
   66MOL   H51135741   2.615   7.242   1.207 -1.3881  0.2411  1.2964
   66MOL   H51235742   2.776   7.307   1.259  0.4864 -0.5691 -0.7807
   66MOL   H51335743   2.792   7.491   1.442  0.5878 -1.4395 -1.4142
   66MOL   H51435744   2.668   7.594   1.462  0.3682 -0.6325  0.3388
   66MOL   C51535745   3.325   0.135   1.235  0.2926 -0.3090  1.0915
   66MOL   C51635746   3.279   0.076   1.095 -0.6270 -0.3180  0.1010
   66MOL   C51735747   3.181   7.777   1.124 -0.2205  0.8556 -0.3411
   66MOL   C51835748   3.123   7.720   0.994  0.0656  0.2755 -0.1279
   66MOL   C51935749   3.023   7.608   1.006 -0.0919  0.3921  0.1696
   66MOL   O52035750   2.908   7.645   1.081  0.8069  0.1772 -0.2049
   66MOL   C52135751   2.880   7.575   1.197  0.2270 -0.1571  0.0070
   66MOL   O52235752   2.936   7.472   1.234  0.3451 -0.2307  0.0270
   66MOL   C52335753   2.766   7.637   1.281 -0.2344 -0.7238  1.0047
   66MOL   C52435754   2.830   7.755   1.353  0.8667 -0.2672 -0.2947
   66MOL   C52535755   2.661   7.706   1.186 -0.1408  0.1545 -0.5263
   66MOL   H52635756   3.353   0.240   1.225 -1.2706 -0.0192 -0.6411
   66MOL   H52735757   3.237   0.140   1.299 -0.5623  1.0916 -0.1590
   66MOL   H52835758   3.408   0.075   1.272  1.9794  0.3159 -1.5459
   66MOL   H52935759   3.220   0.147   1.036 -0.0165 -0.6109 -0.8751
   66MOL   H53035760   3.367   0.053   1.035 -0.7927  1.5940 -0.9374
   66MOL   H53135761   3.228   7.702   1.187  0.1996  1.3271 -0.0970
   66MOL   H53235762   3.100   7.813   1.187 -0.8678 -0.3661 -0.4547
   66MOL   H53335763   3.214   7.695   0.938  1.1239  1.0546  1.2302
   66MOL   H53435764   3.076   7.798   0.934 -1.6051  1.1307  2.2416
   66MOL   H53535765   3.000   7.572   0.906  0.3382 -0.7360  0.4640
   66MOL   H53635766   3.075   7.525   1.053 -0.0141 -0.1357 -0.8438
   66MOL   H53735767   2.912   7.707   1.406  1.6688 -0.8034 -1.9854
   66MOL   H53835768   2.769   7.800   1.432  1.0898 -0.3116 -0.0972
   66MOL   H53935769   2.870   0.016   1.284 -1.5732  1.1270 -0.2734
   66MOL   H54035770   2.695   7.782   1.116 -0.8767  1.1966  0.2409
   66MOL   H54135771   2.597   7.769   1.248 -1.7406 -0.3997 -1.5902
   66MOL   H54235772   2.606   7.644   1.116  0.5412  0.8248 -1.6872
   67MOL     C135773   4.827   6.528   1.698  0.0186  0.8314  0.5767
   67MOL     C235774   4.874   6.391   1.764  0.3322 -0.4758  0.3970
   67MOL     C335775   4.815   6.386   1.906  0.2231  0.1111  0.3962
   67MOL     C435776   4.880   6.272   1.996  0.0182  0.0977  0.2494
   67MOL     C535777   4.844   6.291   2.146 -0.1442 -0.2622  0.2384
   67MOL     O635778   4.710   6.335   2.166 -0.3442 -0.2024 -0.3939
   67MOL     C735779   4.633   6.306   2.270  0.3039  0.2720 -0.0556
   67MOL     O835780   4.675   6.251   2.372 -0.2957 -0.1131  0.5150
   67MOL     C935781   4.479   6.354   2.249  0.5984  0.6826  0.2391
   67MOL    C1035782   4.424   6.299   2.114  0.4495  0.9877 -0.0871
   67MOL    C1135783   4.473   6.505   2.254 -0.6431  0.7057 -0.1837
   67MOL    H1235784   4.722   6.532   1.668  0.1384  0.1391  0.0678
   67MOL    H1335785   4.879   6.535   1.603 -2.7906 -0.5562 -1.1108
   67MOL    H1435786   4.860   6.613   1.759  0.2242 -0.3309  2.1128
   67MOL    H1535787   4.849   6.300   1.709 -0.4324 -1.0556  1.6660
   67MOL    H1635788   4.981   6.401   1.777  0.3740 -0.7055  0.2228
   67MOL    H1735789   4.818   6.484   1.953  1.7996  0.2790 -0.0123
   67MOL    H1835790   4.710   6.359   1.896  0.0907  0.2750  1.2854
   67MOL    H1935791   4.987   6.287   1.978 -0.2476  2.1561  0.2792
   67MOL    H2035792   4.848   6.182   1.943 -1.0852  0.8470 -0.3812
   67MOL    H2135793   4.860   6.186   2.173  2.3206  0.0226 -0.0331
   67MOL    H2235794   4.907   6.352   2.211  1.4180  1.0891 -2.4885
   67MOL    H2335795   4.446   6.194   2.092 -0.2731  0.5780  1.1226
   67MOL    H2435796   4.457   6.358   2.029  2.2500 -0.9286 -0.7627
   67MOL    H2535797   4.315   6.303   2.125  0.4146 -0.4301  0.2657
   67MOL    H2635798   4.469   6.544   2.152  2.0135 -0.8921 -0.9301
   67MOL    H2735799   4.565   6.541   2.299  0.5933 -1.7614 -0.6457
   67MOL    H2835800   4.424   6.303   2.328 -1.8123  1.1599 -1.0795
   67MOL    C2935801   4.888   6.509   2.470  0.0325  0.5706 -0.5433
   67MOL    C3035802   4.878   6.532   2.620  0.4430  0.6229 -0.2837
   67MOL    C3135803   4.738   6.550   2.670  0.0678  0.0343  0.2258
   67MOL    C3235804   4.648   6.415   2.674  0.4180  0.1471  0.1147
   67MOL    C3335805   4.496   6.432   2.657 -0.0704  0.2988  0.0315
   67MOL    O3435806   4.477   6.497   2.534 -0.4052 -0.3381 -0.4172
   67MOL    C3535807   4.346   6.504   2.475  0.5369 -0.4869  0.5423
   67MOL    O3635808   4.245   6.449   2.521 -0.1725  0.4154  0.1441
   67MOL    C3735809   4.352   6.574   2.336  0.0126  0.1529 -0.2955
   67MOL    C3835810   4.220   6.538   2.258 -0.5702  0.0995  0.0842
   67MOL    C3935811   4.385   6.733   2.342  0.0427 -0.0368  0.0525
   67MOL    H4035812   4.859   6.411   2.434 -1.5831  0.4644  0.9621
   67MOL    H4135813   4.852   6.598   2.419  1.6503  0.4976 -1.8689
   67MOL    H4235814   4.996   6.498   2.459 -0.1204 -0.6192 -0.8871
   67MOL    H4335815   4.924   6.627   2.646 -0.7923  1.1646 -0.0310
   67MOL    H4435816   4.932   6.456   2.678 -0.9251  1.8558  2.7322
   67MOL    H4535817   4.692   6.641   2.632 -1.1427 -0.5837  0.1636
   67MOL    H4635818   4.752   6.584   2.773 -2.3709 -2.2087  1.3954
   67MOL    H4735819   4.691   6.348   2.600  1.4980  2.6621 -1.5985
   67MOL    H4835820   4.668   6.362   2.767  1.0381 -1.2069 -0.7856
   67MOL    H4935821   4.460   6.495   2.738 -0.3549 -1.4973  1.3436
   67MOL    H5035822   4.438   6.340   2.658 -2.9818  2.0735 -0.3205
   67MOL    H5135823   4.221   6.566   2.153 -0.8583  1.2842  0.3798
   67MOL    H5235824   4.136   6.601   2.287  0.1741  0.5440  1.3776
   67MOL    H5335825   4.186   6.435   2.264  2.0548 -0.8204 -0.4469
   67MOL    H5435826   4.358   6.762   2.240 -0.7708 -0.1199  0.2339
   67MOL    H5535827   4.493   6.747   2.347 -0.2619  3.1646 -1.0689
   67MOL    C5635828   3.903   7.367   2.247  0.2366  0.1675 -0.2595
   67MOL    C5735829   4.022   7.361   2.338 -0.0191 -0.6880  0.3032
   67MOL    C5835830   4.125   7.276   2.264  0.2491 -0.6204 -0.9490
   67MOL    C5935831   4.257   7.257   2.337  0.0832  0.0150 -0.2483
   67MOL    C6035832   4.338   7.148   2.262 -0.1197 -0.8403 -0.4162
   67MOL    O6135833   4.301   7.016   2.300  0.0321  0.0231 -0.0522
   67MOL    C6235834   4.358   6.968   2.414 -0.2526 -0.0774 -0.3424
   67MOL    O6335835   4.437   7.032   2.484  0.0433  0.0528  0.1285
   67MOL    C6435836   4.309   6.822   2.445 -0.6694 -0.4705  0.2728
   67MOL    C6535837   4.355   6.791   2.585 -0.0230 -0.0228 -0.1299
   67MOL    C6635838   4.156   6.801   2.438 -0.4708 -0.5086 -0.3183
   67MOL    H6735839   3.923   7.437   2.166 -0.5153 -0.5766 -1.0903
   67MOL    H6835840   3.826   7.415   2.307 -0.8813 -0.7630 -0.9434
   67MOL    H6935841   3.871   7.270   2.210  1.3542 -0.2764 -0.0922
   67MOL    H7035842   4.072   7.455   2.361 -0.0112 -0.4472 -0.7071
   67MOL    H7135843   4.005   7.318   2.437 -2.8770 -1.7302 -0.6129
   67MOL    H7235844   4.080   7.176   2.258 -2.7611  0.4969  1.5249
   67MOL    H7335845   4.136   7.315   2.163 -1.5453 -1.8594 -1.6599
   67MOL    H7435846   4.244   7.237   2.443  2.8138 -1.6825 -0.1820
   67MOL    H7535847   4.309   7.353   2.342 -1.7468  1.0276 -0.4068
   67MOL    H7635848   4.335   7.149   2.153 -3.2818  0.0074 -0.3739
   67MOL    H7735849   4.443   7.165   2.285 -0.0341 -0.7825 -0.8453
   67MOL    H7835850   4.459   6.758   2.588  0.0435 -0.4397 -4.3587
   67MOL    H7935851   4.296   6.706   2.620  0.5181 -1.8082 -3.2834
   67MOL    H8035852   4.340   6.876   2.650 -0.9773 -1.1144  1.1124
   67MOL    H8135853   4.129   6.699   2.463 -2.9024  0.6017  1.8318
   67MOL    H8235854   4.121   6.799   2.334  1.5210 -0.0660 -1.0199
   67MOL    C8335855   3.892   6.312   2.499 -0.4334  0.9234  0.2516
   67MOL    C8435856   3.909   6.431   2.595  0.1143 -0.4030  0.4221
   67MOL    C8535857   3.972   6.392   2.730 -0.1137 -1.7916 -0.6838
   67MOL    C8635858   3.970   6.507   2.835 -0.4830 -0.2662 -0.7622
   67MOL    C8735859   4.070   6.621   2.822 -0.7065 -0.2974 -0.1936
   67MOL    O8835860   4.061   6.682   2.698 -0.1579 -0.0245  0.4845
   67MOL    C8935861   4.059   6.814   2.685 -0.4022 -0.2899  1.4457
   67MOL    O9035862   4.062   6.895   2.774 -0.4011  0.1726  0.3411
   67MOL    C9135863   4.050   6.870   2.538  0.1517  0.6267 -0.6478
   67MOL    C9235864   4.064   7.021   2.544 -0.1378  0.1115  0.4143
   67MOL    C9335865   3.910   6.825   2.481 -0.2003  0.3043 -0.5445
   67MOL    H9435866   3.829   6.239   2.550 -0.8328  1.9742  1.2831
   67MOL    H9535867   3.834   6.333   2.409 -3.3047 -4.3440  0.6486
   67MOL    H9635868   3.996   6.280   2.483 -0.7756 -0.1776  0.1549
   67MOL    H9735869   3.823   6.497   2.600  0.2768 -0.2406  1.1000
   67MOL    H9835870   3.982   6.493   2.543  0.6542 -1.5218 -0.1694
   67MOL    H9935871   4.073   6.353   2.739  0.2620 -0.4791  1.3664
   67MOL   H10035872   3.899   6.323   2.771  1.0388 -2.1755  0.7621
   67MOL   H10135873   3.986   6.454   2.929  0.9950 -0.1745 -0.9591
   67MOL   H10235874   3.870   6.552   2.838 -0.4281  0.1487 -3.7456
   67MOL   H10335875   4.166   6.581   2.854  0.4459  0.5355 -2.5324
   67MOL   H10435876   4.052   6.691   2.905  1.4172 -1.9766  1.7413
   67MOL   H10535877   3.988   7.072   2.603  0.0367  0.0395  0.7064
   67MOL   H10635878   4.073   7.067   2.446  0.8016  0.5563  0.7024
   67MOL   H10735879   4.157   7.041   2.598 -0.5550  1.9161  0.4787
   67MOL   H10835880   3.919   6.839   2.374  1.7698  2.4161 -0.1613
   67MOL   H10935881   3.907   6.716   2.490 -0.0948  0.1254 -2.5151
   67MOL   C11035882   3.078   7.084   2.430  0.1976  0.2045 -0.6956
   67MOL   C11135883   3.185   7.161   2.356 -0.4852  0.6239  0.2733
   67MOL   C11235884   3.317   7.148   2.435 -0.5115 -0.0361  0.0537
   67MOL   C11335885   3.449   7.191   2.366  0.2638  0.3920 -0.5179
   67MOL   C11435886   3.564   7.184   2.462  0.8974  0.5301  0.4692
   67MOL   O11535887   3.619   7.062   2.500  0.0856  0.1849 -0.6823
   67MOL   C11635888   3.740   7.019   2.473  0.2052  0.4843 -0.1414
   67MOL   O11735889   3.809   7.071   2.385 -0.2911  0.0758  0.0203
   67MOL   C11835890   3.772   6.881   2.528  0.2111  0.7197 -0.3163
   67MOL   C11935891   3.771   6.895   2.682  0.1534  0.4078 -0.1755
   67MOL   C12035892   3.665   6.773   2.499 -0.2064 -0.4571  1.0588
   67MOL   H12135893   2.980   7.080   2.383  1.2035 -1.4062 -2.7248
   67MOL   H12235894   3.105   6.979   2.438  1.1388  0.5654  1.2964
   67MOL   H12335895   3.077   7.116   2.534  0.2814  1.5030 -1.0764
   67MOL   H12435896   3.190   7.112   2.259 -1.1110  2.0595 -0.4790
   67MOL   H12535897   3.143   7.261   2.348  1.0080  1.3356  1.0320
   67MOL   H12635898   3.299   7.189   2.534  0.0977  1.2953 -0.3845
   67MOL   H12735899   3.338   7.042   2.453 -2.2389 -0.6687 -1.4508
   67MOL   H12835900   3.436   7.294   2.332 -1.7505  0.5659  0.7057
   67MOL   H12935901   3.458   7.131   2.275 -0.4546  0.0467 -0.3697
   67MOL   H13035902   3.634   7.253   2.415 -0.6696  0.8644 -1.4801
   67MOL   H13135903   3.528   7.228   2.555 -0.8809 -0.9371  0.5103
   67MOL   H13235904   3.823   6.982   2.720 -0.6325  0.9640 -0.3422
   67MOL   H13335905   3.666   6.894   2.714 -0.2880 -0.0029 -1.5921
   67MOL   H13435906   3.806   6.806   2.733  2.0526  0.1739 -1.8383
   67MOL   H13535907   3.695   6.695   2.569  3.3794  0.2722  0.4390
   67MOL   H13635908   3.573   6.816   2.538 -0.3185  1.6898 -1.4442
   67MOL   C13735909   4.076   7.172   1.793  0.2742  0.3792  0.3264
   67MOL   C13835910   4.025   7.126   1.923  0.2581 -0.6907 -0.4186
   67MOL   C13935911   3.885   7.055   1.925 -0.3768  0.2174  0.2778
   67MOL   C14035912   3.854   6.990   2.060  0.5173 -0.6231 -0.2940
   67MOL   C14135913   3.773   6.858   2.046 -0.2327 -0.0080  0.2062
   67MOL   O14235914   3.761   6.801   2.174  0.1149  0.1463 -0.3762
   67MOL   C14335915   3.641   6.815   2.239  0.2433  0.0631 -0.0841
   67MOL   O14435916   3.547   6.894   2.212  0.5166 -0.3334 -0.1260
   67MOL   C14535917   3.631   6.715   2.358 -0.2775  1.0442 -0.5993
   67MOL   C14635918   3.723   6.592   2.333 -1.1318 -0.0470  0.8539
   67MOL   C14735919   3.482   6.654   2.355  0.8707  0.1217  0.9060
   67MOL   H14835920   4.133   7.093   1.743  1.4013  1.1100  0.4268
   67MOL   H14935921   4.139   7.260   1.807  0.5347  0.3472 -0.5736
   67MOL   H15035922   3.990   7.216   1.743  0.8234  1.6264  0.4394
   67MOL   H15135923   4.026   7.218   1.982  0.2805 -1.3176  0.5658
   67MOL   H15235924   4.098   7.073   1.983 -1.0837 -0.9878  0.9931
   67MOL   H15335925   3.805   7.119   1.888 -0.3048  0.0852 -0.1025
   67MOL   H15435926   3.909   6.975   1.855  0.8485  1.7170 -1.0539
   67MOL   H15535927   3.948   6.966   2.109 -0.1612  0.0224  1.3560
   67MOL   H15635928   3.798   7.055   2.128  2.5090  0.6191  0.1789
   67MOL   H15735929   3.818   6.780   1.985  1.6297  1.7784 -0.7796
   67MOL   H15835930   3.675   6.870   2.002 -0.6552 -2.5763  0.3658
   67MOL   H15935931   3.706   6.504   2.395 -0.1689 -1.0842 -0.3205
   67MOL   H16035932   3.830   6.614   2.328 -1.2446  0.2134 -0.9117
   67MOL   H16135933   3.702   6.554   2.233 -0.0867 -3.0496  1.7345
   67MOL   H16235934   3.472   6.594   2.446 -0.3177  1.6740  1.8364
   67MOL   H16335935   3.423   6.744   2.374 -0.1156 -0.2523 -0.3222
   67MOL   C16435936   3.373   6.498   2.780  0.4402 -0.2492 -0.1129
   67MOL   C16535937   3.357   6.348   2.779  0.1500 -0.1147  0.8027
   67MOL   C16635938   3.352   6.296   2.635 -0.4191  0.0313 -0.0779
   67MOL   C16735939   3.495   6.276   2.573 -0.1680  0.1458 -0.0854
   67MOL   C16835940   3.488   6.240   2.423  0.0004 -0.0562 -0.9890
   67MOL   O16935941   3.433   6.355   2.360 -0.0560  0.5151  0.2268
   67MOL   C17035942   3.482   6.411   2.255  0.4723  0.1557  0.4243
   67MOL   O17135943   3.559   6.353   2.180  0.4223  0.0923 -0.0393
   67MOL   C17235944   3.422   6.561   2.232  0.3684 -1.0202 -0.9373
   67MOL   C17335945   3.473   6.600   2.088  0.7189  0.4850 -0.0702
   67MOL   C17435946   3.261   6.557   2.239 -0.5870  0.7569  0.1901
   67MOL   H17535947   3.455   6.531   2.717 -0.3677 -0.9857 -1.5826
   67MOL   H17635948   3.380   6.532   2.883 -1.2446  0.0303 -0.0740
   67MOL   H17735949   3.284   6.543   2.736  1.1583 -0.4769 -1.8297
   67MOL   H17835950   3.256   6.323   2.813  0.1895 -0.8434  0.3986
   67MOL   H17935951   3.433   6.295   2.837  0.1665 -0.1110  0.7844
   67MOL   H18035952   3.294   6.204   2.637  0.5959 -0.6367 -0.4998
   67MOL   H18135953   3.286   6.362   2.579 -0.0961  1.1628  0.8502
   67MOL   H18235954   3.539   6.190   2.623  1.3796  1.1373  0.2853
   67MOL   H18335955   3.555   6.365   2.588 -1.1729  0.7392  0.3941
   67MOL   H18435956   3.421   6.155   2.416 -1.5111  0.9826  0.4458
   67MOL   H18535957   3.587   6.208   2.390  1.3307  1.0932  1.6540
   67MOL   H18635958   3.581   6.601   2.077  0.7436  1.9381  0.2154
   67MOL   H18735959   3.439   6.698   2.054 -0.7482 -0.0490 -0.2136
   67MOL   H18835960   3.442   6.526   2.014 -0.8639  0.6219  0.4207
   67MOL   H18935961   3.233   6.470   2.179  0.5465  1.4381 -1.3451
   67MOL   H19035962   3.237   6.540   2.344  0.0068 -0.4177  0.1418
   67MOL   C19135963   3.133   7.200   1.645  0.6239 -0.6646  0.5761
   67MOL   C19235964   3.185   7.064   1.590 -0.5991  0.5381  0.2231
   67MOL   C19335965   3.104   6.942   1.640  0.3680  0.2003 -0.8777
   67MOL   C19435966   3.104   6.923   1.792 -0.0269  0.1468 -0.5349
   67MOL   C19535967   3.080   6.776   1.832  0.3401  0.0244  0.3767
   67MOL   O19635968   3.097   6.757   1.970  0.1924 -0.3240  0.2102
   67MOL   C19735969   3.156   6.660   2.021  0.0761 -0.6511  0.1959
   67MOL   O19835970   3.202   6.570   1.957 -0.3766 -0.0556  0.0766
   67MOL   C19935971   3.163   6.659   2.173  0.2961  0.0932 -0.1928
   67MOL   C20035972   3.202   6.796   2.224 -0.1625 -1.0164  0.5094
   67MOL   C20135973   3.015   6.636   2.224 -0.1207 -0.4432  0.3456
   67MOL   H20235974   3.038   7.223   1.596  2.2853  2.6274 -1.2272
   67MOL   H20335975   3.114   7.214   1.751  1.6191 -0.3294  0.7143
   67MOL   H20435976   3.205   7.277   1.618  0.1986  0.3563  2.2732
   67MOL   H20535977   3.288   7.056   1.626 -0.0803  0.5082 -1.2150
   67MOL   H20635978   3.179   7.070   1.481 -1.1214 -2.7384  0.0388
   67MOL   H20735979   3.149   6.855   1.594 -0.5233  0.3424 -2.0383
   67MOL   H20835980   3.003   6.973   1.612  1.0997  0.8345 -2.8494
   67MOL   H20935981   3.201   6.952   1.832 -1.3161  2.7200  0.8751
   67MOL   H21035982   3.038   6.992   1.845  1.8660  1.7685 -0.2291
   67MOL   H21135983   2.985   6.735   1.796 -0.4770  0.9373  1.4386
   67MOL   H21235984   3.160   6.732   1.773 -4.1842 -3.3204 -3.6774
   67MOL   H21335985   3.197   6.789   2.333  0.0281  3.0771  0.8827
   67MOL   H21435986   3.125   6.871   2.203  1.3878  0.2040 -0.9105
   67MOL   H21535987   3.294   6.838   2.184 -1.2736 -0.2824 -1.3874
   67MOL   H21635988   2.957   6.715   2.176 -1.6692 -1.3958  0.6085
   67MOL   H21735989   3.007   6.668   2.328  0.0255 -0.6152  0.4092
   67MOL   C21835990   2.348   6.412   1.944  0.0797  0.0824  0.6196
   67MOL   C21935991   2.459   6.440   1.838 -0.4042  0.2666  0.2680
   67MOL   C22035992   2.593   6.377   1.871 -0.7158  0.0882 -0.2247
   67MOL   C22135993   2.715   6.431   1.800 -0.0341 -0.5391  0.0462
   67MOL   C22235994   2.847   6.389   1.869  0.5206  0.5810 -0.7408
   67MOL   O22335995   2.849   6.463   1.992  0.2200  0.1737 -0.4654
   67MOL   C22435996   2.941   6.424   2.082 -0.0180  0.5518  0.0024
   67MOL   O22535997   3.019   6.336   2.066  0.0434 -0.2963 -0.0145
   67MOL   C22635998   2.933   6.507   2.220 -0.6994  0.5224  0.4360
   67MOL   C22735999   2.784   6.542   2.250  0.3926 -0.5076  0.3185
   67MOL   C22836000   2.978   6.405   2.345 -0.4665 -0.2371  0.1521
   67MOL   H22936001   2.333   6.308   1.974  0.3037 -0.5083 -1.2515
   67MOL   H23036002   2.375   6.446   2.044  2.7499  0.1310 -0.0648
   67MOL   H23136003   2.250   6.458   1.932 -0.5302 -0.9361  1.6296
   67MOL   H23236004   2.472   6.548   1.843 -0.7429  0.2500  2.1841
   67MOL   H23336005   2.433   6.408   1.737  0.3552  0.1990  0.0919
   67MOL   H23436006   2.575   6.270   1.860 -0.2036 -0.1556  1.1276
   67MOL   H23536007   2.600   6.384   1.980 -0.2474 -1.0770 -0.1688
   67MOL   H23636008   2.718   6.387   1.700  0.4533 -0.1018 -0.1344
   67MOL   H23736009   2.705   6.539   1.786 -2.5207 -0.8444 -0.7171
   67MOL   H23836010   2.932   6.420   1.808 -0.1890  0.7145 -1.6726
   67MOL   H23936011   2.851   6.283   1.891 -1.9264  1.0524  2.2147
   67MOL   H24036012   2.754   6.620   2.180 -0.5027 -2.6192 -1.7149
   67MOL   H24136013   2.755   6.571   2.351 -0.4012  3.0628 -0.8382
   67MOL   H24236014   2.715   6.462   2.226  1.9523 -1.0784 -2.5310
   67MOL   H24336015   3.015   6.467   2.427  0.9360 -0.5381 -0.2434
   67MOL   H24436016   3.075   6.362   2.322  0.3816  1.8642 -0.3130
   67MOL   C24536017   2.934   6.907   2.800 -0.4766  0.9569  0.8914
   67MOL   C24636018   2.999   6.805   2.710  0.2521 -0.2452 -0.3277
   67MOL   C24736019   2.906   6.707   2.633  1.1418  0.2015 -0.0959
   67MOL   C24836020   2.821   6.623   2.738 -0.0421  0.5402 -0.5219
   67MOL   C24936021   2.748   6.513   2.672 -0.4744 -0.3567  0.1340
   67MOL   O25036022   2.833   6.428   2.595 -0.4632 -0.2363 -0.0620
   67MOL   C25136023   2.784   6.354   2.490  0.3296 -0.6695 -0.4704
   67MOL   O25236024   2.665   6.347   2.458  0.4803  0.4428  0.2950
   67MOL   C25336025   2.896   6.285   2.405  1.2582 -0.2466  0.0328
   67MOL   C25436026   2.990   6.219   2.512  0.1246  0.3747  0.5114
   67MOL   C25536027   2.843   6.183   2.292 -0.1664 -0.4535 -0.3092
   67MOL   H25636028   2.999   6.979   2.849  1.0718 -0.3841  0.8522
   67MOL   H25736029   2.862   6.966   2.743  0.9423 -0.8859 -2.9783
   67MOL   H25836030   2.877   6.865   2.883  1.9080 -0.7536  1.7187
   67MOL   H25936031   3.054   6.861   2.634 -1.4388  1.9576  0.0315
   67MOL   H26036032   3.070   6.749   2.770  0.8405  0.6725 -0.1611
   67MOL   H26136033   2.976   6.638   2.586  0.2977 -0.2447 -0.7001
   67MOL   H26236034   2.843   6.751   2.556  0.4758  0.0376  0.3508
   67MOL   H26336035   2.878   6.579   2.820 -0.1017 -0.3749 -0.9657
   67MOL   H26436036   2.749   6.683   2.793 -0.4554  1.3399 -1.9042
   67MOL   H26536037   2.691   6.450   2.740  0.0078 -1.2682 -0.2893
   67MOL   H26636038   2.686   6.557   2.594 -0.1012 -1.6531 -0.9191
   67MOL   H26736039   3.070   6.155   2.473 -0.7294 -0.3799 -0.0329
   67MOL   H26836040   3.035   6.296   2.574  1.0678  2.2267 -2.3839
   67MOL   H26936041   2.935   6.141   2.566  0.7951 -0.9471 -0.6544
   67MOL   H27036042   2.761   6.234   2.243  0.6544  0.6914 -0.5208
   67MOL   H27136043   2.926   6.168   2.224 -1.0920 -2.2547 -1.0427
   67MOL   C27236044   3.321   6.159   2.053  0.0486 -0.2274  0.3280
   67MOL   C27336045   3.235   6.089   2.157 -0.3091  0.2123  0.0133
   67MOL   C27436046   3.308   5.976   2.234  0.7636 -0.7201  0.5097
   67MOL   C27536047   3.243   5.934   2.363  0.0498 -0.2111 -0.3165
   67MOL   C27636048   3.113   5.854   2.357 -0.2554 -0.8789  0.1506
   67MOL   O27736049   3.006   5.937   2.310  0.1502 -0.2659  0.2644
   67MOL   C27836050   2.889   5.944   2.377 -0.4306  0.4032 -0.4618
   67MOL   O27936051   2.865   5.892   2.483 -0.3281 -0.1685 -0.3271
   67MOL   C28036052   2.788   6.039   2.312  0.3748  0.4081 -0.4353
   67MOL   C28136053   2.663   6.053   2.412  0.5417  0.1369  0.3905
   67MOL   C28236054   2.740   5.987   2.178  0.4404 -0.2234 -0.3319
   67MOL   H28336055   3.296   6.265   2.051  3.8867  0.7354 -1.1450
   67MOL   H28436056   3.429   6.152   2.062  0.3537  0.5868 -2.1960
   67MOL   H28536057   3.296   6.107   1.961 -1.0844  1.6231 -0.4548
   67MOL   H28636058   3.222   6.163   2.236  0.8719 -0.2545  0.6580
   67MOL   H28736059   3.136   6.065   2.119  0.2682 -2.9239  0.3535
   67MOL   H28836060   3.314   5.895   2.161  1.8467  1.1016 -1.4919
   67MOL   H28936061   3.407   6.020   2.246  0.3212  0.1044  1.2164
   67MOL   H29036062   3.314   5.868   2.412  0.4773  0.8982  0.5669
   67MOL   H29136063   3.238   6.016   2.435 -0.8163  0.7893 -1.4853
   67MOL   H29236064   3.093   5.826   2.461  0.8736 -1.5373  0.1971
   67MOL   H29336065   3.133   5.765   2.296  0.9829  0.0951 -0.8803
   67MOL   H29436066   2.698   6.108   2.499  1.4643 -2.4910  1.7043
   67MOL   H29536067   2.575   6.106   2.374  1.8456  0.6121 -2.0833
   67MOL   H29636068   2.623   5.957   2.444  0.4948  0.1417  0.3452
   67MOL   H29736069   2.643   6.035   2.171 -0.1262 -1.1393  0.9029
   67MOL   H29836070   2.803   6.029   2.100  0.7668 -2.0800 -1.0868
   67MOL   C29936071   3.434   5.824   1.644  0.1847 -0.2447 -0.3238
   67MOL   C30036072   3.308   5.893   1.698 -0.1443 -0.2597 -0.3873
   67MOL   C30136073   3.239   5.810   1.807  0.0927 -0.0031  0.0610
   67MOL   C30236074   3.105   5.862   1.870 -0.5241 -0.5712  0.5517
   67MOL   C30336075   3.051   5.773   1.988  1.0971 -0.1815 -0.3862
   67MOL   O30436076   2.928   5.830   2.037 -0.3249 -0.1624  0.1217
   67MOL   C30536077   2.851   5.768   2.113  0.1138 -0.0575 -1.0436
   67MOL   O30636078   2.872   5.651   2.149 -0.1979  0.0731  0.6001
   67MOL   C30736079   2.715   5.838   2.136 -0.1071  0.6058 -0.0025
   67MOL   C30836080   2.643   5.759   2.243 -0.4781 -0.4038 -0.3641
   67MOL   C30936081   2.641   5.832   1.991 -0.6125  1.0080 -0.0962
   67MOL   H31036082   3.465   5.863   1.547  0.3608  0.6171  0.0761
   67MOL   H31136083   3.421   5.716   1.637  0.0347 -0.2481  0.0072
   67MOL   H31236084   3.516   5.843   1.714 -0.7283 -0.6958  0.8846
   67MOL   H31336085   3.232   5.902   1.620  1.6703  1.0868 -2.0236
   67MOL   H31436086   3.329   5.986   1.751 -1.3792 -0.8111  1.1191
   67MOL   H31536087   3.309   5.800   1.890  0.0482 -0.9404 -0.0104
   67MOL   H31636088   3.223   5.709   1.769 -0.2778  0.1307 -0.1427
   67MOL   H31736089   3.033   5.847   1.789  0.3695  0.3093 -0.4150
   67MOL   H31836090   3.096   5.966   1.905 -3.2741 -0.3550 -0.6695
   67MOL   H31936091   3.022   5.675   1.950  0.9120  0.1930 -1.2138
   67MOL   H32036092   3.119   5.775   2.073  1.1239 -0.4079 -0.4020
   67MOL   H32136093   2.706   5.741   2.331 -0.0944 -1.2636 -0.8039
   67MOL   H32236094   2.555   5.811   2.281 -0.5456  1.1042 -2.5237
   67MOL   H32336095   2.621   5.659   2.206 -0.2645  0.0185 -1.6458
   67MOL   H32436096   2.664   5.743   1.934 -2.4417  0.6861 -0.3543
   67MOL   H32536097   2.677   5.912   1.927 -0.4735 -1.1741 -2.8390
   67MOL   C32636098   2.165   5.314   1.574  0.0321  0.1486 -0.0733
   67MOL   C32736099   2.240   5.443   1.580  0.4907 -0.0346  0.1611
   67MOL   C32836100   2.335   5.457   1.705  1.1699 -0.1938 -0.0428
   67MOL   C32936101   2.268   5.459   1.846 -0.1704  0.1954 -0.4150
   67MOL   C33036102   2.355   5.503   1.963  0.3784  0.7350  0.0191
   67MOL   O33136103   2.435   5.617   1.950  0.8796 -0.1229 -0.2094
   67MOL   C33236104   2.415   5.726   2.024 -0.2787 -0.8426 -0.0892
   67MOL   O33336105   2.338   5.733   2.121  0.0211 -0.5879  0.4739
   67MOL   C33436106   2.485   5.848   1.969  0.3216  0.2169  0.4112
   67MOL   C33536107   2.438   5.977   2.041  0.2789 -0.6004 -0.2363
   67MOL   C33636108   2.458   5.864   1.819  0.4813 -0.0442  0.0336
   67MOL   H33736109   2.087   5.329   1.649  0.0206 -0.6039  0.0751
   67MOL   H33836110   2.232   5.230   1.593  0.0657  0.8992  3.4171
   67MOL   H33936111   2.123   5.280   1.478  0.5582 -2.5788  0.6147
   67MOL   H34036112   2.166   5.524   1.575 -0.0321 -0.5949 -1.5982
   67MOL   H34136113   2.303   5.458   1.493  2.6505 -0.4935  1.6201
   67MOL   H34236114   2.392   5.547   1.681 -0.6480  1.4686  1.6902
   67MOL   H34336115   2.403   5.373   1.694  1.1579 -0.1948 -0.1171
   67MOL   H34436116   2.236   5.357   1.865 -3.0076  0.9377 -0.9781
   67MOL   H34536117   2.176   5.517   1.857  0.5216  1.5798 -1.6544
   67MOL   H34636118   2.419   5.420   1.993 -2.2439 -1.1359  0.6309
   67MOL   H34736119   2.294   5.503   2.053  0.8806  1.3677  0.3567
   67MOL   H34836120   2.496   6.061   2.004  1.7514 -1.3496  0.3304
   67MOL   H34936121   2.440   5.985   2.150  2.2842  2.6522 -0.4563
   67MOL   H35036122   2.335   6.005   2.020 -0.3403 -1.5605  1.3338
   67MOL   H35136123   2.485   5.765   1.783 -0.4603  0.2408 -1.4966
   67MOL   H35236124   2.531   5.928   1.770 -1.7093  1.0731 -1.8618
   67MOL   C35336125   1.793   6.572   1.601 -0.6127 -0.0424  0.1728
   67MOL   C35436126   1.847   6.435   1.571  0.1951  0.9506 -0.2356
   67MOL   C35536127   1.980   6.406   1.647 -0.2544 -0.1941 -0.4214
   67MOL   C35636128   2.018   6.258   1.628 -0.1038 -0.8490  0.4856
   67MOL   C35736129   2.145   6.233   1.703  0.5781 -0.3404  0.0030
   67MOL   O35836130   2.181   6.098   1.711 -0.1106 -0.0691  0.0724
   67MOL   C35936131   2.301   6.055   1.758  0.0411  1.0290 -0.2478
   67MOL   O36036132   2.394   6.132   1.784  0.1399  0.6779  0.0108
   67MOL   C36136133   2.318   5.905   1.757 -0.4964  0.0944  0.3165
   67MOL   C36236134   2.198   5.847   1.835  0.3224 -0.3492 -0.8068
   67MOL   C36336135   2.314   5.855   1.610 -0.4784 -0.0035 -0.1108
   67MOL   H36436136   1.844   6.663   1.569  1.8734 -0.8202  1.7344
   67MOL   H36536137   1.780   6.582   1.709 -0.7175 -1.2899  0.2896
   67MOL   H36636138   1.693   6.579   1.558 -1.4467  1.1583  2.2461
   67MOL   H36736139   1.777   6.361   1.611  2.7316  0.4047  3.5035
   67MOL   H36836140   1.855   6.416   1.464  1.4900  2.9995 -0.5337
   67MOL   H36936141   1.967   6.424   1.754  0.4955 -0.6272 -0.2536
   67MOL   H37036142   2.065   6.468   1.617 -0.6023  0.8222  0.6417
   67MOL   H37136143   2.011   6.218   1.527 -2.4243  0.8730 -0.0859
   67MOL   H37236144   1.938   6.207   1.682  1.3222 -2.0547  1.5232
   67MOL   H37336145   2.233   6.283   1.663 -0.2374  0.3067 -1.0021
   67MOL   H37436146   2.141   6.269   1.805  3.2277  0.8795 -0.2954
   67MOL   H37536147   2.101   5.870   1.790 -0.2588  0.0461  0.6177
   67MOL   H37636148   2.215   5.740   1.849  0.6396 -0.3565 -1.2508
   67MOL   H37736149   2.203   5.889   1.936  1.4346 -2.6454  0.1173
   67MOL   H37836150   2.287   5.750   1.603 -0.2581 -0.0171 -0.8197
   67MOL   H37936151   2.228   5.903   1.563  2.0245  2.2773 -2.5547
   67MOL   C38036152   2.968   5.846   1.334 -0.0845 -0.3746 -0.2495
   67MOL   C38136153   2.861   5.928   1.410 -0.0570 -0.0789  0.4884
   67MOL   C38236154   2.911   6.020   1.523  0.7711 -0.5675 -0.4794
   67MOL   C38336155   2.817   6.073   1.633 -0.6590 -0.6540 -0.8230
   67MOL   C38436156   2.683   6.124   1.579 -0.1570  0.2441  0.4736
   67MOL   O38536157   2.611   6.004   1.560  0.3588 -0.9880 -0.4083
   67MOL   C38636158   2.496   6.015   1.497 -0.1145  0.6853  1.0357
   67MOL   O38736159   2.452   6.121   1.446 -0.6822 -0.0241 -0.1095
   67MOL   C38836160   2.422   5.871   1.495  0.1819 -0.2194  0.4044
   67MOL   C38936161   2.529   5.759   1.514 -0.0463 -0.3949 -0.3491
   67MOL   C39036162   2.335   5.853   1.362 -0.4995  0.6702 -0.3487
   67MOL   H39136163   3.063   5.898   1.343 -0.0607 -0.2520 -1.1461
   67MOL   H39236164   2.986   5.745   1.372  0.8962 -0.5720 -1.2357
   67MOL   H39336165   2.943   5.829   1.230 -1.7752 -1.6196  0.3299
   67MOL   H39436166   2.783   5.858   1.442 -3.6938  2.6012 -2.0842
   67MOL   H39536167   2.800   5.981   1.337  0.0539 -0.8713 -0.1822
   67MOL   H39636168   2.992   5.974   1.580  1.9431  0.3377 -1.3737
   67MOL   H39736169   2.956   6.109   1.479  1.1116 -1.6754 -2.4481
   67MOL   H39836170   2.807   6.003   1.715  0.5739  1.4640  1.1956
   67MOL   H39936171   2.870   6.158   1.676 -1.4128 -0.3091 -0.5696
   67MOL   H40036172   2.687   6.170   1.481  0.3490  1.8598  1.2402
   67MOL   H40136173   2.630   6.182   1.654 -2.2051 -2.4846  1.2044
   67MOL   H40236174   2.583   5.765   1.608 -0.0862  0.0303 -0.3513
   67MOL   H40336175   2.598   5.770   1.431 -0.1382 -2.2802 -0.6942
   67MOL   H40436176   2.484   5.660   1.519  3.0207 -1.8069  0.1416
   67MOL   H40536177   2.289   5.950   1.347 -0.0292  0.8931 -0.3642
   67MOL   H40636178   2.257   5.779   1.379  0.9960 -1.2219 -1.5507
   67MOL   C40736179   2.487   6.351   0.715 -0.7644  0.6827  0.9123
   67MOL   C40836180   2.422   6.346   0.856 -0.0778 -0.2650  0.8987
   67MOL   C40936181   2.447   6.205   0.924 -0.6000  0.7141 -0.2837
   67MOL   C41036182   2.532   6.219   1.050 -0.4838  0.0630  0.0848
   67MOL   C41136183   2.599   6.098   1.118 -0.0614  0.7894 -0.8479
   67MOL   O41236184   2.500   6.007   1.155 -0.0399  0.1946  0.1078
   67MOL   C41336185   2.528   5.884   1.191  0.7344 -0.1816  0.0048
   67MOL   O41436186   2.642   5.833   1.197 -0.1671  0.3557 -0.1637
   67MOL   C41536187   2.398   5.811   1.223 -0.4047 -0.2394 -0.1241
   67MOL   C41636188   2.435   5.662   1.227  0.1682 -0.1703 -0.4244
   67MOL   C41736189   2.285   5.837   1.115  0.1243 -0.3226  0.7038
   67MOL   H41836190   2.456   6.266   0.655  2.0148  0.7804 -0.7409
   67MOL   H41936191   2.487   6.442   0.655  3.6058 -1.2033 -2.2103
   67MOL   H42036192   2.592   6.328   0.733 -0.7692 -1.2218 -1.3413
   67MOL   H42136193   2.315   6.353   0.837  0.3770  2.4845 -0.9607
   67MOL   H42236194   2.442   6.433   0.917 -1.2055  1.5912 -1.3026
   67MOL   H42336195   2.353   6.154   0.945 -0.0650 -0.3981 -0.5835
   67MOL   H42436196   2.497   6.142   0.849 -1.1325  1.3762 -1.2070
   67MOL   H42536197   2.461   6.259   1.122 -0.8361 -1.6360  0.7001
   67MOL   H42636198   2.610   6.294   1.033  0.8288 -1.0631  1.0247
   67MOL   H42736199   2.671   6.051   1.051  0.1955  0.1647 -0.1367
   67MOL   H42836200   2.654   6.113   1.211 -0.5035  0.5224 -0.5477
   67MOL   H42936201   2.353   5.597   1.258 -0.8470  1.4561  0.3734
   67MOL   H43036202   2.516   5.644   1.299  0.3905 -0.5112 -0.7605
   67MOL   H43136203   2.474   5.622   1.134 -2.3526 -2.1168 -0.7089
   67MOL   H43236204   2.273   5.945   1.114  0.9941 -0.1981 -2.2302
   67MOL   H43336205   2.187   5.808   1.154 -0.7244  3.0320  1.2088
   67MOL   C43436206   1.865   5.085   0.749  0.0888 -1.0531  0.4058
   67MOL   C43536207   1.907   5.232   0.746 -1.0027  0.6242  0.5250
   67MOL   C43636208   2.063   5.259   0.749  0.4815 -0.5046  0.1171
   67MOL   C43736209   2.088   5.414   0.769 -0.6541  0.3784  0.5153
   67MOL   C43836210   2.241   5.447   0.770 -0.0620 -0.5953 -0.4683
   67MOL   O43936211   2.275   5.583   0.816 -0.4023  0.9538 -0.3261
   67MOL   C44036212   2.269   5.628   0.946 -0.3221  0.2712 -0.3911
   67MOL   O44136213   2.252   5.556   1.047 -0.1457 -1.1923 -0.2297
   67MOL   C44236214   2.292   5.784   0.964  1.0413 -0.7175 -0.9526
   67MOL   C44336215   2.429   5.815   0.909 -0.8860  0.6546  0.2957
   67MOL   C44436216   2.191   5.868   0.870 -0.9317  0.4054 -0.4665
   67MOL   H44536217   1.920   5.033   0.828  0.3283 -2.2307 -0.5095
   67MOL   H44636218   1.760   5.073   0.775  0.6851 -1.4817  2.7512
   67MOL   H44736219   1.887   5.029   0.658 -0.2325 -2.3073  1.0828
   67MOL   H44836220   1.868   5.289   0.662  0.8370 -0.4258 -1.0579
   67MOL   H44936221   1.853   5.273   0.832 -0.5447 -1.8625  2.0604
   67MOL   H45036222   2.101   5.211   0.839  0.7609 -0.3774  0.0699
   67MOL   H45136223   2.120   5.218   0.665 -0.7159 -1.3631 -0.2864
   67MOL   H45236224   2.034   5.454   0.854 -2.1046 -0.1083 -0.1577
   67MOL   H45336225   2.057   5.467   0.679 -1.6621  1.5312  1.5283
   67MOL   H45436226   2.296   5.439   0.676  0.2034 -1.9557 -0.2027
   67MOL   H45536227   2.293   5.374   0.831  1.3867  1.6998  1.1088
   67MOL   H45636228   2.416   5.816   0.801  0.3347 -1.3903  0.1027
   67MOL   H45736229   2.478   5.906   0.943  1.5011 -0.1412 -0.9229
   67MOL   H45836230   2.503   5.737   0.923  1.2137  2.1522 -1.9925
   67MOL   H45936231   2.206   5.833   0.768 -2.2984 -0.3843 -0.4024
   67MOL   H46036232   2.228   5.971   0.877 -0.6535  0.4150 -1.9557
   67MOL   C46136233   2.294   6.482   1.435  0.0519  0.1316 -0.2929
   67MOL   C46236234   2.252   6.473   1.293  0.2409 -0.2358 -0.5303
   67MOL   C46336235   2.188   6.331   1.259  0.2442  0.2545  0.1193
   67MOL   C46436236   2.137   6.298   1.113 -0.0690 -0.1824 -0.2988
   67MOL   C46536237   2.027   6.181   1.117 -0.4423 -0.5759  0.4933
   67MOL   O46636238   2.054   6.089   1.015 -0.3757  1.0701  0.1178
   67MOL   C46736239   1.996   5.968   1.016  0.4183  0.8538  0.4875
   67MOL   O46836240   1.925   5.919   1.110 -0.5974 -0.5444  0.3483
   67MOL   C46936241   2.035   5.886   0.884  0.0501  0.5116 -0.1204
   67MOL   C47036242   1.975   5.745   0.911  0.5248 -0.6935  0.2093
   67MOL   C47136243   1.980   5.950   0.746 -0.0177  0.0659 -0.4938
   67MOL   H47236244   2.223   6.548   1.485  1.5669 -0.2326  2.4635
   67MOL   H47336245   2.393   6.527   1.445 -1.0970  2.6786  0.0208
   67MOL   H47436246   2.295   6.383   1.480  0.3967  0.1105 -0.3427
   67MOL   H47536247   2.331   6.489   1.220 -0.2935 -1.9092 -1.4872
   67MOL   H47636248   2.178   6.552   1.278  1.0238  0.8238  1.0568
   67MOL   H47736249   2.107   6.316   1.331  0.3786 -1.8579 -0.1431
   67MOL   H47836250   2.268   6.266   1.294  0.2876 -0.5209 -1.3731
   67MOL   H47936251   2.230   6.261   1.068  0.6362  1.2332 -0.0477
   67MOL   H48036252   2.111   6.381   1.048 -0.2688  0.7071  0.9135
   67MOL   H48136253   2.011   6.142   1.218  1.8225 -0.5786  0.8764
   67MOL   H48236254   1.927   6.225   1.106 -0.4908 -0.9485 -0.5375
   67MOL   H48336255   1.867   5.741   0.921  0.2035 -2.4752 -3.2105
   67MOL   H48436256   2.012   5.699   1.002 -0.2350 -0.8379  0.4450
   67MOL   H48536257   2.006   5.681   0.829 -1.2516 -0.5519 -0.5935
   67MOL   H48636258   2.007   5.872   0.675  0.8453 -0.9461  0.9309
   67MOL   H48736259   2.046   6.035   0.728 -0.1547  0.7194  1.8206
   67MOL   C48836260   1.278   5.622   1.208  0.0143  0.6637 -0.7719
   67MOL   C48936261   1.376   5.690   1.110 -1.0098 -0.2005 -0.8903
   67MOL   C49036262   1.504   5.736   1.178 -0.0654  0.6347 -0.2125
   67MOL   C49136263   1.620   5.791   1.094 -0.1804  0.7545 -0.5710
   67MOL   C49236264   1.593   5.915   0.996 -0.8155 -0.6954  0.3586
   67MOL   O49336265   1.710   5.950   0.932  0.1163 -0.6330 -0.7315
   67MOL   C49436266   1.725   5.914   0.804 -0.0611 -0.2062  0.2074
   67MOL   O49536267   1.675   5.816   0.749  0.4066  0.0555  0.0853
   67MOL   C49636268   1.833   6.001   0.734  0.4608  0.5242 -0.4454
   67MOL   C49736269   1.798   6.000   0.588  0.1004  0.5760 -0.1479
   67MOL   C49836270   1.831   6.150   0.796  0.3143  0.6273 -0.0051
   67MOL   H49936271   1.210   5.559   1.152  2.3660 -2.0937 -0.6882
   67MOL   H50036272   1.327   5.545   1.268  0.3023 -0.1026 -1.9820
   67MOL   H50136273   1.227   5.690   1.276  0.5313  0.2114  0.0813
   67MOL   H50236274   1.321   5.768   1.058  1.9366  1.7059 -1.2865
   67MOL   H50336275   1.397   5.612   1.037  1.8224  0.1221 -0.4618
   67MOL   H50436276   1.465   5.817   1.240 -0.3614 -0.1645  0.6460
   67MOL   H50536277   1.545   5.655   1.239  1.7331  1.1584 -0.6830
   67MOL   H50636278   1.656   5.712   1.028  0.1632  1.2968 -1.0339
   67MOL   H50736279   1.696   5.806   1.170  1.2175 -0.2114 -1.7472
   67MOL   H50836280   1.512   5.900   0.925 -0.1824  0.2020 -0.5636
   67MOL   H50936281   1.572   6.002   1.057 -2.3711 -0.8697  0.0928
   67MOL   H51036282   1.815   5.903   0.542 -2.4969  0.7153 -1.5248
   67MOL   H51136283   1.856   6.075   0.535  0.5578  0.5380  0.2923
   67MOL   H51236284   1.698   6.041   0.573  0.6740  1.0022 -2.9691
   67MOL   H51336285   1.917   6.203   0.756  1.3140  0.7597  2.2603
   67MOL   H51436286   1.852   6.141   0.903  0.9527  0.0869 -0.1712
   67MOL   C51536287   1.307   5.820   0.312  0.2472  0.0461  0.6303
   67MOL   C51636288   1.319   5.814   0.468 -0.6537 -0.2555 -0.0493
   67MOL   C51736289   1.364   5.950   0.522  0.6487 -0.2216  0.1240
   67MOL   C51836290   1.351   5.959   0.676  0.4379 -0.4378 -0.3634
   67MOL   C51936291   1.367   6.101   0.737 -0.7320  0.7787 -0.1624
   67MOL   O52036292   1.512   6.134   0.729  0.1799 -0.6410 -0.1699
   67MOL   C52136293   1.577   6.201   0.826 -0.1834  0.8931 -0.2014
   67MOL   O52236294   1.534   6.217   0.938  0.4304 -0.7729  0.0602
   67MOL   C52336295   1.714   6.256   0.783  0.2791  0.5909  0.5897
   67MOL   C52436296   1.702   6.313   0.634 -0.4589  0.0648  0.6283
   67MOL   C52536297   1.758   6.367   0.886  0.4540 -0.0830  0.2287
   67MOL   H52636298   1.407   5.843   0.274 -0.0629  0.8676  0.3074
   67MOL   H52736299   1.268   5.727   0.272 -2.3603  0.7598  1.4331
   67MOL   H52836300   1.243   5.905   0.290  0.7919  0.4365  0.5285
   67MOL   H52936301   1.214   5.808   0.497 -1.4500 -0.8946 -2.9412
   67MOL   H53036302   1.378   5.733   0.510  0.2804  0.4845  0.0886
   67MOL   H53136303   1.468   5.958   0.489  1.7917  1.0695  3.8313
   67MOL   H53236304   1.305   6.025   0.470 -0.1464 -1.8512 -1.3855
   67MOL   H53336305   1.408   5.885   0.732  0.7098 -0.2793 -0.4296
   67MOL   H53436306   1.247   5.937   0.700  0.2581 -0.9967 -1.5958
   67MOL   H53536307   1.315   6.180   0.682 -0.9817  0.3586 -0.5317
   67MOL   H53636308   1.320   6.106   0.835  2.1390  2.4797  1.1929
   67MOL   H53736309   1.787   6.380   0.621  0.0796 -0.8706 -0.7726
   67MOL   H53836310   1.618   6.380   0.621  0.5419  1.0703 -0.7182
   67MOL   H53936311   1.694   6.241   0.552  0.9151  1.1050 -0.4288
   67MOL   H54036312   1.792   6.316   0.976  1.8068 -1.6354 -1.1350
   67MOL   H54136313   1.678   6.439   0.906  1.5101  1.2748 -0.3594
   67MOL   H54236314   1.836   6.431   0.846  0.3800 -1.0626 -1.5051
   68MOL     C136315   0.514   2.933   3.360 -0.4877  0.1447  0.1201
   68MOL     C236316   0.434   3.000   3.256 -0.1980 -0.2038  0.3363
   68MOL     C336317   0.453   3.156   3.253 -0.0997 -0.0415  0.0448
   68MOL     C436318   0.342   3.230   3.178  0.5869 -0.3501  0.1379
   68MOL     C536319   0.366   3.384   3.185 -0.2515  0.0533  0.6983
   68MOL     O636320   0.291   3.450   3.083 -0.1493 -0.0211  0.5257
   68MOL     C736321   0.158   3.459   3.095 -0.2514 -0.5592 -0.0307
   68MOL     O836322   0.097   3.441   3.197  0.2866  0.1728 -0.0156
   68MOL     C936323   0.096   3.505   2.965 -0.5132  0.4568  0.0313
   68MOL    C1036324   7.765   3.541   2.982 -0.5715 -0.6895  0.4397
   68MOL    C1136325   0.117   3.396   2.851 -0.2696 -0.2430  0.0063
   68MOL    H1236326   0.505   2.956   3.466  2.7372  1.8373  0.0713
   68MOL    H1336327   0.620   2.947   3.338 -0.1381 -1.3616  0.7900
   68MOL    H1436328   0.494   2.826   3.352 -1.8289  0.3897 -0.0145
   68MOL    H1536329   0.442   2.959   3.155  1.0880 -0.3516  0.4861
   68MOL    H1636330   0.329   2.985   3.280 -1.1808 -2.9282 -4.9375
   68MOL    H1736331   0.453   3.187   3.357  3.0299  0.1919  0.0301
   68MOL    H1836332   0.550   3.187   3.214  0.1977  1.8977  2.2048
   68MOL    H1936333   0.252   3.207   3.234 -0.5514  0.1631 -1.4280
   68MOL    H2036334   0.327   3.209   3.072 -0.4393 -2.0821  0.6093
   68MOL    H2136335   0.350   3.414   3.288  0.7497 -1.0731  1.1862
   68MOL    H2236336   0.472   3.399   3.166 -0.2750 -0.5859  0.0248
   68MOL    H2336337   7.699   3.454   2.994  0.1207 -1.2336  0.3256
   68MOL    H2436338   7.736   3.586   2.887  1.8747 -0.4046 -0.1940
   68MOL    H2536339   7.744   3.612   3.062  0.1577 -0.1502  0.1597
   68MOL    H2636340   0.024   3.343   2.829  0.4763 -1.5446 -0.0453
   68MOL    H2736341   0.175   3.308   2.875 -1.7266 -0.8167  1.4933
   68MOL    H2836342   0.153   3.596   2.947 -0.0886  0.0887 -0.5181
   68MOL    C2936343   0.950   3.480   3.078  0.2393 -0.0023  0.3080
   68MOL    C3036344   0.797   3.441   3.048  0.0858  0.7442  1.1178
   68MOL    C3136345   0.744   3.457   2.901 -0.8360 -0.0990 -0.2849
   68MOL    C3236346   0.592   3.445   2.892  0.9160  0.4406  0.2598
   68MOL    C3336347   0.531   3.456   2.753  0.3476  0.2971  0.4825
   68MOL    O3436348   0.397   3.428   2.747 -0.0543  0.3936 -0.5192
   68MOL    C3536349   0.307   3.518   2.732 -0.0429 -0.1975 -1.4005
   68MOL    O3636350   0.325   3.637   2.708  0.8651 -0.3164  0.4198
   68MOL    C3736351   0.168   3.449   2.713  0.4836  0.0544  0.2757
   68MOL    C3836352   0.061   3.551   2.661  0.8200 -0.1256  0.1535
   68MOL    C3936353   0.180   3.322   2.618 -0.3660 -0.5423 -0.4420
   68MOL    H4036354   0.954   3.587   3.096 -2.3111 -0.1316  1.9461
   68MOL    H4136355   0.984   3.425   3.166  2.6645  1.7311  0.4716
   68MOL    H4236356   1.006   3.447   2.991  0.7475  1.5965  0.0136
   68MOL    H4336357   0.735   3.505   3.111  1.0343  1.6675  1.1440
   68MOL    H4436358   0.770   3.338   3.070 -0.5250  0.6945  0.1716
   68MOL    H4536359   0.787   3.377   2.841 -0.5423  0.2908 -0.5900
   68MOL    H4636360   0.766   3.555   2.858  0.5020  0.8642  2.4647
   68MOL    H4736361   0.555   3.356   2.943 -1.6691 -0.4057 -2.9119
   68MOL    H4836362   0.545   3.524   2.950 -2.4154 -0.0128 -1.6635
   68MOL    H4936363   0.590   3.387   2.692  1.2746  0.1558  1.5270
   68MOL    H5036364   0.536   3.556   2.709 -2.4362  0.2512 -0.0340
   68MOL    H5136365   0.094   3.593   2.566  0.4126 -2.5671 -1.1148
   68MOL    H5236366   0.065   3.634   2.730 -1.5919  1.2417 -1.2788
   68MOL    H5336367   7.776   3.507   2.647 -0.5624  2.5779  1.2029
   68MOL    H5436368   0.074   3.297   2.608 -0.0931 -1.0758 -2.1135
   68MOL    H5536369   0.222   3.233   2.665 -1.8743 -3.0570 -3.6360
   68MOL    C5636370   0.713   3.071   2.988  0.0089  0.2717 -0.2002
   68MOL    C5736371   0.670   2.993   2.862 -0.0601  0.0067  0.6925
   68MOL    C5836372   0.587   3.089   2.768  0.6024  0.0122 -0.5598
   68MOL    C5936373   0.560   3.032   2.620 -0.7164  0.0284  0.0516
   68MOL    C6036374   0.548   3.138   2.513  0.0701 -0.3939  0.0111
   68MOL    O6136375   0.410   3.180   2.520 -0.3328  0.2817 -0.5108
   68MOL    C6236376   0.379   3.299   2.459  0.1870  0.6722  0.5891
   68MOL    O6336377   0.462   3.367   2.393  0.3411  0.0841 -0.3665
   68MOL    C6436378   0.227   3.325   2.462  0.2858 -0.1821  0.1221
   68MOL    C6536379   0.196   3.458   2.388  0.1040  0.2389  1.2193
   68MOL    C6636380   0.150   3.212   2.388  0.3393  0.4304 -0.3175
   68MOL    H6736381   0.618   3.103   3.032 -0.7814 -2.6828  0.3617
   68MOL    H6836382   0.796   3.134   2.958  0.4920 -0.0342  0.4980
   68MOL    H6936383   0.753   2.995   3.055  0.5698  0.2597 -0.5475
   68MOL    H7036384   0.759   2.951   2.817  0.1142 -0.9029  1.8555
   68MOL    H7136385   0.595   2.916   2.878 -1.3767  1.3383  1.0871
   68MOL    H7236386   0.495   3.125   2.813  0.3611  2.1630 -2.6685
   68MOL    H7336387   0.654   3.173   2.751  1.2908 -0.5458 -0.6214
   68MOL    H7436388   0.474   2.965   2.625  1.1670 -2.3675  1.7415
   68MOL    H7536389   0.648   2.972   2.593  0.9702  1.3815  2.3478
   68MOL    H7636390   0.623   3.216   2.523  0.8540 -0.8159 -2.1386
   68MOL    H7736391   0.564   3.089   2.417 -1.7889  0.2130 -0.6344
   68MOL    H7836392   0.252   3.539   2.434  1.0198 -0.2002  0.8819
   68MOL    H7936393   0.089   3.474   2.373  0.5074  0.4741 -1.7032
   68MOL    H8036394   0.226   3.465   2.284 -1.4388 -0.0431  0.7362
   68MOL    H8136395   0.042   3.224   2.394  0.3327  0.8564 -1.3119
   68MOL    H8236396   0.155   3.127   2.456 -4.6257  0.6230  0.4679
   68MOL    C8336397   7.808   3.865   2.153 -0.6568 -0.7699  0.3589
   68MOL    C8436398   0.061   3.784   2.031 -0.1535 -0.0108 -0.0788
   68MOL    C8536399   0.039   3.625   2.036  0.1591  0.3368  0.0709
   68MOL    C8636400   0.137   3.543   1.946 -0.0391  0.2887  1.0189
   68MOL    C8736401   0.119   3.398   1.939 -0.8998 -0.0381 -0.0792
   68MOL    O8836402   0.177   3.333   2.052  0.0007 -0.2879 -0.1488
   68MOL    C8936403   0.102   3.269   2.136  0.6384 -0.7326 -0.1740
   68MOL    O9036404   7.793   3.281   2.147  0.1127 -0.2042  0.5215
   68MOL    C9136405   0.177   3.164   2.231 -0.3991  0.1146  0.3744
   68MOL    C9236406   0.328   3.164   2.190  0.2582  0.1967  0.0114
   68MOL    C9336407   0.097   3.028   2.214  0.3090  0.4666  0.3657
   68MOL    H9436408   0.020   3.970   2.139 -0.3881 -0.5818  2.2268
   68MOL    H9536409   7.700   3.882   2.158 -0.3822  0.6741  1.5779
   68MOL    H9636410   0.035   3.825   2.245  0.3141  1.3138  0.8527
   68MOL    H9736411   0.169   3.803   2.038 -0.2102 -0.5614  3.2685
   68MOL    H9836412   0.025   3.816   1.934  1.0638 -0.0962 -0.5701
   68MOL    H9936413   7.751   3.602   2.007  0.4757 -2.5995  1.1516
   68MOL   H10036414   0.047   3.583   2.137 -0.3190 -2.5752 -1.0615
   68MOL   H10136415   0.228   3.573   1.999  0.7854  3.5821 -1.9604
   68MOL   H10236416   0.136   3.585   1.845 -0.4224  1.0751  1.3403
   68MOL   H10336417   0.169   3.353   1.853  1.4152  1.5669  0.3948
   68MOL   H10436418   0.015   3.371   1.916 -1.3446  1.5493  0.0247
   68MOL   H10536419   0.338   3.126   2.088  0.5790  0.9135 -0.2223
   68MOL   H10636420   0.395   3.107   2.254 -0.0843  2.1379  2.1525
   68MOL   H10736421   0.374   3.262   2.189  0.3429  0.1832  2.0353
   68MOL   H10836422   0.116   2.974   2.307 -1.0930 -1.6654 -0.5717
   68MOL   H10936423   7.807   3.054   2.233 -0.5271 -2.3234 -0.2337
   68MOL   C11036424   0.883   2.879   1.836  0.3487 -0.6502  0.6308
   68MOL   C11136425   0.760   2.935   1.911 -0.4966 -1.2196  0.3662
   68MOL   C11236426   0.670   2.823   1.963  0.6768  0.0921 -0.5718
   68MOL   C11336427   0.531   2.869   2.000 -0.2660 -0.0193 -0.0857
   68MOL   C11436428   0.442   2.744   2.025 -0.1797 -0.1538  0.3839
   68MOL   O11536429   0.303   2.774   2.027  0.4696  0.4385  0.2331
   68MOL   C11636430   0.250   2.849   2.126  0.6869  0.6560 -0.6472
   68MOL   O11736431   0.312   2.856   2.235 -0.0809  0.4603  0.3879
   68MOL   C11836432   0.106   2.920   2.103 -0.5021  0.1647 -0.3899
   68MOL   C11936433   0.103   2.984   1.965  0.5005 -0.2029 -0.1629
   68MOL   C12036434   7.798   2.822   2.141  0.8533  0.4245  0.9725
   68MOL   H12136435   0.849   2.850   1.736  1.2048 -0.1507  0.1869
   68MOL   H12236436   0.967   2.948   1.826 -0.8160  1.7609  5.7980
   68MOL   H12336437   0.915   2.784   1.878 -2.3701 -1.3680  1.1764
   68MOL   H12436438   0.789   3.004   1.990  0.4928  0.8421 -1.7662
   68MOL   H12536439   0.713   3.004   1.842 -0.5413 -0.1534  1.4510
   68MOL   H12636440   0.676   2.740   1.893 -3.5130 -1.6287  0.9651
   68MOL   H12736441   0.714   2.766   2.044 -0.5018 -3.7698 -2.5423
   68MOL   H12836442   0.499   2.920   1.909  0.9981  1.6965  0.3977
   68MOL   H12936443   0.523   2.943   2.079 -4.4284  0.4376 -0.8119
   68MOL   H13036444   0.459   2.663   1.955 -3.7565 -0.4018 -0.2624
   68MOL   H13136445   0.453   2.699   2.124 -0.8619 -0.3416  0.3755
   68MOL   H13236446   0.104   2.911   1.884 -0.6548 -1.6006  1.0521
   68MOL   H13336447   0.020   3.052   1.950  1.1958  0.9777  1.2494
   68MOL   H13436448   0.195   3.040   1.949  1.4161 -0.8375  2.5833
   68MOL   H13536449   7.782   2.820   2.249 -1.1537  1.5596  0.7360
   68MOL   H13636450   7.713   2.882   2.106  0.2711 -1.1914 -0.4728
   68MOL   C13736451   7.224   2.824   1.711 -0.3137  0.6660 -0.0793
   68MOL   C13836452   7.349   2.869   1.643 -0.5628  0.7642  0.5195
   68MOL   C13936453   7.471   2.800   1.713  1.1320  0.4466  0.5157
   68MOL   C14036454   7.608   2.850   1.658  0.5019 -0.7890 -0.0733
   68MOL   C14136455   7.728   2.773   1.715 -0.1514 -0.2567 -0.2545
   68MOL   O14236456   7.734   2.766   1.856 -0.7252 -0.1498 -0.1751
   68MOL   C14336457   7.812   2.677   1.923 -0.4327 -0.1631 -0.2844
   68MOL   O14436458   0.076   2.606   1.861 -0.1984 -0.6210  0.2926
   68MOL   C14536459   7.781   2.675   2.077  0.5513 -0.1204 -0.0654
   68MOL   C14636460   0.053   2.579   2.153 -0.6680  0.7739 -0.2558
   68MOL   C14736461   7.633   2.645   2.114 -0.2838  0.0627  0.3413
   68MOL   H14836462   7.190   2.723   1.687  1.9579  0.2294 -1.5374
   68MOL   H14936463   7.134   2.884   1.702  0.3032  1.6422  0.2462
   68MOL   H15036464   7.243   2.833   1.818 -0.3459 -0.9994  0.0875
   68MOL   H15136465   7.357   2.975   1.664  0.1913  0.6500  0.8174
   68MOL   H15236466   7.355   2.853   1.535  1.6959  1.0291  0.5840
   68MOL   H15336467   7.464   2.818   1.820 -1.5387  1.8634  0.1627
   68MOL   H15436468   7.461   2.693   1.697 -0.1469  0.2690  2.3629
   68MOL   H15536469   7.600   2.824   1.552  1.2151  0.7811 -0.5319
   68MOL   H15636470   7.625   2.957   1.669 -0.6556 -0.5827 -0.2454
   68MOL   H15736471   0.003   2.825   1.679  0.0125 -0.4258 -0.0951
   68MOL   H15836472   7.727   2.675   1.668  0.8291  0.8121 -2.5882
   68MOL   H15936473   0.044   2.572   2.262  0.1295 -1.9638 -0.3218
   68MOL   H16036474   0.158   2.587   2.124 -1.2913  0.2403 -2.7283
   68MOL   H16136475   0.027   2.474   2.136  0.9075  0.8094 -3.1433
   68MOL   H16236476   7.604   2.677   2.214 -0.8322 -2.3729  0.9850
   68MOL   H16336477   7.582   2.720   2.053  2.5813  3.4003  1.8696
   68MOL   C16436478   7.628   2.673   2.815  0.3503  0.4202  0.0705
   68MOL   C16536479   7.529   2.579   2.737 -0.4393 -0.7564  0.4421
   68MOL   C16636480   7.593   2.517   2.610  0.3829 -0.1815 -1.0064
   68MOL   C16736481   7.502   2.411   2.551 -0.0359  0.0262 -0.1151
   68MOL   C16836482   7.568   2.364   2.428  0.0301  0.4280 -0.3170
   68MOL   O16936483   7.562   2.462   2.326 -0.6790  0.3691 -0.0801
   68MOL   C17036484   7.590   2.418   2.197  0.7593 -0.3335  0.3398
   68MOL   O17136485   7.642   2.309   2.177  0.1013  0.2483  0.4366
   68MOL   C17236486   7.550   2.517   2.087 -0.2518 -0.1274 -0.1330
   68MOL   C17336487   7.577   2.457   1.949  0.5058 -0.6362 -0.2288
   68MOL   C17436488   7.390   2.553   2.096  0.4179  0.3986  0.4636
   68MOL   H17536489   7.718   2.623   2.852 -1.0914 -2.6383 -0.3978
   68MOL   H17636490   7.585   2.718   2.905 -0.6532 -0.5910  0.1059
   68MOL   H17736491   7.651   2.754   2.746  2.2665 -1.0396 -1.0485
   68MOL   H17836492   7.438   2.628   2.705 -0.0047  0.8522  1.6270
   68MOL   H17936493   7.486   2.501   2.800 -0.0971 -1.5178 -0.2611
   68MOL   H18036494   7.614   2.581   2.524 -1.5906  0.3459 -1.1083
   68MOL   H18136495   7.685   2.466   2.640  0.3196 -1.8885 -3.5173
   68MOL   H18236496   7.401   2.449   2.536  0.5368  0.5802 -2.8853
   68MOL   H18336497   7.494   2.324   2.616 -1.2927 -1.0138 -1.6588
   68MOL   H18436498   7.503   2.280   2.404 -0.0441  0.1842  0.7177
   68MOL   H18536499   7.663   2.314   2.446  0.5615  0.5030 -2.6866
   68MOL   H18636500   7.553   2.533   1.874  1.8032  0.6109  0.5939
   68MOL   H18736501   7.523   2.363   1.939  0.1754 -0.3666 -1.0160
   68MOL   H18836502   7.685   2.443   1.952  0.5701  0.1403  1.3535
   68MOL   H18936503   7.367   2.551   2.203 -0.5521 -3.8161  0.2303
   68MOL   H19036504   7.393   2.660   2.072 -0.7255  0.7687  1.8968
   68MOL   C19136505   6.838   1.828   1.895  0.7153 -0.2671 -0.3548
   68MOL   C19236506   6.954   1.800   1.989 -0.2030  0.4577  0.0908
   68MOL   C19336507   7.077   1.890   1.957  0.2002  0.5588 -0.3219
   68MOL   C19436508   7.057   2.044   1.985  0.2427  0.4074  0.2011
   68MOL   C19536509   7.190   2.115   1.961 -0.2879  0.3474  0.0765
   68MOL   O19636510   7.176   2.252   1.983 -0.5448  0.3448 -0.1258
   68MOL   C19736511   7.275   2.325   2.049 -0.1528 -0.3087 -0.4925
   68MOL   O19836512   7.358   2.269   2.113 -0.2113 -0.2417 -0.5819
   68MOL   C19936513   7.270   2.484   2.040  0.3585 -0.0011 -0.4804
   68MOL   C20036514   7.270   2.513   1.886 -0.2886  0.2589  0.2461
   68MOL   C20136515   7.137   2.543   2.103 -0.0005 -0.0872  0.6748
   68MOL   H20236516   6.871   1.816   1.791 -1.2065 -0.1518 -0.9910
   68MOL   H20336517   6.751   1.763   1.904  0.3958  0.3757  1.3775
   68MOL   H20436518   6.799   1.929   1.904 -1.5166 -0.9874 -1.5656
   68MOL   H20536519   6.981   1.695   1.982 -0.9637  0.0467  2.6035
   68MOL   H20636520   6.924   1.818   2.093  0.5616  1.1447  0.2048
   68MOL   H20736521   7.100   1.876   1.851 -0.6619  0.0091 -0.4359
   68MOL   H20836522   7.167   1.857   2.009  1.0968  1.9346 -0.9673
   68MOL   H20936523   6.981   2.094   1.926  0.1526 -1.5444 -1.3709
   68MOL   H21036524   7.023   2.051   2.089 -1.7156 -2.1690 -0.2335
   68MOL   H21136525   7.276   2.075   2.015  0.3737 -0.5759 -1.6570
   68MOL   H21236526   7.227   2.104   1.859 -0.5060 -2.4742  0.2821
   68MOL   H21336527   7.332   2.440   1.833 -0.9390 -0.5517  0.5842
   68MOL   H21436528   7.308   2.614   1.873 -0.0018  0.5163  2.7542
   68MOL   H21536529   7.165   2.509   1.856 -0.4693  0.4553  0.8390
   68MOL   H21636530   7.057   2.484   2.058  1.0850  0.4296 -2.0335
   68MOL   H21736531   7.133   2.644   2.062  0.3419 -0.6779 -0.8663
   68MOL   C21836532   6.859   2.863   2.892  0.4472 -0.8473 -0.1867
   68MOL   C21936533   6.998   2.814   2.861 -0.2299 -0.5023 -0.4020
   68MOL   C22036534   7.025   2.776   2.716  0.6815 -0.5316 -0.2441
   68MOL   C22136535   7.182   2.761   2.688  0.7300  0.0392 -0.5641
   68MOL   C22236536   7.218   2.783   2.541  0.1033 -0.2922  0.7342
   68MOL   O22336537   7.150   2.690   2.465  0.0362 -0.1332 -0.0139
   68MOL   C22436538   7.181   2.679   2.331  0.4425  0.0752  0.4390
   68MOL   O22536539   7.261   2.750   2.266  0.6367 -0.0341 -0.3800
   68MOL   C22636540   7.109   2.554   2.255 -0.2371  0.4462 -0.1794
   68MOL   C22736541   7.150   2.423   2.329 -0.2978  0.3355 -0.0753
   68MOL   C22836542   6.955   2.553   2.272  0.2522  0.5441 -0.7458
   68MOL   H22936543   6.841   2.904   2.992  1.1955 -1.8629  0.3709
   68MOL   H23036544   6.828   2.942   2.824  1.5210 -0.1186  0.1631
   68MOL   H23136545   6.792   2.779   2.870 -0.5000  0.0897 -0.9428
   68MOL   H23236546   7.025   2.736   2.931 -3.0773 -1.7253 -0.6078
   68MOL   H23336547   7.048   2.907   2.889 -0.7088 -0.7769  1.4148
   68MOL   H23436548   6.978   2.838   2.640 -2.8532 -4.5427 -1.4746
   68MOL   H23536549   6.990   2.674   2.704  0.5525 -0.4148 -0.8352
   68MOL   H23636550   7.227   2.843   2.745 -1.4771  0.9852 -0.1084
   68MOL   H23736551   7.209   2.663   2.728 -0.4414 -0.4303 -0.9223
   68MOL   H23836552   7.323   2.757   2.525  0.0283  0.7022 -1.5817
   68MOL   H23936553   7.214   2.888   2.511 -2.2853 -0.4743  0.3315
   68MOL   H24036554   7.256   2.399   2.331 -0.2486  0.5844  0.6283
   68MOL   H24136555   7.096   2.341   2.281  1.2089 -0.0334 -1.1519
   68MOL   H24236556   7.131   2.434   2.436 -0.6636 -3.5874  0.3188
   68MOL   H24336557   6.948   2.581   2.377 -2.6117 -0.8555 -0.5194
   68MOL   H24436558   6.925   2.449   2.262  0.5069  0.3412  0.5592
   68MOL   C24536559   6.353   2.172   1.960 -0.2623 -0.0848  0.8987
   68MOL   C24636560   6.434   2.239   2.067 -0.2608 -0.9121 -0.1213
   68MOL   C24736561   6.583   2.264   2.046 -0.2470 -0.3012 -0.3645
   68MOL   C24836562   6.626   2.361   1.935 -0.2406  0.2759  0.2190
   68MOL   C24936563   6.777   2.374   1.939 -0.4549 -0.9012  0.1501
   68MOL   O25036564   6.811   2.450   2.057  1.0893 -0.1351  0.1199
   68MOL   C25136565   6.836   2.582   2.048  0.0026  0.1898  0.4697
   68MOL   O25236566   6.849   2.650   1.945 -0.1761  0.6401  0.0397
   68MOL   C25336567   6.852   2.640   2.193  0.5895 -0.7617 -0.3909
   68MOL   C25436568   6.902   2.782   2.183  0.9432 -0.5504 -0.0280
   68MOL   C25536569   6.708   2.630   2.255  0.0493  0.0678 -0.4855
   68MOL   H25636570   6.398   2.079   1.926 -1.0832 -1.1756  2.7742
   68MOL   H25736571   6.252   2.151   1.996 -0.7821  0.4705 -0.2000
   68MOL   H25836572   6.340   2.250   1.884  0.8561 -0.0912  0.6919
   68MOL   H25936573   6.389   2.337   2.086 -0.2650 -1.4606  3.0752
   68MOL   H26036574   6.414   2.185   2.160 -2.4872 -1.1254 -0.6831
   68MOL   H26136575   6.645   2.175   2.041 -0.5652 -0.4846 -1.0940
   68MOL   H26236576   6.624   2.310   2.136 -0.4690  1.0220 -0.9289
   68MOL   H26336577   6.587   2.318   1.842  0.9780 -0.9097  0.2379
   68MOL   H26436578   6.597   2.464   1.956  0.1389  0.0651  1.8043
   68MOL   H26536579   6.813   2.271   1.934 -1.1353 -1.0732 -1.4421
   68MOL   H26636580   6.811   2.432   1.854  1.7356 -0.2412  1.4262
   68MOL   H26736581   6.951   2.821   2.273  1.2109  0.1607 -0.4819
   68MOL   H26836582   6.983   2.788   2.110  1.3064  2.9610  0.5568
   68MOL   H26936583   6.827   2.854   2.152  0.7000 -0.9663 -0.4036
   68MOL   H27036584   6.658   2.711   2.204  0.1053  0.4986  0.1349
   68MOL   H27136585   6.657   2.544   2.212 -1.2633  0.8209 -0.4572
   68MOL   C27236586   6.617   1.902   2.236  0.5091  0.2734  0.3613
   68MOL   C27336587   6.727   1.986   2.300  0.2310 -0.0138  0.0184
   68MOL   C27436588   6.686   2.089   2.396  0.2159  0.8021 -0.1185
   68MOL   C27536589   6.795   2.188   2.445 -0.6126 -0.4272  0.4690
   68MOL   C27636590   6.744   2.313   2.523  0.5587  0.3121  0.2235
   68MOL   O27736591   6.715   2.420   2.442  0.5330 -0.0183 -0.5361
   68MOL   C27836592   6.716   2.536   2.501  0.0082  1.1744 -0.5642
   68MOL   O27936593   6.735   2.559   2.619 -0.0289 -0.4083 -0.0131
   68MOL   C28036594   6.676   2.648   2.409  0.4351 -0.2431 -0.3343
   68MOL   C28136595   6.743   2.776   2.456  0.0630 -0.0999  1.4332
   68MOL   C28236596   6.520   2.677   2.437  0.8609  0.2252 -0.4207
   68MOL   H28336597   6.562   1.957   2.160  2.1022  0.7464 -0.4701
   68MOL   H28436598   6.655   1.812   2.187 -1.1379 -2.1630  3.3927
   68MOL   H28536599   6.538   1.885   2.310 -1.2392 -1.2396 -1.8112
   68MOL   H28636600   6.800   1.930   2.359  0.4313 -1.5394 -1.6378
   68MOL   H28736601   6.791   2.033   2.225  0.0646  0.4737  0.1795
   68MOL   H28836602   6.613   2.149   2.342  0.5082  1.7199  0.4951
   68MOL   H28936603   6.650   2.035   2.483  0.8604  1.2857  0.4507
   68MOL   H29036604   6.873   2.128   2.492 -0.9528 -0.0149  1.5910
   68MOL   H29136605   6.842   2.225   2.354  0.2316 -0.4081  0.9064
   68MOL   H29236606   6.829   2.343   2.585  0.5873  3.1104 -1.0611
   68MOL   H29336607   6.661   2.286   2.588  0.0582 -0.2092 -0.6234
   68MOL   H29436608   6.708   2.823   2.548 -1.8270  1.4144 -0.0280
   68MOL   H29536609   6.850   2.759   2.469  0.2969  1.2367  1.3210
   68MOL   H29636610   6.728   2.861   2.390  1.8475  1.1324  2.5462
   68MOL   H29736611   6.509   2.669   2.546  0.8338 -0.6208 -0.4797
   68MOL   H29836612   6.507   2.782   2.411  1.4764  0.8139  1.5374
   68MOL   C29936613   5.979   2.376   2.267 -0.6857  0.0398 -0.9546
   68MOL   C30036614   5.949   2.508   2.194 -0.2696 -0.2694  0.5268
   68MOL   C30136615   5.985   2.524   2.044  1.1154 -0.2604 -0.0129
   68MOL   C30236616   6.129   2.488   1.998  0.6164  0.3377 -0.8215
   68MOL   C30336617   6.233   2.579   2.057 -0.7920  0.7599 -0.4703
   68MOL   O30436618   6.269   2.552   2.189 -0.1680  0.1060  0.5228
   68MOL   C30536619   6.364   2.628   2.243  0.5925  0.1996  0.2766
   68MOL   O30636620   6.425   2.720   2.187 -0.3438  0.1045  0.1853
   68MOL   C30736621   6.398   2.592   2.389 -0.1023  0.4023 -0.0834
   68MOL   C30836622   6.425   2.443   2.401 -0.6272  0.3370 -0.2058
   68MOL   C30936623   6.267   2.612   2.474  0.3324  0.4709 -0.1860
   68MOL   H31036624   5.937   2.286   2.223 -1.5370  0.0706 -0.1913
   68MOL   H31136625   5.933   2.368   2.365  0.6522 -1.2806 -0.4013
   68MOL   H31236626   6.087   2.364   2.274 -0.3335  0.5986 -4.4152
   68MOL   H31336627   5.998   2.590   2.247  1.4429 -1.6113  1.0657
   68MOL   H31436628   5.845   2.539   2.196  0.0962  0.9184  2.9981
   68MOL   H31536629   5.971   2.629   2.017  0.7191 -0.2419  0.2642
   68MOL   H31636630   5.911   2.462   1.992 -1.1630  1.0163  1.6050
   68MOL   H31736631   6.131   2.487   1.889  0.3708  0.6628 -0.8313
   68MOL   H31836632   6.153   2.386   2.027  1.6717  0.9822  0.6372
   68MOL   H31936633   6.317   2.575   1.988  0.7065  1.9271  1.2400
   68MOL   H32036634   6.185   2.677   2.052  0.6113  1.4428 -0.9174
   68MOL   H32136635   6.329   2.394   2.386 -2.2289  2.7493  1.7687
   68MOL   H32236636   6.494   2.398   2.330 -0.5809  0.8035 -0.4537
   68MOL   H32336637   6.448   2.423   2.506  2.3363 -1.0115 -1.0520
   68MOL   H32436638   6.282   2.560   2.569  1.6719  1.2108  0.0255
   68MOL   H32536639   6.191   2.548   2.429 -0.0078  1.0069 -0.3782
   68MOL   C32636640   6.317   2.520   3.219 -0.0525 -0.6413 -0.1132
   68MOL   C32736641   6.408   2.524   3.089  0.3476  0.3016  0.1561
   68MOL   C32836642   6.374   2.639   2.999  1.1224 -0.4166 -0.1154
   68MOL   C32936643   6.468   2.657   2.879 -0.7150  0.0166 -0.5193
   68MOL   C33036644   6.432   2.781   2.798  1.0610 -0.1002  0.3952
   68MOL   O33136645   6.332   2.743   2.706 -0.1286  0.8183  0.3689
   68MOL   C33236646   6.283   2.832   2.612  0.0950 -0.2693 -0.3295
   68MOL   O33336647   6.305   2.953   2.610 -0.1281  0.1328  0.5431
   68MOL   C33436648   6.194   2.750   2.516 -0.0818  0.9990  0.6099
   68MOL   C33536649   6.160   2.840   2.390  0.9189 -0.0349  0.0387
   68MOL   C33636650   6.066   2.699   2.581  0.4596  0.1856 -0.6228
   68MOL   H33736651   6.211   2.500   3.200 -0.1475  0.4324 -0.7897
   68MOL   H33836652   6.327   2.614   3.273 -0.5591 -0.8237  0.3081
   68MOL   H33936653   6.358   2.454   3.295  2.1597  0.0671 -0.6733
   68MOL   H34036654   6.409   2.433   3.029  1.1170 -0.0733  0.7355
   68MOL   H34136655   6.514   2.536   3.113  0.6595  0.2253 -1.1523
   68MOL   H34236656   6.378   2.731   3.056 -1.3405  0.4650 -1.2688
   68MOL   H34336657   6.270   2.623   2.970  1.3161 -2.1394  0.0783
   68MOL   H34436658   6.476   2.575   2.808 -1.2168 -2.9487  2.7250
   68MOL   H34536659   6.563   2.679   2.928 -1.6787  0.2081  1.3169
   68MOL   H34636660   6.521   2.812   2.743  1.9325 -1.7839  0.8044
   68MOL   H34736661   6.393   2.868   2.851 -2.2670 -1.4419  0.2709
   68MOL   H34836662   6.250   2.866   2.334 -0.7134 -0.3045 -2.8180
   68MOL   H34936663   6.100   2.929   2.410 -0.5508 -0.0387 -3.9330
   68MOL   H35036664   6.095   2.781   2.326 -1.2531  1.5593  0.7008
   68MOL   H35136665   6.091   2.641   2.671 -1.1127 -0.0271 -0.3111
   68MOL   H35236666   6.028   2.630   2.505  1.7713 -1.2137 -0.0473
   68MOL   C35336667   5.833   3.039   1.858  0.7439 -0.6046 -0.0931
   68MOL   C35436668   5.890   2.989   1.988  0.2672 -0.0251 -0.1763
   68MOL   C35536669   5.785   2.932   2.084  0.8948 -0.0132 -0.3857
   68MOL   C35636670   5.851   2.903   2.214  0.3094  0.2329 -0.8006
   68MOL   C35736671   5.764   2.826   2.310 -0.0401  0.0451  0.4636
   68MOL   O35836672   5.834   2.780   2.429  0.2965 -0.2496  0.6290
   68MOL   C35936673   5.869   2.861   2.524  0.2671  0.1433  0.0352
   68MOL   O36036674   5.833   2.980   2.529  0.5700 -0.2684  0.1274
   68MOL   C36136675   5.950   2.793   2.639 -1.1144 -0.1019  0.3104
   68MOL   C36236676   6.017   2.899   2.733  0.1406 -0.1431 -0.0353
   68MOL   C36336677   5.836   2.716   2.707  0.1810  0.0148  0.4571
   68MOL   H36436678   5.770   2.963   1.813  0.4631  0.1159 -0.9295
   68MOL   H36536679   5.904   3.081   1.787 -1.5306  1.0270 -1.4870
   68MOL   H36636680   5.759   3.118   1.875  0.6791 -0.8033  0.5611
   68MOL   H36736681   5.947   2.898   1.967 -0.0304 -0.1387 -0.4969
   68MOL   H36836682   5.950   3.061   2.043  0.4990 -1.2994  1.3012
   68MOL   H36936683   5.759   2.834   2.046 -0.1993  0.1736 -0.1452
   68MOL   H37036684   5.698   2.999   2.088  0.7445 -0.1612 -1.2336
   68MOL   H37136685   5.890   2.995   2.259 -1.4206  1.3952 -1.6287
   68MOL   H37236686   5.934   2.834   2.197 -0.9470 -1.4905 -0.0029
   68MOL   H37336687   5.675   2.881   2.338  0.0239  1.0284 -1.2257
   68MOL   H37436688   5.724   2.739   2.257  1.6192 -0.3955 -0.1056
   68MOL   H37536689   6.064   2.985   2.684 -0.3987  0.2713  0.1601
   68MOL   H37636690   5.942   2.947   2.796 -0.5562  0.6326 -1.4277
   68MOL   H37736691   6.094   2.861   2.800 -1.6901 -2.7484  0.6485
   68MOL   H37836692   5.771   2.783   2.763  1.1268  0.0293  1.5444
   68MOL   H37936693   5.763   2.674   2.637 -1.5176  0.7949  1.7267
   68MOL   C38036694   6.045   2.150   3.328 -0.2458 -0.2481  0.4600
   68MOL   C38136695   6.123   2.160   3.199  1.0239 -0.0393  0.0105
   68MOL   C38236696   6.048   2.223   3.074 -0.0007 -0.4993  0.3769
   68MOL   C38336697   6.133   2.229   2.948 -0.1337 -0.1979  0.8785
   68MOL   C38436698   6.050   2.280   2.830  0.2409  0.5783  0.3397
   68MOL   O38536699   5.990   2.409   2.858 -0.3184  0.3504 -0.0232
   68MOL   C38636700   5.925   2.480   2.765  0.3218 -1.0893  1.0861
   68MOL   O38736701   5.919   2.452   2.646  0.8484  0.3754 -0.2067
   68MOL   C38836702   5.864   2.607   2.819  0.1101  0.0416  0.2177
   68MOL   C38936703   5.949   2.665   2.941 -0.2469  0.6130 -0.1211
   68MOL   C39036704   5.736   2.561   2.895  0.7293  0.4762  0.2470
   68MOL   H39136705   6.012   2.248   3.361  0.5435  1.3327 -3.2840
   68MOL   H39236706   5.953   2.093   3.320 -1.5050  1.5292  1.9044
   68MOL   H39336707   6.098   2.103   3.412  0.9844  1.3653  0.6018
   68MOL   H39436708   6.159   2.060   3.174 -0.9174 -1.2008  1.7159
   68MOL   H39536709   6.218   2.211   3.215  0.8080 -0.0274  1.2957
   68MOL   H39636710   5.963   2.157   3.059  1.1855 -2.0878  0.4651
   68MOL   H39736711   6.019   2.323   3.108  0.0365 -0.9599  1.8120
   68MOL   H39836712   6.206   2.310   2.944 -0.6407  0.1862 -1.7175
   68MOL   H39936713   6.192   2.142   2.920  1.7247  1.8943 -2.0986
   68MOL   H40036714   5.968   2.211   2.810  1.4248 -0.3488 -1.4593
   68MOL   H40136715   6.116   2.281   2.743  2.8868  0.7430  2.2977
   68MOL   H40236716   6.054   2.686   2.923  0.0546  0.2970  1.2318
   68MOL   H40336717   5.960   2.586   3.016  0.9241  0.3575 -0.5642
   68MOL   H40436718   5.908   2.755   2.987 -0.3879  1.0649 -1.1230
   68MOL   H40536719   5.704   2.645   2.956 -0.3414 -0.0163  0.3815
   68MOL   H40636720   5.763   2.484   2.968 -1.0065  0.7846  1.2442
   68MOL   C40736721   5.517   3.284   2.503 -0.2583 -0.0707  0.2712
   68MOL   C40836722   5.535   3.181   2.615 -0.2050  0.0025  0.5385
   68MOL   C40936723   5.493   3.044   2.579 -0.1582 -0.0380  0.0258
   68MOL   C41036724   5.505   2.950   2.704 -0.3803  1.0340  0.4121
   68MOL   C41136725   5.475   2.805   2.661  0.2622 -0.2763 -0.3223
   68MOL   O41236726   5.531   2.716   2.753 -0.6660 -0.1406 -0.4238
   68MOL   C41336727   5.537   2.584   2.727  0.3731 -0.0686 -0.2121
   68MOL   O41436728   5.489   2.536   2.621 -0.3004 -0.1956 -0.1695
   68MOL   C41536729   5.601   2.496   2.838  0.2021 -0.0879  0.5969
   68MOL   C41636730   5.639   2.361   2.776 -0.3606 -0.0221  0.1108
   68MOL   C41736731   5.507   2.475   2.961  0.4707 -0.0491 -0.1534
   68MOL   H41836732   5.520   3.236   2.406  0.2770 -0.1346  0.3203
   68MOL   H41936733   5.416   3.323   2.517 -0.4085 -1.6684  4.7281
   68MOL   H42036734   5.575   3.377   2.507  0.3147 -0.4283  0.2883
   68MOL   H42136735   5.493   3.223   2.706 -0.7673  0.0108  0.2765
   68MOL   H42236736   5.643   3.186   2.631 -0.3128 -1.3703  1.7794
   68MOL   H42336737   5.393   3.041   2.535 -0.2114 -0.8285  0.1985
   68MOL   H42436738   5.563   3.005   2.506  1.9297 -1.5802  2.7230
   68MOL   H42536739   5.430   2.985   2.774  1.0136  3.9880  0.4723
   68MOL   H42636740   5.604   2.944   2.748 -0.1662 -0.3976 -0.2302
   68MOL   H42736741   5.367   2.787   2.663  0.2809 -0.3830 -0.2764
   68MOL   H42836742   5.518   2.797   2.561 -0.8378 -1.1132 -0.7358
   68MOL   H42936743   5.701   2.299   2.841  0.6427  1.1505  0.2780
   68MOL   H43036744   5.688   2.385   2.681  1.3904 -1.3599  0.6401
   68MOL   H43136745   5.552   2.311   2.735  0.1389 -0.5372 -0.3386
   68MOL   H43236746   5.463   2.573   2.975  0.8288  0.2029 -0.7993
   68MOL   H43336747   5.559   2.456   3.056 -2.1002 -2.8851  0.7749
   68MOL   C43436748   5.003   2.551   2.221 -0.8279 -0.8048  0.0404
   68MOL   C43536749   5.116   2.494   2.309  0.0027 -0.2991 -0.0752
   68MOL   C43636750   5.062   2.481   2.447  0.9340  0.1430  0.2978
   68MOL   C43736751   5.175   2.443   2.539 -1.0012  0.3459 -0.0090
   68MOL   C43836752   5.142   2.446   2.691 -0.1298  0.2086 -0.1095
   68MOL   O43936753   5.251   2.457   2.786 -0.5275  0.2347 -0.2925
   68MOL   C44036754   5.313   2.346   2.829  0.2578  0.9127  0.2253
   68MOL   O44136755   5.319   2.237   2.766 -0.0196 -1.3443 -0.1286
   68MOL   C44236756   5.388   2.369   2.963  0.4084 -0.5997 -0.0950
   68MOL   C44336757   5.282   2.429   3.056 -0.1391 -0.3826  0.7058
   68MOL   C44436758   5.437   2.227   3.020  0.9762 -0.7162 -0.1280
   68MOL   H44536759   5.039   2.565   2.119  0.8765 -3.1436  0.3057
   68MOL   H44636760   4.908   2.499   2.224 -2.0832  1.3021 -1.4497
   68MOL   H44736761   4.979   2.656   2.242 -0.7954 -1.2349  2.3935
   68MOL   H44836762   5.134   2.394   2.269  2.0024  0.5372 -1.3567
   68MOL   H44936763   5.212   2.545   2.297 -0.1137 -0.2540 -0.8278
   68MOL   H45036764   4.994   2.561   2.475  0.7371 -0.2142  0.8405
   68MOL   H45136765   4.988   2.401   2.461  0.2973  0.6466 -0.1557
   68MOL   H45236766   5.247   2.524   2.524  0.6838 -1.1020  0.1090
   68MOL   H45336767   5.224   2.350   2.512  0.4835  1.1778 -0.2315
   68MOL   H45436768   5.079   2.363   2.724  0.1018  0.5231  1.1559
   68MOL   H45536769   5.091   2.540   2.712  0.2745  0.3232  0.3583
   68MOL   H45636770   5.323   2.476   3.146 -1.3485  0.4485  0.8326
   68MOL   H45736771   5.229   2.511   3.006  1.8409 -1.0008 -2.5758
   68MOL   H45836772   5.202   2.359   3.080  0.7353 -0.8224  2.4205
   68MOL   H45936773   5.493   2.186   2.936  2.4195  0.6542  0.1290
   68MOL   H46036774   5.345   2.169   3.027  1.4117 -1.1238  3.0880
   68MOL   C46136775   5.321   2.888   3.387  0.0544 -0.4364 -0.2561
   68MOL   C46236776   5.466   2.855   3.421 -0.0593 -0.4606  0.4620
   68MOL   C46336777   5.486   2.712   3.474  0.3495 -0.8271  0.1369
   68MOL   C46436778   5.487   2.604   3.360 -0.4689  0.1184 -0.4169
   68MOL   C46536779   5.563   2.479   3.400 -0.3954  1.0021  0.3311
   68MOL   O46636780   5.571   2.383   3.300  0.0518  0.3041 -0.8209
   68MOL   C46736781   5.476   2.298   3.268 -0.2631 -0.4826  0.1125
   68MOL   O46836782   5.367   2.293   3.323  0.4515  0.6793 -0.6534
   68MOL   C46936783   5.511   2.195   3.156 -0.0845 -0.5872 -0.6315
   68MOL   C47036784   5.662   2.195   3.127 -0.5110  0.7271  0.4708
   68MOL   C47136785   5.468   2.048   3.200  0.0821 -0.4701 -0.9025
   68MOL   H47236786   5.273   2.812   3.326 -1.3431  1.2571 -1.2953
   68MOL   H47336787   5.314   2.991   3.353  2.6336  0.1227  0.7339
   68MOL   H47436788   5.266   2.889   3.481 -1.0738 -1.5940 -0.9020
   68MOL   H47536789   5.516   2.922   3.491  0.1075  1.3230 -1.3228
   68MOL   H47636790   5.518   2.868   3.326 -0.6798 -0.5039  0.1135
   68MOL   H47736791   5.397   2.685   3.531  0.6766 -2.3633 -0.0590
   68MOL   H47836792   5.575   2.694   3.534 -0.7091  2.2558  2.7476
   68MOL   H47936793   5.523   2.643   3.265  1.1571  0.4736  0.3366
   68MOL   H48036794   5.385   2.575   3.336  0.2420 -0.9418 -2.2720
   68MOL   H48136795   5.664   2.497   3.437 -0.9342  0.7906  1.9111
   68MOL   H48236796   5.523   2.424   3.485  0.1463 -0.9403 -0.6473
   68MOL   H48336797   5.693   2.293   3.089 -0.4506  0.0498 -1.2931
   68MOL   H48436798   5.692   2.112   3.063 -0.9530  0.3834  0.7094
   68MOL   H48536799   5.725   2.189   3.215 -0.2796  0.2574  0.2746
   68MOL   H48636800   5.517   1.973   3.138  0.3311  0.8996 -2.3792
   68MOL   H48736801   5.362   2.028   3.182  0.6603 -2.9447 -1.6563
   68MOL   C48836802   4.841   1.421   3.325  0.5356 -0.0412 -0.0241
   68MOL   C48936803   4.939   1.518   3.263 -0.2323  0.3770  0.0683
   68MOL   C49036804   5.064   1.548   3.347 -0.2260 -0.6470 -0.3846
   68MOL   C49136805   5.140   1.674   3.301  0.4225 -0.3784  0.1132
   68MOL   C49236806   5.289   1.666   3.344  0.1614 -0.4819 -0.8177
   68MOL   O49336807   5.340   1.802   3.340  0.5372 -0.6156  0.6004
   68MOL   C49436808   5.463   1.832   3.319 -0.1511 -0.6355 -0.2282
   68MOL   O49536809   5.553   1.752   3.282  0.0868  0.3873 -0.0307
   68MOL   C49636810   5.493   1.985   3.348 -0.1026  0.2758  0.2670
   68MOL   C49736811   5.391   2.039   3.457  0.5309  0.0060  0.1944
   68MOL   C49836812   5.640   2.004   3.404 -0.1539  0.2869 -0.6744
   68MOL   H49936813   4.739   1.456   3.304  1.4204  2.5515 -0.2292
   68MOL   H50036814   4.855   1.319   3.291  0.3848  0.0935 -0.4877
   68MOL   H50136815   4.849   1.416   3.434 -0.4247 -2.3519 -0.0357
   68MOL   H50236816   4.895   1.617   3.250  1.5514  1.4343  1.7932
   68MOL   H50336817   4.961   1.475   3.165 -1.5554 -1.3472  0.4938
   68MOL   H50436818   5.034   1.554   3.451 -0.0400 -0.9098 -0.3163
   68MOL   H50536819   5.131   1.463   3.337 -0.1031 -0.6107  0.1315
   68MOL   H50636820   5.089   1.757   3.348  2.7266  0.9087  0.3979
   68MOL   H50736821   5.148   1.684   3.192  0.2786  1.8041  0.2806
   68MOL   H50836822   5.310   1.629   3.445  0.0033  0.7439 -0.3276
   68MOL   H50936823   5.335   1.598   3.272  1.9874 -1.8640  1.5497
   68MOL   H51036824   5.293   2.061   3.414  0.3426  0.1516  0.6976
   68MOL   H51136825   5.423   2.126   3.514  2.8712 -1.1374  0.6977
   68MOL   H51236826   5.376   1.955   3.525 -0.8420  0.6185  0.6544
   68MOL   H51336827   5.652   2.111   3.390 -1.2969  0.3120 -1.5588
   68MOL   H51436828   5.701   1.959   3.325  1.0929  1.3681 -0.3433
   68MOL   C51536829   5.826   2.632   3.940 -0.0504 -0.7206  0.0882
   68MOL   C51636830   5.703   2.626   3.848 -0.5102  0.8172  0.0231
   68MOL   C51736831   5.621   2.496   3.854 -0.2778  0.6306 -0.6481
   68MOL   C51836832   5.681   2.390   3.763 -0.7074 -0.4422 -0.0573
   68MOL   C51936833   5.600   2.264   3.742 -0.3747  0.2590  0.6767
   68MOL   O52036834   5.660   2.174   3.647  0.3153  0.4990  0.4227
   68MOL   C52136835   5.630   2.037   3.654 -0.0825  0.1754  0.5067
   68MOL   O52236836   5.553   1.992   3.738  0.0551 -0.0247  0.2176
   68MOL   C52336837   5.692   1.951   3.537 -0.1224  0.4130 -0.2609
   68MOL   C52436838   5.837   1.961   3.527  0.0179  0.7346  0.1751
   68MOL   C52536839   5.672   1.798   3.553 -0.4574  0.6344 -0.3719
   68MOL   H52636840   5.878   2.726   3.922 -0.8275 -0.2326  0.3982
   68MOL   H52736841   5.791   2.626   4.043  0.7037  1.0439  0.4665
   68MOL   H52836842   5.884   2.542   3.920  0.6941 -0.1886 -0.1678
   68MOL   H52936843   5.641   2.711   3.878 -0.2429  0.5242  1.4858
   68MOL   H53036844   5.731   2.656   3.747  0.4209  0.3461  0.1396
   68MOL   H53136845   5.601   2.466   3.957  2.2177  2.1745  0.3269
   68MOL   H53236846   5.524   2.514   3.807 -0.8176  1.8424  0.8949
   68MOL   H53336847   5.768   2.350   3.814  0.8913  1.3542 -1.3075
   68MOL   H53436848   5.706   2.424   3.662  0.5472 -2.4117 -0.4338
   68MOL   H53536849   5.569   2.230   3.841  1.9043  0.3075  1.4284
   68MOL   H53636850   5.511   2.303   3.692 -1.5937 -4.6472 -1.2873
   68MOL   H53736851   5.887   1.921   3.439 -1.3963  0.5413 -0.5553
   68MOL   H53836852   5.875   1.909   3.615  1.9226  2.2922  0.3025
   68MOL   H53936853   5.872   2.065   3.528  0.2158  0.7144 -1.8903
   68MOL   H54036854   5.714   1.748   3.466  0.8290  2.7961 -1.0461
   68MOL   H54136855   5.568   1.768   3.567 -0.1519 -0.0499  0.5003
   68MOL   H54236856   5.723   1.757   3.641  0.2589 -2.0123 -1.9694
   69MOL     C136857   3.937   2.270   2.341  0.1660 -0.0931 -0.6035
   69MOL     C236858   3.897   2.353   2.467  0.0329 -0.1800  0.2846
   69MOL     C336859   3.916   2.288   2.608 -0.1815  0.5384  0.0650
   69MOL     C436860   3.842   2.358   2.724  0.1390 -0.5092 -0.0244
   69MOL     C536861   3.851   2.281   2.863  0.7929  0.8888 -0.8037
   69MOL     O636862   3.794   2.149   2.868 -0.3333  0.0028  0.0058
   69MOL     C736863   3.860   2.052   2.926  0.1602 -0.4630 -0.3127
   69MOL     O836864   3.975   2.048   2.977  0.7993  0.0071  0.1964
   69MOL     C936865   3.784   1.922   2.919 -0.9400 -0.0532 -0.1044
   69MOL    C1036866   3.762   1.889   2.765 -0.2274  0.3728 -0.7193
   69MOL    C1136867   3.665   1.916   3.011  0.4232  1.5763 -0.1910
   69MOL    H1236868   4.036   2.226   2.358 -0.0473  0.0810  1.2532
   69MOL    H1336869   3.915   2.315   2.245  0.0527  3.5482  1.0343
   69MOL    H1436870   3.876   2.180   2.338 -0.8702  0.6022 -0.7470
   69MOL    H1536871   3.937   2.454   2.467 -0.6789  0.1046 -0.2468
   69MOL    H1636872   3.791   2.363   2.447  0.1343 -1.2724 -0.8881
   69MOL    H1736873   3.873   2.189   2.592 -0.5821  0.9040 -1.1589
   69MOL    H1836874   4.023   2.280   2.626 -0.2361  1.2645  0.7801
   69MOL    H1936875   3.739   2.362   2.689  0.4115  0.6054 -0.6927
   69MOL    H2036876   3.863   2.463   2.741 -1.5036 -0.0396 -0.7494
   69MOL    H2136877   3.955   2.277   2.896  1.1337 -0.6090 -2.0036
   69MOL    H2236878   3.800   2.331   2.945 -0.4327 -1.5417 -0.0480
   69MOL    H2336879   3.693   1.963   2.725 -0.6503  0.2803 -0.1531
   69MOL    H2436880   3.722   1.788   2.763  0.8452 -0.0497 -1.6581
   69MOL    H2536881   3.851   1.898   2.702  0.9035  1.5704  0.9980
   69MOL    H2636882   3.588   1.879   2.943 -1.2799  2.0032  1.4642
   69MOL    H2736883   3.627   2.017   3.024 -2.2548  0.5965 -0.1621
   69MOL    H2836884   3.856   1.844   2.946 -1.0524 -0.1925 -0.2093
   69MOL    C2936885   2.943   1.504   3.363  0.0181 -0.3190  0.7074
   69MOL    C3036886   3.092   1.534   3.328  0.4569 -0.1087  0.2414
   69MOL    C3136887   3.108   1.660   3.250 -0.1875 -0.0398  0.3788
   69MOL    C3236888   3.255   1.672   3.218 -0.6949 -0.7310 -0.4659
   69MOL    C3336889   3.295   1.795   3.142 -0.4076 -0.0701  0.3753
   69MOL    O3436890   3.435   1.805   3.107 -0.1539  0.6173  0.0003
   69MOL    C3536891   3.528   1.843   3.194 -0.5292  0.5562 -0.0892
   69MOL    O3636892   3.507   1.875   3.311  0.5401  0.1046 -0.4673
   69MOL    C3736893   3.668   1.834   3.139 -0.1748  1.1881 -0.1694
   69MOL    C3836894   3.774   1.894   3.234  0.1287 -0.1285  0.2457
   69MOL    C3936895   3.701   1.679   3.096 -1.1699 -0.1013 -0.9510
   69MOL    H4036896   2.891   1.504   3.267  1.2841  1.4702 -0.0070
   69MOL    H4136897   2.916   1.407   3.404 -4.1396  0.4049 -0.1182
   69MOL    H4236898   2.879   1.567   3.425 -0.9691 -0.8361  0.2101
   69MOL    H4336899   3.122   1.448   3.270 -0.5220  0.6304 -1.3975
   69MOL    H4436900   3.141   1.548   3.425  0.2916 -1.4546  0.5297
   69MOL    H4536901   3.077   1.748   3.306 -1.2142 -1.2667  1.7612
   69MOL    H4636902   3.055   1.670   3.155 -1.8265  0.2061  1.3054
   69MOL    H4736903   3.306   1.676   3.314  0.2724  0.0069 -0.9993
   69MOL    H4836904   3.298   1.599   3.149  2.9047 -1.0499  1.9376
   69MOL    H4936905   3.258   1.886   3.189  3.0934  1.0960  1.0338
   69MOL    H5036906   3.235   1.783   3.052 -0.3965  2.0202  0.0474
   69MOL    H5136907   3.790   1.852   3.333 -0.7490 -0.2417  0.3394
   69MOL    H5236908   3.753   1.999   3.252  3.0280  0.3690  0.9935
   69MOL    H5336909   3.877   1.895   3.197 -0.1555  0.6083 -0.5222
   69MOL    H5436910   3.787   1.682   3.030  0.0897  0.6547  0.6915
   69MOL    H5536911   3.626   1.640   3.027 -1.1195  0.5533 -1.3796
   69MOL    C5636912   4.047   1.667   2.695 -0.1543  0.1831  0.0811
   69MOL    C5736913   4.125   1.703   2.829 -0.0076  0.0747  0.9924
   69MOL    C5836914   4.097   1.617   2.951 -0.9201 -0.2212  0.3752
   69MOL    C5936915   4.111   1.684   3.088 -0.2902 -0.1430 -0.3892
   69MOL    C6036916   4.089   1.571   3.195  0.1023 -0.0974 -0.0277
   69MOL    O6136917   3.956   1.522   3.171 -0.3199  0.0438  0.2980
   69MOL    C6236918   3.863   1.565   3.260  0.1827 -0.4022  0.3094
   69MOL    O6336919   3.890   1.601   3.373  0.2458 -0.6350 -0.4096
   69MOL    C6436920   3.718   1.556   3.203 -0.4111  0.0654  0.7002
   69MOL    C6536921   3.699   1.425   3.129 -0.2057  0.4266  0.5837
   69MOL    C6636922   3.614   1.561   3.327  0.2191 -0.5417 -0.3713
   69MOL    H6736923   4.115   1.644   2.613 -3.0370  1.5089 -2.7843
   69MOL    H6836924   3.987   1.752   2.663  1.1513  0.5370 -1.4289
   69MOL    H6936925   3.982   1.579   2.701  1.2554 -0.8612  0.3204
   69MOL    H7036926   4.230   1.700   2.798  0.0269  3.9463  0.4535
   69MOL    H7136927   4.091   1.804   2.852  0.6501  1.1585 -2.5662
   69MOL    H7236928   3.996   1.582   2.934 -0.6507 -0.6758 -0.3213
   69MOL    H7336929   4.154   1.524   2.945  1.4374  1.2084 -0.1388
   69MOL    H7436930   4.044   1.767   3.109  0.5430  0.3751  0.2312
   69MOL    H7536931   4.216   1.711   3.099  0.0626 -1.4483 -0.4673
   69MOL    H7636932   4.155   1.489   3.168  1.1060  0.8957 -0.5995
   69MOL    H7736933   4.109   1.611   3.294  0.5319 -1.3939  0.4246
   69MOL    H7836934   3.596   1.417   3.095  0.6968 -3.5726 -1.6646
   69MOL    H7936935   3.718   1.332   3.183 -0.3174  0.0089 -0.0851
   69MOL    H8036936   3.760   1.419   3.039  1.0105 -0.6899  1.4533
   69MOL    H8136937   3.518   1.599   3.292 -1.0082  0.8514  4.2231
   69MOL    H8236938   3.645   1.640   3.396 -0.2046 -0.4619 -0.2736
   69MOL    C8336939   3.142   0.892   2.975 -0.1683  0.7205  0.2809
   69MOL    C8436940   3.235   0.978   3.062 -0.1112  0.2927  0.1001
   69MOL    C8536941   3.157   1.081   3.146  0.1358  0.7152  0.2552
   69MOL    C8636942   3.241   1.153   3.254 -0.6921 -0.2477  0.2142
   69MOL    C8736943   3.323   1.272   3.188 -0.7362 -0.0511 -0.2837
   69MOL    O8836944   3.395   1.359   3.277  0.3033 -0.1645  0.2951
   69MOL    C8936945   3.507   1.325   3.348 -0.3262 -0.2271  0.7764
   69MOL    O9036946   3.547   1.207   3.349  0.2194  0.1823 -0.4400
   69MOL    C9136947   3.571   1.442   3.424  0.0400 -0.1028 -0.0318
   69MOL    C9236948   3.697   1.393   3.496 -0.3343 -0.5435 -0.3271
   69MOL    C9336949   3.469   1.508   3.531 -0.0120 -0.5245  0.0537
   69MOL    H9436950   3.206   0.839   2.904 -1.1382 -0.1876  0.0794
   69MOL    H9536951   3.093   0.819   3.039  0.2735 -0.4517 -0.6875
   69MOL    H9636952   3.080   0.947   2.905 -0.5742 -1.3718 -1.0446
   69MOL    H9736953   3.292   1.043   2.995  0.3077  2.4849  2.4552
   69MOL    H9836954   3.306   0.915   3.115 -0.7978  1.0143  1.9286
   69MOL    H9936955   3.073   1.028   3.193 -0.1590 -0.9152 -2.0316
   69MOL   H10036956   3.109   1.155   3.083 -0.3249  0.8601  0.7661
   69MOL   H10136957   3.308   1.086   3.308  1.8956  0.9706 -1.4286
   69MOL   H10236958   3.175   1.207   3.322  1.3463 -1.8125  3.5277
   69MOL   H10336959   3.266   1.326   3.112  1.5255  1.6342 -0.8463
   69MOL   H10436960   3.398   1.224   3.125 -0.5307 -0.9660  0.6449
   69MOL   H10536961   3.679   1.306   3.560  0.9957 -0.6506 -0.0840
   69MOL   H10636962   3.736   1.473   3.559  0.0335  0.5267 -1.8803
   69MOL   H10736963   3.771   1.360   3.423 -1.3953 -0.3273 -1.5133
   69MOL   H10836964   3.509   1.604   3.563  0.5056 -0.9102  0.5915
   69MOL   H10936965   3.381   1.516   3.468 -0.1156 -0.2338  0.2370
   69MOL   C11036966   3.688   0.805   3.794 -0.3470  0.3860  0.1539
   69MOL   C11136967   3.586   0.824   3.678 -0.4437  0.4806 -0.1863
   69MOL   C11236968   3.507   0.955   3.695 -0.0129 -0.3109 -0.4864
   69MOL   C11336969   3.384   0.964   3.604  0.0806  0.3697  0.5549
   69MOL   C11436970   3.294   1.086   3.609 -0.6773 -0.2132  0.2060
   69MOL   O11536971   3.372   1.202   3.605 -0.7235 -0.3505 -0.0033
   69MOL   C11636972   3.311   1.322   3.596  0.1527 -1.0525 -0.2471
   69MOL   O11736973   3.192   1.338   3.579  0.4361  0.3040  0.0146
   69MOL   C11836974   3.400   1.439   3.648 -0.4926  0.7670 -0.1264
   69MOL   C11936975   3.308   1.553   3.710 -0.5294 -0.0012  0.6411
   69MOL   C12036976   3.498   1.401   3.762 -0.1107 -0.2168 -0.3917
   69MOL   H12136977   3.749   0.720   3.761 -1.6608 -0.7446  0.5690
   69MOL   H12236978   3.756   0.888   3.810 -0.3571  0.0935  1.7811
   69MOL   H12336979   3.635   0.783   3.886 -2.2320 -1.5901 -1.3482
   69MOL   H12436980   3.641   0.837   3.584  0.1882  0.9700  0.2444
   69MOL   H12536981   3.516   0.741   3.668  0.0924 -0.2701  2.1164
   69MOL   H12636982   3.492   0.972   3.801  2.1568  1.0181 -0.3588
   69MOL   H12736983   3.577   1.036   3.673  0.0686 -0.2935 -0.1678
   69MOL   H12836984   3.323   0.875   3.617  0.8304 -0.4596 -1.4302
   69MOL   H12936985   3.423   0.946   3.503  1.6253  0.5008  1.1153
   69MOL   H13036986   3.218   1.084   3.531  1.0304 -0.8642 -1.4887
   69MOL   H13136987   3.245   1.083   3.706 -0.0966 -0.7425  0.4831
   69MOL   H13236988   3.251   1.532   3.800 -2.5822  2.9083  0.0883
   69MOL   H13336989   3.370   1.640   3.731 -1.1081  0.9810 -1.5768
   69MOL   H13436990   3.236   1.586   3.636  0.5940 -0.0857 -0.5149
   69MOL   H13536991   3.545   1.307   3.733 -0.1148 -0.5425  0.6441
   69MOL   H13636992   3.578   1.474   3.771 -0.2884  0.0513 -0.9951
   69MOL   C13736993   3.687   1.940   3.578 -0.2518 -0.8301 -0.9516
   69MOL   C13836994   3.702   1.953   3.730 -0.0711  0.0828 -0.4247
   69MOL   C13936995   3.620   1.851   3.806  0.2515 -0.1442 -0.4165
   69MOL   C14036996   3.648   1.821   3.962  0.6198  0.0945 -0.5103
   69MOL   C14136997   3.532   1.743   4.017  0.5320  1.1037  0.4174
   69MOL   O14236998   3.537   1.605   3.975  0.2089  0.4458  0.2470
   69MOL   C14336999   3.431   1.518   3.980 -0.6518  0.1060  0.6087
   69MOL   O14437000   3.330   1.540   4.039  0.2688 -0.5390 -0.4272
   69MOL   C14537001   3.458   1.379   3.918 -0.2935  0.3419  0.5329
   69MOL   C14637002   3.336   1.287   3.924  1.0415 -0.2244 -0.3352
   69MOL   C14737003   3.586   1.318   3.986  0.2245 -0.1833 -0.4132
   69MOL   H14837004   3.762   2.007   3.537 -1.5922  0.5631 -1.1578
   69MOL   H14937005   3.591   1.978   3.545 -0.6820 -0.9139  0.1835
   69MOL   H15037006   3.713   1.842   3.538  0.9879  0.2856 -2.9524
   69MOL   H15137007   3.665   2.054   3.748  0.9348  0.8160 -2.3128
   69MOL   H15237008   3.805   1.938   3.763  0.3081  2.2741 -0.5063
   69MOL   H15337009   3.516   1.881   3.797  0.9876  2.6576 -0.0041
   69MOL   H15437010   3.627   1.754   3.757 -1.5216 -0.9165  0.8273
   69MOL   H15537011   3.739   1.762   3.967 -0.4033 -1.3711  1.4495
   69MOL   H15637012   3.664   1.916   4.013 -2.6951  0.1827  0.4663
   69MOL   H15737013   3.434   1.775   3.983  0.1246 -0.7193 -0.1791
   69MOL   H15837014   3.538   1.745   4.126  0.4185 -2.1747  0.5186
   69MOL   H15937015   3.328   1.257   4.029  1.1742  0.0912 -0.2321
   69MOL   H16037016   3.366   1.198   3.870  2.2987  0.2962 -0.5109
   69MOL   H16137017   3.241   1.330   3.891  0.2467 -0.2700  1.7933
   69MOL   H16237018   3.612   1.233   3.923  0.8531 -1.2957  1.3072
   69MOL   H16337019   3.657   1.400   3.982 -0.7755  0.6544 -1.3687
   69MOL   C16437020   3.422   0.588   4.678 -0.2136  0.0208  0.3744
   69MOL   C16537021   3.439   0.731   4.644 -0.0500  0.6714  0.4533
   69MOL   C16637022   3.449   0.764   4.492  0.5070  0.7454 -0.8905
   69MOL   C16737023   3.481   0.907   4.460 -0.2432  0.5650  0.6911
   69MOL   C16837024   3.483   0.942   4.309 -0.1442  0.0994  0.0480
   69MOL   O16937025   3.529   1.075   4.279 -0.7422  0.0924 -0.2390
   69MOL   C17037026   3.539   1.124   4.154  0.8117 -0.7466  0.7050
   69MOL   O17137027   3.498   1.054   4.060  0.7239 -0.2175  0.2042
   69MOL   C17237028   3.602   1.259   4.133 -0.0799 -0.6553  0.2738
   69MOL   C17337029   3.541   1.366   4.235  0.6044 -0.0363 -0.0803
   69MOL   C17437030   3.758   1.252   4.173  0.7078  0.2897  0.6671
   69MOL   H17537031   3.423   0.584   4.787  0.0091 -0.3020  0.3621
   69MOL   H17637032   3.509   0.531   4.644 -0.0363 -1.0212  2.4822
   69MOL   H17737033   3.327   0.538   4.662  0.1343 -0.1154 -1.2943
   69MOL   H17837034   3.528   0.774   4.689  0.8098 -1.4610  0.8389
   69MOL   H17937035   3.361   0.791   4.692  0.9764  1.1276  1.5678
   69MOL   H18037036   3.528   0.704   4.445  0.5726  1.7897 -2.1315
   69MOL   H18137037   3.364   0.739   4.429  0.9653  0.4635 -1.4010
   69MOL   H18237038   3.585   0.919   4.492  0.2051 -1.0591 -0.0815
   69MOL   H18337039   3.417   0.976   4.515 -1.0471  2.2003 -2.2151
   69MOL   H18437040   3.385   0.940   4.260 -0.7888  0.8984  1.2973
   69MOL   H18537041   3.549   0.874   4.255  1.2422  1.3557  0.1158
   69MOL   H18637042   3.591   1.463   4.230  0.9898 -0.2653 -0.7397
   69MOL   H18737043   3.545   1.338   4.340  0.4176 -0.2715 -0.1345
   69MOL   H18837044   3.435   1.384   4.217  0.8499  2.6181  0.8754
   69MOL   H18937045   3.790   1.343   4.224 -3.5689  2.2777  0.0460
   69MOL   H19037046   3.753   1.186   4.260 -0.0689 -0.3555  0.1407
   69MOL   C19137047   4.127   1.799   3.594  0.3926 -0.1446 -0.8631
   69MOL   C19237048   4.096   1.655   3.662  0.0204  0.1850 -0.1463
   69MOL   C19337049   4.139   1.664   3.811  0.0256 -0.5142  0.1951
   69MOL   C19437050   4.114   1.547   3.906 -0.7956 -0.4455  0.3915
   69MOL   C19537051   3.961   1.513   3.934 -0.1966  0.2204  0.3719
   69MOL   O19637052   3.936   1.416   4.023 -0.3597  0.1139 -0.2009
   69MOL   C19737053   3.918   1.297   3.973 -0.1654  0.0633  0.4484
   69MOL   O19837054   3.938   1.269   3.849  0.4648 -1.0404 -0.5527
   69MOL   C19937055   3.873   1.189   4.078 -0.6568 -0.3206  0.4236
   69MOL   C20037056   3.824   1.053   4.009  0.8422  0.6877 -0.3474
   69MOL   C20137057   3.987   1.152   4.175 -0.2581 -0.7366  0.1794
   69MOL   H20237058   4.231   1.829   3.602 -0.6920  3.3604  1.9398
   69MOL   H20337059   4.094   1.776   3.493 -3.1130  1.6017 -0.1932
   69MOL   H20437060   4.057   1.867   3.644 -0.0931 -0.6595 -0.8294
   69MOL   H20537061   4.149   1.577   3.607 -0.1702  1.1073 -1.6536
   69MOL   H20637062   3.991   1.633   3.643  0.6309 -2.9960 -0.1392
   69MOL   H20737063   4.069   1.736   3.853 -1.3872 -1.6871 -0.1009
   69MOL   H20837064   4.236   1.714   3.815 -0.5010  0.5011  0.5950
   69MOL   H20937065   4.157   1.454   3.866 -0.9287 -1.5245  2.6782
   69MOL   H21037066   4.157   1.571   4.003  1.4785 -2.0980 -0.1526
   69MOL   H21137067   3.928   1.607   3.979  0.3248  0.8390 -0.5009
   69MOL   H21237068   3.925   1.499   3.832  3.3813  0.1939 -0.9721
   69MOL   H21337069   3.799   0.983   4.089 -2.2008  1.2558 -0.7265
   69MOL   H21437070   3.895   1.008   3.941  1.8394  0.8866  0.5390
   69MOL   H21537071   3.742   1.060   3.937  0.7678 -0.7721 -0.4170
   69MOL   H21637072   3.934   1.081   4.239  0.0333 -0.8050  0.3433
   69MOL   H21737073   4.001   1.237   4.241  1.5462 -1.4341  0.7150
   69MOL   C21837074   4.021   1.219   3.492  0.0240 -0.0284 -0.1011
   69MOL   C21937075   4.160   1.169   3.492 -0.1213  0.7019  0.0165
   69MOL   C22037076   4.191   1.128   3.636  0.8249 -0.3698 -0.5247
   69MOL   C22137077   4.138   0.994   3.681 -0.0677 -0.3722  0.5547
   69MOL   C22237078   4.191   0.949   3.820 -0.4529 -0.5519 -0.4565
   69MOL   O22337079   4.146   1.038   3.923  0.0801 -0.1014  0.0328
   69MOL   C22437080   4.140   0.989   4.047 -0.3598 -0.1011  0.5551
   69MOL   O22537081   4.150   0.873   4.084  0.4673  0.0134  0.3927
   69MOL   C22637082   4.132   1.106   4.147 -0.0166 -0.2596  0.5580
   69MOL   C22737083   4.175   1.064   4.293 -0.3909  0.1409  0.0602
   69MOL   C22837084   4.217   1.228   4.097  0.3534 -0.2855  0.4723
   69MOL   H22937085   3.984   1.245   3.392  0.8663  1.2468 -0.0954
   69MOL   H23037086   3.957   1.153   3.550  0.3970 -0.5446 -0.2661
   69MOL   H23137087   4.018   1.312   3.548  1.0080 -0.6854  1.0757
   69MOL   H23237088   4.234   1.242   3.460  2.2469 -0.6795  2.1005
   69MOL   H23337089   4.177   1.083   3.427  2.9937  1.8264 -0.7614
   69MOL   H23437090   4.171   1.215   3.699  1.9099 -0.0138 -0.6613
   69MOL   H23537091   4.300   1.124   3.636  0.8152 -0.7457 -1.8918
   69MOL   H23637092   4.029   0.996   3.681 -0.1351 -1.2366 -2.5827
   69MOL   H23737093   4.161   0.917   3.607  1.1289  0.0130  0.5233
   69MOL   H23837094   4.300   0.957   3.824 -0.4624  0.7417 -2.1021
   69MOL   H23937095   4.160   0.846   3.837 -0.8055 -0.4518 -0.5004
   69MOL   H24037096   4.276   1.021   4.295 -0.9602 -1.5063 -3.0223
   69MOL   H24137097   4.111   0.982   4.325  0.8622 -1.6799 -1.9574
   69MOL   H24237098   4.150   1.140   4.367 -1.2685 -1.7664  1.7852
   69MOL   H24337099   4.186   1.316   4.153  1.4007  1.4093 -1.5071
   69MOL   H24437100   4.181   1.262   4.000  0.6374 -1.1250  0.0701
   69MOL   C24537101   4.497   1.595   3.309 -0.0096  0.7440  0.0828
   69MOL   C24637102   4.444   1.486   3.403 -0.1837  0.0921  0.7265
   69MOL   C24737103   4.503   1.482   3.546 -0.3274 -0.4823 -0.0636
   69MOL   C24837104   4.439   1.380   3.640 -0.6535  0.3881  0.0386
   69MOL   C24937105   4.500   1.392   3.777 -0.6470  0.1172  0.0592
   69MOL   O25037106   4.429   1.307   3.873  0.2750 -0.6890 -0.3386
   69MOL   C25137107   4.406   1.358   3.996 -0.0610 -0.1095 -0.0350
   69MOL   O25237108   4.412   1.480   4.022 -0.0185  0.5709  0.1253
   69MOL   C25337109   4.371   1.243   4.100 -0.4657  0.4328  0.0745
   69MOL   C25437110   4.442   1.108   4.065 -0.4228 -0.1675 -0.9637
   69MOL   C25537111   4.404   1.305   4.242 -0.5192 -0.4634  0.1019
   69MOL   H25637112   4.603   1.620   3.321 -0.3427  1.6523  1.2528
   69MOL   H25737113   4.460   1.587   3.207  0.4966  1.2892 -0.1475
   69MOL   H25837114   4.458   1.687   3.353  0.5082  0.7326  0.5832
   69MOL   H25937115   4.335   1.491   3.411 -0.2432 -1.0109  0.7415
   69MOL   H26037116   4.458   1.392   3.350 -4.2146 -1.3840  2.0386
   69MOL   H26137117   4.496   1.578   3.598  1.3133 -0.4900  0.2104
   69MOL   H26237118   4.610   1.467   3.529 -0.7378 -0.9729 -2.4141
   69MOL   H26337119   4.331   1.391   3.647 -0.6872  1.0812 -1.3699
   69MOL   H26437120   4.461   1.278   3.608  0.2106  0.1759  1.2737
   69MOL   H26537121   4.602   1.354   3.763 -0.1466  0.6757  2.0009
   69MOL   H26637122   4.492   1.496   3.808  0.9565  0.5120 -0.8138
   69MOL   H26737123   4.426   1.029   4.138  0.1296  0.6912  0.1131
   69MOL   H26837124   4.401   1.063   3.975 -2.2153 -0.3208 -0.1030
   69MOL   H26937125   4.549   1.122   4.049 -0.2146 -0.6983 -0.0957
   69MOL   H27037126   4.360   1.404   4.251  0.1430 -0.2831  1.4773
   69MOL   H27137127   4.347   1.247   4.315  1.6320 -2.7341  0.0409
   69MOL   C27237128   4.923   0.948   4.741  0.3928  0.0222  0.3602
   69MOL   C27337129   4.919   0.973   4.592  0.9436  0.3256 -0.4193
   69MOL   C27437130   4.780   0.936   4.530 -0.9217  0.2066  0.2947
   69MOL   C27537131   4.781   0.932   4.377  0.0236 -0.6170  0.4618
   69MOL   C27637132   4.650   0.959   4.310 -0.8206  0.0998  0.6938
   69MOL   O27737133   4.582   1.081   4.347 -0.0075 -0.4087 -0.1969
   69MOL   C27837134   4.634   1.191   4.290 -0.3579 -0.2942 -0.7100
   69MOL   O27937135   4.733   1.195   4.213  0.3582 -0.4184 -0.7313
   69MOL   C28037136   4.547   1.325   4.312  0.4502 -0.1370  0.2945
   69MOL   C28137137   4.619   1.446   4.250 -0.6964 -0.4513 -0.0476
   69MOL   C28237138   4.504   1.350   4.459 -0.2344  0.3231 -0.5633
   69MOL   H28337139   4.865   0.864   4.778  0.0795  1.4298  3.2093
   69MOL   H28437140   5.021   0.954   4.790  1.0905  3.3024 -1.3282
   69MOL   H28537141   4.881   1.041   4.778  0.3515 -0.9440  2.8478
   69MOL   H28637142   4.947   1.072   4.558 -0.6715  0.9201 -0.0539
   69MOL   H28737143   4.983   0.898   4.546 -0.4853 -0.1209 -1.7268
   69MOL   H28837144   4.746   0.837   4.563  0.4017 -0.5904 -0.6948
   69MOL   H28937145   4.700   1.000   4.568 -1.6400  0.1853 -1.1663
   69MOL   H29037146   4.849   1.012   4.345 -0.2466 -0.7106 -0.3567
   69MOL   H29137147   4.818   0.834   4.349 -0.7589 -0.4397 -1.2420
   69MOL   H29237148   4.580   0.877   4.326 -0.8167  0.0264  0.3363
   69MOL   H29337149   4.666   0.959   4.202  0.7627  2.9261  0.8769
   69MOL   H29437150   4.718   1.459   4.292  0.4057 -1.3586 -2.3159
   69MOL   H29537151   4.632   1.445   4.142  0.7365 -1.0043  0.1326
   69MOL   H29637152   4.550   1.530   4.264  0.6948  0.7405 -0.2094
   69MOL   H29737153   4.407   1.401   4.454  0.5989  1.8286 -1.6821
   69MOL   H29837154   4.472   1.254   4.501  0.6678  0.2131 -0.1252
   69MOL   C29937155   4.894   1.272   5.254  0.4078  0.0855  0.6603
   69MOL   C30037156   4.893   1.282   5.104  0.2095 -0.5268 -0.2592
   69MOL   C30137157   4.758   1.264   5.029  0.2643  0.1574 -0.1146
   69MOL   C30237158   4.655   1.373   5.042  0.4472  0.1750 -0.0792
   69MOL   C30337159   4.540   1.364   4.941  0.1977 -0.4235 -0.2652
   69MOL   O30437160   4.595   1.389   4.815  0.5998 -0.1376  0.2544
   69MOL   C30537161   4.522   1.392   4.705 -0.7868  0.0552  0.6529
   69MOL   O30637162   4.398   1.384   4.704 -0.7087  0.6871  1.1207
   69MOL   C30737163   4.600   1.413   4.571  0.0243  0.0756 -0.4890
   69MOL   C30837164   4.734   1.337   4.590  0.5095 -0.1990 -0.2115
   69MOL   C30937165   4.625   1.567   4.536  0.3943  0.3958  0.1794
   69MOL   H31037166   4.996   1.261   5.290  1.2021 -0.0942 -1.5566
   69MOL   H31137167   4.845   1.185   5.296 -0.5476  1.6355  2.8633
   69MOL   H31237168   4.841   1.358   5.296  0.9828 -0.6408  2.9693
   69MOL   H31337169   4.962   1.208   5.063 -0.3019 -1.0117 -0.2570
   69MOL   H31437170   4.928   1.382   5.077 -0.9383  0.5853  2.2074
   69MOL   H31537171   4.710   1.167   5.042  0.5471  0.2915  2.1904
   69MOL   H31637172   4.783   1.258   4.923  0.7429  0.6145 -0.0267
   69MOL   H31737173   4.699   1.472   5.030  1.5278 -0.0814  1.6693
   69MOL   H31837174   4.625   1.376   5.147 -0.3273  0.7169 -0.3139
   69MOL   H31937175   4.483   1.272   4.935 -0.8178  0.2665 -1.1468
   69MOL   H32037176   4.471   1.447   4.952  1.0752  0.0736  1.9928
   69MOL   H32137177   4.710   1.240   4.634 -1.0073  0.2949  0.0915
   69MOL   H32237178   4.797   1.330   4.501 -0.7429  2.3924 -1.3583
   69MOL   H32337179   4.794   1.384   4.668 -0.5092 -0.9654  1.0393
   69MOL   H32437180   4.537   1.594   4.477  1.7550 -1.2086 -2.7145
   69MOL   H32537181   4.705   1.567   4.461  0.2923 -1.5178  0.0412
   69MOL   C32637182   4.806   2.548   4.659 -0.0275 -0.2325 -0.0364
   69MOL   C32737183   4.763   2.402   4.703  0.3127 -0.3026  0.1384
   69MOL   C32837184   4.781   2.294   4.597  0.3296  0.0098  0.3479
   69MOL   C32937185   4.760   2.149   4.655 -0.0769 -0.1380  0.4920
   69MOL   C33037186   4.746   2.038   4.557 -0.0856  0.6793 -0.0881
   69MOL   O33137187   4.708   1.916   4.632  0.1093 -0.5532  0.2053
   69MOL   C33237188   4.659   1.818   4.561 -0.2616  0.6054  0.6664
   69MOL   O33337189   4.611   1.831   4.450 -0.0303 -0.5312  0.0416
   69MOL   C33437190   4.645   1.683   4.635 -0.0423 -0.3219  0.1009
   69MOL   C33537191   4.518   1.697   4.722  0.4534  0.0161 -0.9789
   69MOL   C33637192   4.770   1.658   4.730 -0.1246 -0.4352  0.4020
   69MOL   H33737193   4.912   2.557   4.680 -0.1699 -3.1761  2.3197
   69MOL   H33837194   4.751   2.619   4.722 -0.6389 -0.5484 -0.2044
   69MOL   H33937195   4.788   2.567   4.553 -2.1067 -0.8284  0.1713
   69MOL   H34037196   4.661   2.408   4.742 -0.0451  2.6116 -1.0945
   69MOL   H34137197   4.831   2.379   4.785  0.4521 -1.6028 -0.3144
   69MOL   H34237198   4.884   2.281   4.563 -0.1473 -1.9508 -0.3786
   69MOL   H34337199   4.723   2.312   4.507  0.9813 -3.3139 -0.8087
   69MOL   H34437200   4.664   2.156   4.707 -0.6420 -1.0171 -0.4049
   69MOL   H34537201   4.835   2.137   4.733  0.5505  3.5317  0.5895
   69MOL   H34637202   4.840   2.040   4.503  0.6226 -0.5132  1.0684
   69MOL   H34737203   4.668   2.055   4.482  1.8728  2.7424 -1.7294
   69MOL   H34837204   4.423   1.683   4.669 -0.4402  0.6135  0.4495
   69MOL   H34937205   4.514   1.798   4.762 -0.6909  0.4162 -2.0569
   69MOL   H35037206   4.520   1.632   4.809 -0.6574  1.1477 -0.0933
   69MOL   H35137207   4.764   1.554   4.761  0.9937 -1.1073 -1.5502
   69MOL   H35237208   4.760   1.735   4.807 -0.9558  0.6231 -0.7266
   69MOL   C35337209   5.467   2.194   5.019 -0.7813 -0.1307 -0.4542
   69MOL   C35437210   5.399   2.057   4.988  0.2579  0.1083 -0.0137
   69MOL   C35537211   5.252   2.077   4.952 -1.1106  0.0718 -0.1031
   69MOL   C35637212   5.192   1.940   4.922 -0.4725 -0.3195 -0.2817
   69MOL   C35737213   5.036   1.952   4.911 -0.2213 -0.4217 -0.2387
   69MOL   O35837214   4.983   1.836   4.860  0.8276  0.0197 -0.6519
   69MOL   C35937215   4.980   1.810   4.727  0.6695 -0.2366  0.0244
   69MOL   O36037216   5.022   1.895   4.639  0.4588 -0.2942 -0.0575
   69MOL   C36137217   4.924   1.667   4.689  0.4709  0.6896 -0.1494
   69MOL   C36237218   4.940   1.650   4.533  0.5004 -0.1676  0.2678
   69MOL   C36337219   5.000   1.557   4.774  0.3931  0.3724  0.7413
   69MOL   H36437220   5.388   2.269   5.007 -0.9872 -0.5884 -2.0456
   69MOL   H36537221   5.549   2.230   4.957  1.6475 -0.0590  2.6519
   69MOL   H36637222   5.492   2.203   5.125 -2.3679 -2.1335  0.1109
   69MOL   H36737223   5.457   1.998   4.917 -0.7737 -0.4124 -0.4312
   69MOL   H36837224   5.403   1.998   5.080 -1.5158  0.1619  0.1168
   69MOL   H36937225   5.251   2.148   4.870  1.6274  0.3933  0.1017
   69MOL   H37037226   5.206   2.119   5.042 -0.1184 -1.9672  1.4166
   69MOL   H37137227   5.211   1.863   4.997 -0.0062 -1.3133 -1.3927
   69MOL   H37237228   5.243   1.902   4.833  0.5848  0.3380  0.0285
   69MOL   H37337229   4.989   1.974   5.007 -2.7167 -1.3131 -1.2105
   69MOL   H37437230   4.998   2.033   4.848  0.1911  0.6088  0.8179
   69MOL   H37537231   5.046   1.662   4.509  0.9621 -1.0642  1.7508
   69MOL   H37637232   4.906   1.550   4.504  0.5295 -0.2217  0.4183
   69MOL   H37737233   4.890   1.726   4.474 -1.1961 -2.4209 -1.2585
   69MOL   H37837234   5.014   1.595   4.875  0.0801 -0.1902  1.0047
   69MOL   H37937235   4.941   1.465   4.785 -0.2305  0.6500 -0.2019
   69MOL   C38037236   5.240   1.471   5.601 -0.3300  0.8411  1.0296
   69MOL   C38137237   5.256   1.557   5.473  1.3598  0.1263 -0.5110
   69MOL   C38237238   5.249   1.462   5.350 -0.4298  0.6018 -0.6666
   69MOL   C38337239   5.237   1.534   5.217 -0.4205  0.3099  0.4037
   69MOL   C38437240   5.240   1.433   5.103 -0.2927  0.4769  0.4812
   69MOL   O38537241   5.207   1.493   4.983  0.2474 -0.3563 -0.5777
   69MOL   C38637242   5.177   1.415   4.867  0.1635  0.6737  0.6889
   69MOL   O38737243   5.170   1.291   4.865  0.5242  0.1950 -0.3081
   69MOL   C38837244   5.144   1.501   4.745  0.0783  0.8311  1.4626
   69MOL   C38937245   5.126   1.397   4.626 -0.8652 -0.4149  0.3865
   69MOL   C39037246   5.254   1.616   4.723 -0.0697  0.4744 -0.6111
   69MOL   H39137247   5.146   1.416   5.601  0.3709 -0.4053 -0.4642
   69MOL   H39237248   5.328   1.408   5.594 -3.5164 -3.7547  0.0983
   69MOL   H39337249   5.253   1.525   5.695 -0.9709  1.2840  0.8657
   69MOL   H39437250   5.349   1.614   5.479  1.3962  0.1574 -1.2804
   69MOL   H39537251   5.173   1.626   5.484  2.0726  1.5372 -3.4736
   69MOL   H39637252   5.345   1.411   5.358 -0.2673  1.2052  1.4942
   69MOL   H39737253   5.186   1.373   5.354  0.2157  0.2061  1.6181
   69MOL   H39837254   5.142   1.586   5.226 -1.0532 -0.4206 -1.6545
   69MOL   H39937255   5.312   1.612   5.202  0.5145 -1.1891 -3.4879
   69MOL   H40037256   5.157   1.364   5.118 -1.4078  1.8859  0.9062
   69MOL   H40137257   5.333   1.376   5.101  0.1509  1.1747  0.7033
   69MOL   H40237258   5.114   1.442   4.528 -1.7573 -3.3352 -0.8929
   69MOL   H40337259   5.048   1.322   4.637 -1.9324  0.8260  1.3042
   69MOL   H40437260   5.213   1.332   4.618 -0.5675 -0.4867  3.5005
   69MOL   H40537261   5.262   1.660   4.822  0.3600  0.1270 -0.4889
   69MOL   H40637262   5.217   1.706   4.673 -2.0608 -0.1401 -0.2701
   69MOL   C40737263   5.487   0.930   4.418  0.1445  0.1606  0.8476
   69MOL   C40837264   5.384   1.030   4.356  0.3685 -0.3911 -0.2132
   69MOL   C40937265   5.422   1.177   4.372 -0.2059  0.1958 -0.0193
   69MOL   C41037266   5.302   1.274   4.339 -0.3945  0.3111  0.2119
   69MOL   C41137267   5.337   1.424   4.349 -0.0559  0.2006  0.0835
   69MOL   O41237268   5.381   1.453   4.479  0.1996 -0.3449  0.2093
   69MOL   C41337269   5.406   1.573   4.516  0.2054 -0.0284 -0.3602
   69MOL   O41437270   5.430   1.659   4.436 -0.2921  0.0229  0.0992
   69MOL   C41537271   5.401   1.592   4.671  0.5850  0.0989  0.9555
   69MOL   C41637272   5.480   1.721   4.698  0.1861  0.2318 -0.7100
   69MOL   C41737273   5.463   1.472   4.753  0.4604 -0.5757  0.3920
   69MOL   H41837274   5.456   0.828   4.400  0.3944  0.0570  0.9978
   69MOL   H41937275   5.591   0.945   4.388 -0.5293 -0.5922 -1.9774
   69MOL   H42037276   5.487   0.934   4.527  3.0510 -1.3371  0.9438
   69MOL   H42137277   5.283   1.025   4.396  0.2345  0.4778 -0.4470
   69MOL   H42237278   5.372   1.013   4.249 -0.8925 -1.0646  0.0256
   69MOL   H42337279   5.438   1.196   4.478  2.3969  1.2770 -0.5899
   69MOL   H42437280   5.514   1.205   4.321  0.2113 -0.3559  0.4196
   69MOL   H42537281   5.211   1.246   4.393  0.8041 -1.6863  1.2922
   69MOL   H42637282   5.275   1.270   4.234 -1.1663  1.0685  0.3671
   69MOL   H42737283   5.420   1.443   4.282  0.4637  0.2372  0.7276
   69MOL   H42837284   5.256   1.491   4.323 -0.3389 -0.7318 -1.4909
   69MOL   H42937285   5.581   1.712   4.657  0.2423 -1.0887 -0.3069
   69MOL   H43037286   5.485   1.741   4.805 -0.8390 -0.0645 -0.6033
   69MOL   H43137287   5.425   1.804   4.653  0.7674  1.4077  0.7209
   69MOL   H43237288   5.399   1.389   4.721 -0.0347 -0.2868  0.6143
   69MOL   H43337289   5.427   1.485   4.855 -0.5829 -0.3327  0.0083
   69MOL   C43437290   5.737   1.396   5.243  0.8075  0.0747  0.2692
   69MOL   C43537291   5.719   1.531   5.312  0.2005 -0.5883 -0.5839
   69MOL   C43637292   5.606   1.624   5.252 -0.9957  0.5244 -0.1062
   69MOL   C43737293   5.647   1.726   5.146  0.3338  0.3072  0.3865
   69MOL   C43837294   5.737   1.669   5.029  0.6182 -0.1176 -0.0925
   69MOL   O43937295   5.655   1.592   4.939 -0.6160 -0.0719  0.9912
   69MOL   C44037296   5.706   1.536   4.828  0.0110 -0.0133 -0.1140
   69MOL   O44137297   5.810   1.570   4.773 -0.5097 -0.2805 -0.2859
   69MOL   C44237298   5.610   1.424   4.768  0.0828 -1.1137  0.0706
   69MOL   C44337299   5.658   1.375   4.634 -0.4420  0.1831 -0.0455
   69MOL   C44437300   5.597   1.309   4.881 -0.6968  0.2723  0.3996
   69MOL   H44537301   5.802   1.339   5.309  1.5747 -1.1685 -1.5304
   69MOL   H44637302   5.638   1.353   5.227  1.4009 -1.3093  0.2837
   69MOL   H44737303   5.774   1.402   5.141  0.9336  1.1907  0.3747
   69MOL   H44837304   5.692   1.499   5.413  0.4103  0.1465 -0.2860
   69MOL   H44937305   5.814   1.585   5.320 -1.5253  2.2880  1.7180
   69MOL   H45037306   5.536   1.552   5.209 -0.3878 -0.2839  0.2560
   69MOL   H45137307   5.547   1.663   5.335  1.2546 -1.4187  2.4630
   69MOL   H45237308   5.701   1.799   5.207 -0.2353 -0.2890  1.6176
   69MOL   H45337309   5.559   1.783   5.115 -0.3465 -0.7279  0.4221
   69MOL   H45437310   5.812   1.606   5.076  0.4868  1.1392  1.8454
   69MOL   H45537311   5.798   1.750   4.989 -1.2051  1.5371  0.3666
   69MOL   H45637312   5.642   1.455   4.563  1.8334  0.1158 -0.6791
   69MOL   H45737313   5.765   1.350   4.632 -0.5330 -0.2921  0.5875
   69MOL   H45837314   5.603   1.291   4.591  0.1274 -0.4843  0.4899
   69MOL   H45937315   5.493   1.279   4.890 -0.2043 -1.9027 -0.8089
   69MOL   H46037316   5.604   1.362   4.976 -0.9474  1.9411 -0.5016
   69MOL   C46137317   6.203   1.622   4.663  0.6490  0.0427  0.0003
   69MOL   C46237318   6.278   1.487   4.690  0.0830  0.1652 -0.6586
   69MOL   C46337319   6.231   1.408   4.808 -1.3103 -0.2583  0.2561
   69MOL   C46437320   6.078   1.389   4.809  0.3759 -0.0506  0.3868
   69MOL   C46537321   6.025   1.297   4.914 -0.1703  0.3097  0.3357
   69MOL   O46637322   5.884   1.286   4.912  0.2295  0.9730  0.5533
   69MOL   C46737323   5.822   1.187   4.837 -0.1188  0.0240 -0.2511
   69MOL   O46837324   5.874   1.113   4.756  0.5722  0.1150  0.2569
   69MOL   C46937325   5.678   1.171   4.874 -0.2819  0.3333  0.9521
   69MOL   C47037326   5.616   1.071   4.772 -0.1314 -0.5441  0.0291
   69MOL   C47137327   5.663   1.121   5.021 -0.2301 -0.1360 -0.1164
   69MOL   H47237328   6.253   1.680   4.585 -1.7319  0.4570 -1.2625
   69MOL   H47337329   6.200   1.692   4.747 -0.1724 -1.4139  1.1964
   69MOL   H47437330   6.096   1.613   4.644  0.7667  2.1707 -1.9353
   69MOL   H47537331   6.386   1.498   4.685  0.0817  0.3676 -0.2398
   69MOL   H47637332   6.254   1.429   4.600  1.6433 -0.8413 -0.4505
   69MOL   H47737333   6.262   1.457   4.901  0.0264 -0.1884 -0.2131
   69MOL   H47837334   6.285   1.314   4.809  0.8065  0.9037 -1.0472
   69MOL   H47937335   6.051   1.364   4.706  2.0956 -1.2049  0.1831
   69MOL   H48037336   6.038   1.487   4.833 -0.5852 -0.5587  0.8726
   69MOL   H48137337   6.061   1.195   4.900  0.2899  0.3250  1.3324
   69MOL   H48237338   6.061   1.312   5.016  3.4582 -0.1345 -0.8129
   69MOL   H48337339   5.516   1.041   4.804 -0.4800 -2.7639 -2.9135
   69MOL   H48437340   5.668   0.976   4.776  0.4989 -0.2619 -1.0774
   69MOL   H48537341   5.614   1.103   4.668 -0.3688  0.0752  0.2198
   69MOL   H48637342   5.557   1.121   5.048  0.0024 -3.0883  1.0394
   69MOL   H48737343   5.707   1.203   5.077  0.9566  0.1193 -1.3976
   69MOL   C48837344   4.982   0.895   5.148 -0.3363  0.0711 -0.2886
   69MOL   C48937345   5.050   0.762   5.114  0.4923  0.2527 -0.3471
   69MOL   C49037346   5.177   0.758   5.029  0.8132 -0.0950 -0.1694
   69MOL   C49137347   5.300   0.816   5.093  0.1480 -0.2965 -0.7908
   69MOL   C49237348   5.436   0.767   5.050 -0.5506 -0.5487  0.0940
   69MOL   O49337349   5.523   0.878   5.053 -0.1998 -1.0214  0.8977
   69MOL   C49437350   5.652   0.866   5.028 -0.3559 -0.6668 -0.4365
   69MOL   O49537351   5.701   0.773   4.968  0.2066 -0.1058 -0.0238
   69MOL   C49637352   5.726   0.995   5.080 -0.4073  0.1330 -0.5764
   69MOL   C49737353   5.678   1.000   5.236 -0.9879 -0.2056  0.1034
   69MOL   C49837354   5.881   0.991   5.061  0.2806 -0.2220  0.1830
   69MOL   H49937355   4.956   0.949   5.056 -0.5743 -0.2725 -0.4251
   69MOL   H50037356   4.903   0.873   5.220 -0.0428 -0.2130 -0.0533
   69MOL   H50137357   5.050   0.959   5.203 -0.8327  0.4786 -0.1427
   69MOL   H50237358   4.974   0.700   5.066 -0.6254 -0.8013  2.6714
   69MOL   H50337359   5.086   0.719   5.207  0.3427  1.9402  0.5098
   69MOL   H50437360   5.195   0.655   4.996  1.8213  0.4392 -1.3458
   69MOL   H50537361   5.157   0.816   4.938  2.3795 -0.1794 -0.5872
   69MOL   H50637362   5.283   0.808   5.200  1.5365 -1.6940 -0.6759
   69MOL   H50737363   5.296   0.924   5.079  0.1374 -0.2005 -0.0672
   69MOL   H50837364   5.476   0.690   5.116 -0.9582 -1.3087 -0.5424
   69MOL   H50937365   5.440   0.734   4.946 -0.8886 -2.3585  0.6422
   69MOL   H51037366   5.729   1.079   5.292  0.9406 -1.4234  0.1150
   69MOL   H51137367   5.695   0.902   5.279 -0.6214 -0.9325 -1.6579
   69MOL   H51237368   5.571   1.024   5.241 -1.0445 -0.5369  0.4944
   69MOL   H51337369   5.910   1.095   5.078  0.5352  0.1163 -2.2650
   69MOL   H51437370   5.915   0.972   4.960  2.8009  0.2832  0.8996
   69MOL   C51537371   6.413   1.226   5.658 -0.2281 -0.6901  0.0871
   69MOL   C51637372   6.283   1.156   5.701 -0.1325  0.3880  0.9926
   69MOL   C51737373   6.157   1.217   5.639  0.4011  0.3998  0.1554
   69MOL   C51837374   6.149   1.182   5.489 -0.5156 -0.0460  0.1597
   69MOL   C51937375   6.001   1.149   5.445 -0.1956 -0.0363 -0.4372
   69MOL   O52037376   5.991   1.088   5.308 -0.5564 -0.0508  0.3750
   69MOL   C52137377   5.979   0.956   5.293  0.4188 -0.1671 -0.6929
   69MOL   O52237378   5.961   0.874   5.383 -0.6236 -0.3711 -0.5944
   69MOL   C52337379   5.979   0.911   5.144  0.5608 -0.1683 -0.1417
   69MOL   C52437380   6.118   0.938   5.083  0.3309 -0.5852  0.3157
   69MOL   C52537381   5.971   0.757   5.128 -0.2992 -0.3016 -0.0427
   69MOL   H52637382   6.430   1.224   5.550  1.9879 -0.2131  0.4138
   69MOL   H52737383   6.415   1.334   5.676 -1.2483 -0.5979 -0.2898
   69MOL   H52837384   6.498   1.175   5.703  1.0218  1.4049  0.1720
   69MOL   H52937385   6.289   1.049   5.680 -0.6580  0.2764  1.3895
   69MOL   H53037386   6.278   1.176   5.808  2.6200  0.6139  1.1120
   69MOL   H53137387   6.072   1.166   5.684  0.9549 -3.0073 -2.4138
   69MOL   H53237388   6.156   1.324   5.659  2.7398  0.1368  1.8922
   69MOL   H53337389   6.211   1.096   5.463 -0.3075  0.6444 -1.6990
   69MOL   H53437390   6.196   1.263   5.433  0.3268  0.4154  1.5030
   69MOL   H53537391   5.951   1.078   5.511 -0.4746 -0.1169 -0.7321
   69MOL   H53637392   5.951   1.246   5.451 -0.1339 -0.0704  0.7803
   69MOL   H53737393   6.112   0.938   4.974  0.1522  0.2191  0.3266
   69MOL   H53837394   6.207   0.883   5.112  0.5666  0.4470  1.5910
   69MOL   H53937395   6.141   1.044   5.089 -0.8080 -0.1411 -2.1609
   69MOL   H54037396   6.059   0.708   5.170  0.6388  1.2257 -0.1929
   69MOL   H54137397   5.965   0.721   5.025  0.4991  0.1759 -0.2589
   69MOL   H54237398   5.886   0.720   5.185 -0.8219 -1.1092 -1.3282
   70MOL     C137399   6.495   7.214   7.775  0.2608 -0.4381 -0.3485
   70MOL     C237400   6.428   7.338   7.715 -0.3821 -0.0872  0.4101
   70MOL     C337401   6.399   7.331   7.561 -0.2806 -0.0949 -0.2309
   70MOL     C437402   6.340   7.462   7.508  0.5177  0.4847  0.0526
   70MOL     C537403   6.290   7.454   7.362 -0.3420 -0.1355 -0.2257
   70MOL     O637404   6.264   7.591   7.329  0.0533 -0.3888 -0.1889
   70MOL     C737405   6.186   7.615   7.220  0.0001  0.5152  0.3192
   70MOL     O837406   6.135   7.526   7.152 -0.2735 -0.1797  0.5595
   70MOL     C937407   6.157   7.764   7.200  0.0147 -0.1484 -0.1127
   70MOL    C1037408   6.082   0.005   7.321  0.4481 -0.3010  0.1971
   70MOL    C1137409   6.081   7.803   7.065  0.0375 -0.4469  0.3959
   70MOL    H1237410   6.434   7.124   7.777 -1.9725  1.0653  3.1322
   70MOL    H1337411   6.523   7.220   0.066 -1.0591 -2.2231  0.1188
   70MOL    H1437412   6.591   7.189   7.728 -0.4463 -0.1649 -1.9744
   70MOL    H1537413   6.339   7.349   7.777  0.1657  0.5044  1.0890
   70MOL    H1637414   6.480   7.431   7.737 -2.0290  0.8585  0.4420
   70MOL    H1737415   6.492   7.325   7.504 -1.6073  0.3558 -2.5046
   70MOL    H1837416   6.345   7.241   7.530 -1.4817  0.1810  1.0428
   70MOL    H1937417   6.411   7.544   7.515  3.2678 -1.5149 -2.7101
   70MOL    H2037418   6.250   7.479   7.566  0.0822  0.8183 -0.7061
   70MOL    H2137419   6.377   7.430   7.300  0.9701 -0.0415  1.5366
   70MOL    H2237420   6.204   7.388   7.351 -0.2584 -0.1502 -0.8149
   70MOL    H2337421   5.984   7.772   7.313  0.5300 -0.4017 -0.2099
   70MOL    H2437422   6.077   0.114   7.316 -1.7784 -0.4850 -2.2349
   70MOL    H2537423   6.125   7.783   7.415 -2.0521 -0.6412  1.2523
   70MOL    H2637424   5.980   0.010   7.099 -1.1442 -0.8186 -2.6727
   70MOL    H2737425   6.058   7.722   6.996  1.5800 -1.1412  0.6747
   70MOL    H2837426   6.260   7.797   7.190  0.4763 -1.5102 -0.0530
   70MOL    C2937427   6.707   7.646   7.377  0.1065  0.4861 -0.2024
   70MOL    C3037428   6.650   7.578   7.255 -0.3028 -0.6102  0.0940
   70MOL    C3137429   6.557   7.674   7.169 -0.0228  0.5333  0.4001
   70MOL    C3237430   6.533   7.628   7.024  0.3192  0.2772  0.0282
   70MOL    C3337431   6.477   7.739   6.933 -0.4665  0.7124  0.3102
   70MOL    O3437432   6.347   7.780   6.975 -0.1889  0.0500 -0.1573
   70MOL    C3537433   6.291   0.082   6.936 -0.1427 -0.4572  0.4278
   70MOL    O3637434   6.350   0.167   6.863 -0.2847 -0.0512  0.0557
   70MOL    C3737435   6.146   0.115   6.990  0.0518 -0.5812 -0.4472
   70MOL    C3837436   6.180   0.236   7.087  0.3717 -0.1452 -0.0574
   70MOL    C3937437   6.049   0.175   6.882  0.8985  0.8151  0.4917
   70MOL    H4037438   6.770   7.730   7.350  1.6835 -0.0771  1.5900
   70MOL    H4137439   6.630   7.675   7.449 -0.7660 -0.8172 -0.5873
   70MOL    H4237440   6.757   7.571   7.438 -0.9291  1.5174  1.9679
   70MOL    H4337441   6.599   7.483   7.274 -0.3947 -0.6877 -0.5516
   70MOL    H4437442   6.732   7.556   7.188  1.1167  1.1241  1.2120
   70MOL    H4537443   6.618   7.764   7.163  1.0235 -0.2831 -1.6693
   70MOL    H4637444   6.465   7.703   7.220  0.4415  2.5165  0.1284
   70MOL    H4737445   6.623   7.596   6.973  0.2575  0.2213 -0.0454
   70MOL    H4837446   6.465   7.543   7.028  0.4042  0.2247  0.4115
   70MOL    H4937447   6.467   7.700   6.832 -0.6283  0.6907  0.3353
   70MOL    H5037448   6.545   0.010   6.935  0.4014  0.0326  0.2873
   70MOL    H5137449   6.227   0.325   7.044 -0.0657  0.6534  1.0952
   70MOL    H5237450   6.239   0.210   7.175 -0.9974 -0.9258  0.6435
   70MOL    H5337451   6.083   0.271   7.121  0.6150 -0.1601  0.6641
   70MOL    H5437452   6.115   0.253   6.845 -0.7153  1.7065 -0.5982
   70MOL    H5537453   5.967   0.235   6.921  0.9199  1.4714 -0.4515
   70MOL    C5637454   5.302   7.463   7.029  0.0962 -0.3042 -0.7415
   70MOL    C5737455   5.366   7.573   6.946  0.6712 -0.7315 -0.1603
   70MOL    C5837456   5.506   7.621   6.997  0.4072 -0.3046 -0.0497
   70MOL    C5937457   5.576   7.718   6.908  0.0520 -0.0068 -0.0309
   70MOL    C6037458   5.718   7.754   6.975 -0.2991 -0.0122  0.2911
   70MOL    O6137459   5.799   0.032   6.901  0.1983  0.6850  0.6308
   70MOL    C6237460   5.880   7.808   6.800 -0.0226 -0.0953 -0.1916
   70MOL    O6337461   5.869   7.696   6.745  0.2087 -0.2092 -0.1746
   70MOL    C6437462   5.985   0.097   6.760  0.0311 -0.2582 -0.2073
   70MOL    C6537463   6.100   0.018   6.684 -0.3223 -0.2618  0.5258
   70MOL    C6637464   5.905   0.203   6.676 -0.5774 -0.0888 -0.3481
   70MOL    H6737465   5.282   7.501   7.130  1.7792  2.8964 -1.5351
   70MOL    H6837466   5.360   7.371   7.026  1.7343  0.6237  0.8571
   70MOL    H6937467   5.202   7.437   6.996 -0.6459 -0.2253  1.3213
   70MOL    H7037468   5.388   7.541   6.844  0.9563 -2.5705  0.4576
   70MOL    H7137469   5.298   7.658   6.942  0.9035 -0.6143 -2.3042
   70MOL    H7237470   5.507   7.651   7.101  1.7230 -0.1732 -0.0959
   70MOL    H7337471   5.568   7.531   6.995 -1.1654 -1.4132  0.1660
   70MOL    H7437472   5.520   7.811   6.913 -0.1308 -0.1933  1.4718
   70MOL    H7537473   5.577   7.690   6.802  2.8524 -0.4168  0.0557
   70MOL    H7637474   5.700   7.797   7.074 -1.3763  1.1266 -0.3881
   70MOL    H7737475   5.776   7.667   7.004 -0.9215  0.2907  2.5905
   70MOL    H7837476   6.190   0.072   6.655 -1.2150 -0.4944 -2.9139
   70MOL    H7937477   6.061   7.790   6.592  1.4760 -0.6657 -0.0709
   70MOL    H8037478   6.130   7.748   6.746  3.8469  0.6505 -0.0736
   70MOL    H8137479   5.833   0.251   6.742  0.3116  0.3296  0.3261
   70MOL    H8237480   5.827   0.152   6.618 -0.0015 -2.6199  1.0631
   70MOL    C8337481   5.697   0.918   6.814 -0.3914  0.7271 -0.4981
   70MOL    C8437482   5.845   0.889   6.779 -0.1974 -0.0028 -0.8836
   70MOL    C8537483   5.888   0.735   6.797 -0.2844  0.2973  0.6941
   70MOL    C8637484   6.044   0.714   6.777  0.8333  0.3071 -0.3507
   70MOL    C8737485   6.095   0.575   6.825 -0.0694  0.4235  0.0643
   70MOL    O8837486   6.018   0.477   6.767  0.4935  0.2378 -0.2003
   70MOL    C8937487   6.067   0.411   6.656  0.2409 -0.6690 -0.3823
   70MOL    O9037488   6.185   0.419   6.620  0.1757 -0.5252  0.1980
   70MOL    C9137489   5.963   0.313   6.582  0.3599  0.2139 -0.3612
   70MOL    C9237490   6.025   0.238   6.465 -0.0629 -0.0698 -0.2036
   70MOL    C9337491   5.840   0.406   6.523 -0.3536  0.1447  0.0760
   70MOL    H9437492   5.685   1.021   6.846  0.3624 -0.0376  2.4869
   70MOL    H9537493   5.635   0.888   6.730 -0.5902 -0.7568  0.1491
   70MOL    H9637494   5.663   0.865   6.904 -1.5631 -0.0612 -1.3882
   70MOL    H9737495   5.913   0.944   6.843  1.4534 -1.0976 -1.6302
   70MOL    H9837496   5.867   0.920   6.677 -0.5474  1.7129 -0.4522
   70MOL    H9937497   5.832   0.672   6.727  1.4493 -2.6794  1.8849
   70MOL   H10037498   5.867   0.701   6.899  0.3468 -2.0867  0.0707
   70MOL   H10137499   6.098   0.793   6.830  1.0653  0.6027 -1.0251
   70MOL   H10237500   6.083   0.724   6.676  2.6266  0.3383  0.3302
   70MOL   H10337501   6.070   0.567   6.931  0.9590  0.5403  0.3217
   70MOL   H10437502   6.201   0.553   6.817  0.2398  1.1510  1.9951
   70MOL   H10537503   6.131   0.216   6.473 -0.2589 -0.6766  0.8145
   70MOL   H10637504   6.040   0.296   6.374  3.2231 -0.9292 -0.2581
   70MOL   H10737505   5.967   0.150   6.437 -0.9778  0.8084 -1.1208
   70MOL   H10837506   5.756   0.339   6.512  0.2692 -0.5621 -0.4394
   70MOL   H10937507   5.816   0.478   6.601 -1.5720  0.4341 -0.5590
   70MOL   C11037508   6.136   0.587   5.693  0.5503  0.4243 -0.2129
   70MOL   C11137509   6.071   0.477   5.771 -0.8268  0.0992  0.0716
   70MOL   C11237510   5.983   0.524   5.890 -0.8215 -1.1142  0.0710
   70MOL   C11337511   5.893   0.404   5.943 -0.3038 -0.7964  0.6789
   70MOL   C11437512   5.771   0.453   6.019  0.7556  0.8367  1.3707
   70MOL   O11537513   5.812   0.498   6.151 -0.0770 -0.3900  0.4062
   70MOL   C11637514   5.812   0.424   6.262  0.0268 -0.4506  0.5414
   70MOL   O11737515   5.793   0.302   6.272  0.3669 -0.6241 -0.7375
   70MOL   C11837516   5.845   0.501   6.391 -0.5838 -0.2281  0.1044
   70MOL   C11937517   5.987   0.571   6.376 -0.1645  0.4119 -0.3751
   70MOL   C12037518   5.738   0.612   6.403  0.0674 -0.3942  0.5547
   70MOL   H12137519   6.185   0.526   5.617 -0.1379  2.0650 -2.0043
   70MOL   H12237520   6.056   0.631   5.634 -0.2639 -0.6380  0.0795
   70MOL   H12337521   6.204   0.654   5.744 -1.5932  0.5426  2.6523
   70MOL   H12437522   6.022   0.407   5.704 -1.6840 -2.4347  3.1627
   70MOL   H12537523   6.156   0.429   5.820 -0.0980  2.2777  1.0301
   70MOL   H12637524   6.045   0.561   5.972  0.7394 -0.7063 -1.2699
   70MOL   H12737525   5.924   0.607   5.850  0.6835 -0.1520 -0.1949
   70MOL   H12837526   5.945   0.321   5.990 -1.0767 -0.2768  2.4783
   70MOL   H12937527   5.854   0.358   5.852  0.1964 -1.6785  0.9022
   70MOL   H13037528   5.718   0.525   5.957  1.1831  0.2864  0.3540
   70MOL   H13137529   5.706   0.366   6.033 -0.5461  1.3850 -1.1242
   70MOL   H13237530   6.064   0.501   6.343  0.1257  0.9073 -0.7464
   70MOL   H13337531   5.980   0.660   6.314  0.5689 -1.3015 -3.0029
   70MOL   H13437532   6.026   0.619   6.466 -2.2415 -0.0656  0.8234
   70MOL   H13537533   5.762   0.674   6.489  0.2357 -2.0486  1.7375
   70MOL   H13637534   5.760   0.690   6.330  0.1718 -0.8579  0.0887
   70MOL   C13737535   5.279   0.802   6.850  0.2568 -0.7187  0.0120
   70MOL   C13837536   5.262   0.657   6.899  0.0340 -0.0042  0.0109
   70MOL   C13937537   5.350   0.553   6.845 -1.1522  0.3685  0.2430
   70MOL   C14037538   5.500   0.572   6.875  0.8040  0.3247 -0.3145
   70MOL   C14137539   5.596   0.503   6.783  0.5616 -0.5755 -0.4262
   70MOL   O14237540   5.597   0.564   6.652 -0.1985  0.3991 -0.8944
   70MOL   C14337541   5.546   0.503   6.539 -0.9479 -0.8494  0.0072
   70MOL   O14437542   5.493   0.389   6.535 -0.6029 -0.0928 -0.6678
   70MOL   C14537543   5.578   0.591   6.413 -0.0139  0.5793  0.6215
   70MOL   C14637544   5.521   0.735   6.442  0.7019 -0.0392 -0.4366
   70MOL   C14737545   5.512   0.525   6.283 -0.0669 -0.4217  0.2465
   70MOL   H14837546   5.367   0.857   6.883  0.3523 -1.8714  1.7386
   70MOL   H14937547   5.188   0.841   6.896  0.3775 -0.2806 -0.1168
   70MOL   H15037548   5.254   0.800   6.744 -0.5592 -0.3988  0.1945
   70MOL   H15137549   5.159   0.626   6.882 -0.4290  0.8749  1.1934
   70MOL   H15237550   5.272   0.654   7.007 -2.4654  0.6290  0.2709
   70MOL   H15337551   5.305   0.458   6.874 -0.1811 -0.5347 -1.1653
   70MOL   H15437552   5.334   0.550   6.737  0.7371 -1.0151 -0.0145
   70MOL   H15537553   5.516   0.680   6.872 -2.5061  0.8666 -0.0345
   70MOL   H15637554   5.523   0.532   6.974  0.4608 -1.5510 -0.9644
   70MOL   H15737555   5.577   0.396   6.770 -1.8302 -0.4274  1.5640
   70MOL   H15837556   5.698   0.522   6.817  0.7292 -0.4673 -0.9751
   70MOL   H15937557   5.412   0.744   6.439  0.7793  1.3194  0.3870
   70MOL   H16037558   5.555   0.811   6.372 -1.9767  0.5975 -1.1010
   70MOL   H16137559   5.546   0.786   6.535 -1.6331 -0.4473  0.4528
   70MOL   H16237560   5.572   0.556   6.197 -1.2232 -0.1211 -0.4673
   70MOL   H16337561   5.538   0.420   6.293  0.0133 -0.4518 -0.2367
   70MOL   C16437562   5.695   1.041   5.619  0.6127  0.1511  0.4981
   70MOL   C16537563   5.668   0.909   5.704  0.0356 -0.1550 -0.3750
   70MOL   C16637564   5.568   0.931   5.816 -0.0625  0.1958 -0.0180
   70MOL   C16737565   5.564   0.814   5.915 -0.5854  0.2597  0.1243
   70MOL   C16837566   5.437   0.820   6.003 -0.1404 -0.7691  0.2369
   70MOL   O16937567   5.438   0.698   6.077  0.0458  0.2999  0.3130
   70MOL   C17037568   5.354   0.684   6.186  0.1158 -0.5275  0.3540
   70MOL   O17137569   5.292   0.782   6.230 -0.4782 -0.6000 -0.1951
   70MOL   C17237570   5.356   0.545   6.243 -0.4094 -0.0884 -0.5073
   70MOL   C17337571   5.261   0.529   6.365  0.1117 -0.1070  0.5401
   70MOL   C17437572   5.323   0.443   6.133  0.6964  0.1033  0.2677
   70MOL   H17537573   5.610   1.091   5.574 -0.2758 -0.1128  1.8542
   70MOL   H17637574   5.749   1.012   5.529  1.4359  0.4779  0.8741
   70MOL   H17737575   5.747   1.115   5.679  0.9381  0.2879  0.0477
   70MOL   H17837576   5.764   0.869   5.735  0.3553  0.2701 -0.8024
   70MOL   H17937577   5.626   0.836   5.634 -1.9680 -0.7958  1.4281
   70MOL   H18037578   5.591   1.025   5.864  0.2702 -0.5437  1.2886
   70MOL   H18137579   5.472   0.951   5.769  0.3879  3.1733  0.2737
   70MOL   H18237580   5.654   0.811   5.977 -1.7856 -0.6087  1.8612
   70MOL   H18337581   5.589   0.723   5.861  3.7667  1.5156 -0.1863
   70MOL   H18437582   5.344   0.829   5.946 -0.7155  0.7136  1.3891
   70MOL   H18537583   5.446   0.903   6.072 -0.5374  0.1618 -0.8076
   70MOL   H18637584   5.295   0.592   6.447  1.2630  0.9394 -0.7109
   70MOL   H18737585   5.253   0.428   6.405  1.5455  0.6204  2.7488
   70MOL   H18837586   5.164   0.569   6.335  1.0341  1.7503 -0.0735
   70MOL   H18937587   5.384   0.457   6.044  2.9477  1.0344  1.9068
   70MOL   H19037588   5.358   0.344   6.159 -1.1648 -1.2436 -2.1261
   70MOL   C19137589   5.116   0.112   6.785  0.5337  0.6069  0.7270
   70MOL   C19237590   4.993   0.140   6.702 -0.0114  0.1793  0.5163
   70MOL   C19337591   5.009   0.096   6.553 -0.3718 -0.1271 -0.3454
   70MOL   C19437592   5.094   0.187   6.464  0.4949  0.3182 -0.6850
   70MOL   C19537593   5.080   0.151   6.313  0.3965  0.3813 -0.6047
   70MOL   O19637594   5.151   0.235   6.230  0.0498  0.1318 -0.1621
   70MOL   C19737595   5.096   0.352   6.184  0.1243  0.1937  0.3480
   70MOL   O19837596   4.983   0.388   6.213 -0.2000  0.2083 -0.4464
   70MOL   C19937597   5.176   0.422   6.067  0.1916  0.4112 -0.0969
   70MOL   C20037598   5.208   0.310   5.961  0.5397  0.1351  0.2939
   70MOL   C20137599   5.113   0.561   6.015  1.0038  0.0280 -0.1602
   70MOL   H20237600   5.212   0.154   6.757  0.8531 -1.7183 -1.8459
   70MOL   H20337601   5.092   0.147   6.885  1.9587 -0.1383  1.3496
   70MOL   H20437602   5.122   0.004   6.795  0.8353  0.6864  1.4752
   70MOL   H20537603   4.965   0.245   6.714  2.1386  0.6729  1.5297
   70MOL   H20637604   4.912   0.079   6.742 -0.3748  0.0723 -0.3919
   70MOL   H20737605   4.906   0.096   6.516  0.6694  0.7074 -3.4220
   70MOL   H20837606   5.045   7.807   6.553 -0.6966 -0.2414  0.9042
   70MOL   H20937607   5.065   0.291   6.477  2.3517  0.9629 -1.6278
   70MOL   H21037608   5.201   0.177   6.484  0.6528 -0.2748 -1.7682
   70MOL   H21137609   5.133   0.055   6.307 -1.2174 -0.5561 -0.1826
   70MOL   H21237610   4.982   0.140   6.268 -1.0905 -1.5956  2.8657
   70MOL   H21337611   5.275   0.341   5.881 -3.4799  2.9910 -2.1539
   70MOL   H21437612   5.113   0.279   5.917 -0.0715 -0.5252  2.0390
   70MOL   H21537613   5.271   0.230   5.999 -1.9671 -1.8863  0.3670
   70MOL   H21637614   5.201   0.617   5.983  2.0370 -2.5757 -1.9989
   70MOL   H21737615   5.068   0.617   6.097  1.5350 -0.6686  0.6245
   70MOL   C21837616   4.224   0.416   5.985 -1.1047  0.2762  0.7098
   70MOL   C21937617   4.343   0.508   6.037  0.6737 -0.3270 -0.0615
   70MOL   C22037618   4.478   0.436   5.997 -0.0289  0.3390 -0.6060
   70MOL   C22137619   4.609   0.500   6.050  0.0387 -0.2359  0.6465
   70MOL   C22237620   4.729   0.403   6.022  0.6224 -0.3573 -0.1476
   70MOL   O22337621   4.833   0.490   5.990 -0.4567  0.5194  0.5682
   70MOL   C22437622   4.905   0.478   5.881 -0.7901 -0.5504 -0.3607
   70MOL   O22537623   4.875   0.403   5.785  0.0194  0.1834 -0.4845
   70MOL   C22637624   5.029   0.575   5.884 -0.3370  0.5394 -0.0763
   70MOL   C22737625   5.117   0.548   5.756 -0.2540  0.0170 -0.3151
   70MOL   C22837626   4.977   0.722   5.887 -0.0603 -0.2038  0.0363
   70MOL   H22937627   4.248   0.390   5.881 -2.1513 -0.9270  0.7653
   70MOL   H23037628   4.197   0.334   6.051  1.6474  0.7768  2.5725
   70MOL   H23137629   4.135   0.479   5.990  0.2821  2.3076  0.7343
   70MOL   H23237630   4.340   0.521   6.145  0.5017  1.7400 -0.2984
   70MOL   H23337631   4.326   0.603   5.988  1.0326 -0.7322 -0.9854
   70MOL   H23437632   4.486   0.415   5.891 -2.1175 -1.6574 -0.4113
   70MOL   H23537633   4.477   0.340   6.048  0.4426  1.7000  2.0737
   70MOL   H23637634   4.624   0.595   6.000 -0.1557 -0.6992 -0.3098
   70MOL   H23737635   4.604   0.537   6.153 -1.3543  0.0678  0.4772
   70MOL   H23837636   4.714   0.332   5.941 -1.4627 -1.5665  1.2606
   70MOL   H23937637   4.747   0.343   6.111  3.3553 -1.7484 -1.5763
   70MOL   H24037638   5.213   0.598   5.746 -0.4080  0.2472 -0.6258
   70MOL   H24137639   5.062   0.579   5.668  0.1433 -0.4500 -0.7373
   70MOL   H24237640   5.130   0.439   5.751 -0.7087 -0.0205 -0.7301
   70MOL   H24337641   5.059   0.786   5.920 -0.5512  1.6577 -2.1898
   70MOL   H24437642   4.906   0.733   5.968  0.9003  1.7832  0.6398
   70MOL   C24537643   4.132   0.581   5.527  0.0511  0.6331  0.6500
   70MOL   C24637644   4.228   0.634   5.627  0.3093 -0.0635 -0.0640
   70MOL   C24737645   4.368   0.567   5.612  0.2586 -0.2405 -0.3837
   70MOL   C24837646   4.477   0.643   5.684  0.1046  0.1412  0.0208
   70MOL   C24937647   4.627   0.599   5.657 -0.5504  0.8283  0.1683
   70MOL   O25037648   4.704   0.690   5.726  0.6986  0.5915 -0.1995
   70MOL   C25137649   4.820   0.723   5.673  0.4226 -0.5326  0.6376
   70MOL   O25237650   4.859   0.680   5.565  0.1205  0.4866 -0.3241
   70MOL   C25337651   4.913   0.805   5.760 -0.0406  0.1310 -0.6257
   70MOL   C25437652   5.028   0.867   5.669 -0.8313 -0.1552  0.5021
   70MOL   C25537653   4.824   0.918   5.820  0.7040 -0.2223  0.3651
   70MOL   H25637654   4.104   0.478   5.549  0.4085  0.3683 -0.1151
   70MOL   H25737655   4.042   0.643   5.529 -0.1858  0.3064  0.1926
   70MOL   H25837656   4.184   0.577   5.432 -0.6494  1.8442  0.2034
   70MOL   H25937657   4.229   0.742   5.609 -0.2614  0.3154  2.0754
   70MOL   H26037658   4.181   0.615   5.724  2.0154 -1.5954  0.4903
   70MOL   H26137659   4.392   0.553   5.506  0.2922 -0.1657 -0.3863
   70MOL   H26237660   4.359   0.468   5.655  0.7320 -0.5758 -1.0492
   70MOL   H26337661   4.459   0.746   5.653 -2.3313  0.0784  1.0787
   70MOL   H26437662   4.460   0.643   5.792 -1.0949  2.0170 -0.1394
   70MOL   H26537663   4.649   0.500   5.695 -0.4045  2.1677  3.7417
   70MOL   H26637664   4.641   0.610   5.549  0.0790 -1.4917 -0.0126
   70MOL   H26737665   5.095   0.790   5.630 -2.2586 -1.5005  0.6129
   70MOL   H26837666   4.999   0.926   5.582 -0.2949  0.4417  0.7316
   70MOL   H26937667   5.091   0.934   5.727 -1.3295 -0.7665  1.7729
   70MOL   H27037668   4.732   0.871   5.856 -0.0754 -0.3941 -1.7942
   70MOL   H27137669   4.881   0.943   5.910  0.9130  1.6640 -0.2727
   70MOL   C27237670   5.203   1.157   6.301  0.6979 -0.0091 -0.3451
   70MOL   C27337671   5.179   1.125   6.160  0.1257  0.2860 -0.4153
   70MOL   C27437672   5.258   1.211   6.059  0.0339  0.7060  0.9042
   70MOL   C27537673   5.251   1.171   5.911 -1.3808  0.5209 -0.0950
   70MOL   C27637674   5.128   1.213   5.825  0.6376 -0.8951  0.8128
   70MOL   O27737675   5.007   1.135   5.828  0.0472  0.3381  0.1416
   70MOL   C27837676   4.915   1.146   5.727 -0.6435 -0.3390 -0.1033
   70MOL   O27937677   4.931   1.216   5.627 -0.2446 -0.5767  0.0830
   70MOL   C28037678   4.790   1.065   5.754  0.6442  0.2035 -0.2596
   70MOL   C28137679   4.728   1.035   5.611 -0.9677  0.0174  0.1077
   70MOL   C28237680   4.675   1.140   5.834 -0.1644  0.1413  0.0470
   70MOL   H28337681   5.306   1.155   6.337  0.1666  2.4998  1.4684
   70MOL   H28437682   5.174   1.259   6.326  2.1801  0.5313 -0.7707
   70MOL   H28537683   5.140   1.094   6.364  0.2177  0.0618 -0.7547
   70MOL   H28637684   5.205   1.020   6.144  1.0789  0.6102 -1.0242
   70MOL   H28737685   5.073   1.139   6.141  0.2552  1.4420 -0.2846
   70MOL   H28837686   5.245   1.318   6.075 -0.6048  0.8460 -0.4569
   70MOL   H28937687   5.362   1.197   6.087  0.5113  1.1500 -0.5803
   70MOL   H29037688   5.344   1.205   5.864 -0.9578  0.9293  1.0231
   70MOL   H29137689   5.263   1.063   5.907  0.9184  0.7424 -0.1505
   70MOL   H29237690   5.160   1.205   5.722  3.0878  0.0381  1.4416
   70MOL   H29337691   5.101   1.319   5.832  1.6400 -0.5951  0.1955
   70MOL   H29437692   4.640   0.971   5.624 -0.0898 -1.2753 -0.2642
   70MOL   H29537693   4.679   1.124   5.570  0.6475  0.5794 -0.6176
   70MOL   H29637694   4.797   0.993   5.538 -0.7034  0.0027  0.3674
   70MOL   H29737695   4.681   1.241   5.794  0.4028  0.4584  0.9305
   70MOL   H29837696   4.585   1.092   5.795  0.5997  0.2807 -1.9618
   70MOL   C29937697   4.943   0.726   6.580  0.4510 -0.5933 -0.0094
   70MOL   C30037698   4.938   0.847   6.495  0.2914 -0.0890  0.3328
   70MOL   C30137699   4.798   0.884   6.436 -0.7491  0.3339  0.6374
   70MOL   C30237700   4.765   0.795   6.317 -0.0302 -0.4183 -0.1969
   70MOL   C30337701   4.645   0.861   6.236 -0.0017 -0.2281  0.0276
   70MOL   O30437702   4.689   0.971   6.152 -0.3258 -0.4453  0.4413
   70MOL   C30537703   4.617   1.010   6.045 -0.2364  0.2999 -0.6780
   70MOL   O30637704   4.538   0.940   5.984  0.1374 -0.4246 -0.6748
   70MOL   C30737705   4.664   1.148   5.988 -0.8329 -0.6044 -0.5388
   70MOL   C30837706   4.799   1.194   6.047  0.1187  0.2335 -0.0958
   70MOL   C30937707   4.550   1.255   6.015  0.0886  0.3665  0.3617
   70MOL   H31037708   4.891   0.756   6.670  2.6890 -0.7516  1.3634
   70MOL   H31137709   5.044   0.700   6.613  0.9460  0.5630 -0.5623
   70MOL   H31237710   4.892   0.635   6.548 -1.7167  0.1325  1.2638
   70MOL   H31337711   5.018   0.837   6.422  2.6788 -0.5008  2.9214
   70MOL   H31437712   4.963   0.932   6.559  2.2408  0.5215 -1.1839
   70MOL   H31537713   4.793   0.992   6.426 -1.1591  0.3613  1.1113
   70MOL   H31637714   4.720   0.862   6.509 -1.1907 -0.9576 -0.2106
   70MOL   H31737715   4.723   0.704   6.359  4.2134 -2.0467  0.7356
   70MOL   H31837716   4.853   0.778   6.255  1.1464  1.0283  1.0264
   70MOL   H31937717   4.615   0.779   6.170 -1.0055 -1.4963  2.0152
   70MOL   H32037718   4.570   0.882   6.312 -0.1884  0.4830 -0.3463
   70MOL   H32137719   4.824   1.294   6.011  0.1089  0.2362 -0.0940
   70MOL   H32237720   4.786   1.208   6.155 -1.8984 -1.0796 -0.1315
   70MOL   H32337721   4.874   1.120   6.022 -0.6352 -1.4088  2.2908
   70MOL   H32437722   4.456   1.225   5.970  0.4447  1.5043 -1.1631
   70MOL   H32537723   4.571   1.342   5.953 -1.2057 -0.7499 -1.7127
   70MOL   C32637724   4.759   2.119   6.212  0.5993 -0.2173 -0.6210
   70MOL   C32737725   4.687   1.991   6.157 -0.0245  0.5958  0.3401
   70MOL   C32837726   4.769   1.863   6.178  0.1221  0.3652 -0.0435
   70MOL   C32937727   4.710   1.738   6.110 -0.3121 -0.4522  0.1259
   70MOL   C33037728   4.729   1.610   6.205 -0.5221  0.5473  0.4276
   70MOL   O33137729   4.653   1.512   6.134  0.1516 -0.5376  0.3404
   70MOL   C33237730   4.620   1.404   6.212 -0.7387  0.3381  0.1140
   70MOL   O33337731   4.677   1.378   6.319 -0.0190  0.1091  0.0239
   70MOL   C33437732   4.505   1.317   6.151 -0.0696  0.5311 -0.5682
   70MOL   C33537733   4.392   1.410   6.105 -0.0437  0.2211  1.1469
   70MOL   C33637734   4.466   1.207   6.249  0.5632  1.1742 -0.2753
   70MOL   H33737735   4.856   2.132   6.164 -0.5534  3.1669 -2.2034
   70MOL   H33837736   4.768   2.115   6.320  0.4772  2.4284 -0.4736
   70MOL   H33937737   4.697   2.208   6.195 -0.0867 -0.3719  0.9679
   70MOL   H34037738   4.672   2.009   6.050 -0.6531 -0.0590  0.3138
   70MOL   H34137739   4.588   1.981   6.199  0.2398 -0.2452  0.7840
   70MOL   H34237740   4.779   1.852   6.286 -0.1471  4.2674  0.4268
   70MOL   H34337741   4.869   1.882   6.139  0.7617  2.4596  2.4733
   70MOL   H34437742   4.764   1.734   6.016  1.4564 -1.9392  1.1717
   70MOL   H34537743   4.605   1.750   6.082  0.1644 -0.9940 -1.9513
   70MOL   H34637744   4.686   1.633   6.302 -0.9304  0.9438  0.1542
   70MOL   H34737745   4.832   1.579   6.219 -0.3609 -0.5946 -2.8767
   70MOL   H34837746   4.349   1.465   6.189 -0.0760 -1.5174  2.3089
   70MOL   H34937747   4.306   1.366   6.056  0.2381  2.2510 -1.2780
   70MOL   H35037748   4.421   1.482   6.029  3.9491 -0.9510  1.4133
   70MOL   H35137749   4.560   1.161   6.277 -0.3848  0.1338  1.2566
   70MOL   H35237750   4.412   1.131   6.192  0.5455  0.8916  0.1234
   70MOL   C35337751   3.697   1.019   6.425  0.2622 -0.6515  0.6312
   70MOL   C35437752   3.698   1.157   6.366  0.2468 -0.5842  0.6613
   70MOL   C35537753   3.814   1.177   6.266 -0.0693  0.4390 -0.9151
   70MOL   C35637754   3.951   1.165   6.321 -0.0754 -0.1752 -0.2783
   70MOL   C35737755   4.056   1.213   6.217 -1.3410 -0.0050 -1.3618
   70MOL   O35837756   4.187   1.183   6.260 -0.0790 -0.0939 -0.2261
   70MOL   C35937757   4.249   1.269   6.345 -0.1456  0.1267 -0.1399
   70MOL   O36037758   4.209   1.382   6.374 -0.2323 -0.0104  0.2687
   70MOL   C36137759   4.385   1.220   6.391 -0.5785  0.1272 -0.4928
   70MOL   C36237760   4.454   1.306   6.498  0.0571  0.1232  0.4561
   70MOL   C36337761   4.370   1.069   6.444 -0.5866 -0.5063  0.1916
   70MOL   H36437762   3.781   1.025   6.494  1.4001  1.7651 -0.9054
   70MOL   H36537763   3.716   0.947   6.344 -0.9945 -0.6078  0.2916
   70MOL   H36637764   3.608   0.996   6.483  2.1542 -1.4259  3.3314
   70MOL   H36737765   3.611   1.172   6.301 -0.5835 -2.8283  1.1990
   70MOL   H36837766   3.718   1.220   6.452  2.3797 -0.0138 -0.2369
   70MOL   H36937767   3.804   1.278   6.226  0.1648  0.7350 -0.2230
   70MOL   H37037768   3.800   1.112   6.179  0.0915  0.8370 -1.2398
   70MOL   H37137769   3.968   1.058   6.334  0.5157 -0.2622 -1.6466
   70MOL   H37237770   3.968   1.217   6.416  0.9190  0.2122 -0.6609
   70MOL   H37337771   4.040   1.161   6.122  0.8696 -1.3621 -1.0193
   70MOL   H37437772   4.034   1.317   6.193 -2.3217  0.2477  0.5420
   70MOL   H37537773   4.537   1.251   6.544  0.1244 -0.2347 -0.0852
   70MOL   H37637774   4.468   1.408   6.463 -0.8101 -0.3280 -1.2599
   70MOL   H37737775   4.378   1.319   6.575  0.2731 -0.0246  0.6998
   70MOL   H37837776   4.313   1.009   6.372  0.0296 -0.5563 -0.2543
   70MOL   H37937777   4.469   1.026   6.434  0.1962  1.2290  0.3311
   70MOL   C38037778   4.959   1.299   6.598 -0.5539 -0.4652  0.1488
   70MOL   C38137779   4.870   1.263   6.722  0.3541 -1.1421 -0.6408
   70MOL   C38237780   4.784   1.137   6.703 -0.6604  0.2054 -0.2731
   70MOL   C38337781   4.680   1.125   6.820 -0.3094  0.2044  0.0502
   70MOL   C38437782   4.602   0.998   6.818  0.5806  0.4013 -0.4357
   70MOL   O38537783   4.519   1.002   6.700 -0.4492 -0.3054  0.2950
   70MOL   C38637784   4.402   1.073   6.707 -0.2425  0.4696  0.2140
   70MOL   O38737785   4.378   1.157   6.793 -0.1844 -0.0597 -0.6866
   70MOL   C38837786   4.313   1.033   6.586 -0.2877  0.6720 -0.4611
   70MOL   C38937787   4.178   1.104   6.618 -0.0737 -0.1823  0.0445
   70MOL   C39037788   4.282   0.879   6.577  0.0535  0.1236  0.2234
   70MOL   H39137789   5.037   1.371   6.625 -2.1856  0.7953  1.6223
   70MOL   H39237790   5.010   1.207   6.570  2.1892  0.6643  1.1614
   70MOL   H39337791   4.902   1.334   6.512  2.5975  3.2466 -0.5431
   70MOL   H39437792   4.809   1.347   6.757 -1.2631 -2.0709 -1.1660
   70MOL   H39537793   4.929   1.238   6.810 -2.6468  1.0269  2.1101
   70MOL   H39637794   4.739   1.145   6.604  0.3561  3.2677 -0.5216
   70MOL   H39737795   4.851   1.051   6.700  0.8572  1.4174 -2.5365
   70MOL   H39837796   4.742   1.125   6.910 -1.9209 -3.3175  1.2271
   70MOL   H39937797   4.620   1.214   6.840 -0.4939  1.0283 -3.7625
   70MOL   H40037798   4.541   0.975   6.905  0.5796  2.1465  0.0408
   70MOL   H40137799   4.669   0.915   6.795  1.1805  1.3772 -2.4028
   70MOL   H40237800   4.189   1.211   6.598 -0.1789 -0.5006 -1.8337
   70MOL   H40337801   4.145   1.089   6.721 -0.1800 -0.2781 -0.0018
   70MOL   H40437802   4.093   1.074   6.556 -0.1680  0.1765 -0.0037
   70MOL   H40537803   4.380   0.831   6.579  0.3895  0.8318  3.4933
   70MOL   H40637804   4.221   0.861   6.489  1.0915  0.3479 -0.5616
   70MOL   C40737805   4.306   0.958   7.465 -0.0108  0.0214 -0.8068
   70MOL   C40837806   4.287   0.906   7.320 -0.1403  0.4672 -0.2612
   70MOL   C40937807   4.145   0.942   7.278  0.0860 -0.5176  0.2092
   70MOL   C41037808   4.110   0.899   7.136 -0.5334  0.6092  0.1835
   70MOL   C41137809   4.218   0.930   7.027  0.2212  0.0604  0.5374
   70MOL   O41237810   4.168   0.867   6.906  0.4258 -0.6483 -0.5935
   70MOL   C41337811   4.253   0.807   6.830 -0.5998 -0.0076  1.3847
   70MOL   O41437812   4.369   0.781   6.860  0.2417  0.2330 -0.2336
   70MOL   C41537813   4.201   0.793   6.685  0.5692 -0.6950  0.2144
   70MOL   C41637814   4.049   0.812   6.679  0.6108 -0.1912 -0.0819
   70MOL   C41737815   4.240   0.649   6.635  0.2198  0.3255 -0.6646
   70MOL   H41837816   4.257   1.050   7.497 -0.8023 -0.3698 -0.8836
   70MOL   H41937817   4.269   0.879   7.531  1.5354 -1.0683 -1.1947
   70MOL   H42037818   4.413   0.970   7.484 -0.1940 -0.7427  0.7809
   70MOL   H42137819   4.297   0.798   7.309  0.7517  0.5418 -0.2400
   70MOL   H42237820   4.355   0.954   7.251  1.3413  2.7927  2.7084
   70MOL   H42337821   4.062   0.916   7.343 -0.5160  1.0982  0.1071
   70MOL   H42437822   4.150   1.051   7.282  1.5808 -0.5819  0.5876
   70MOL   H42537823   4.010   0.935   7.114 -1.1715  0.3972  2.5862
   70MOL   H42637824   4.091   0.792   7.143 -0.4502  0.7081  2.3892
   70MOL   H42737825   4.223   1.038   7.013 -0.1242 -0.1082 -0.9308
   70MOL   H42837826   4.318   0.896   7.055  0.9065  0.5884 -1.2421
   70MOL   H42937827   4.017   0.911   6.710  0.6507  0.5963 -2.4474
   70MOL   H43037828   3.997   0.747   6.749  0.4262  1.4379  1.3412
   70MOL   H43137829   4.006   0.778   6.585  1.5692  1.9249 -1.3252
   70MOL   H43237830   4.344   0.636   6.667  0.6639  1.4565 -1.5882
   70MOL   H43337831   4.252   0.640   6.527  0.5139  2.1462 -0.7976
   70MOL   C43437832   3.650   0.857   6.792 -0.1392 -0.9266  0.5295
   70MOL   C43537833   3.617   0.705   6.790 -0.1176 -0.2637  0.0706
   70MOL   C43637834   3.693   0.627   6.681  0.9012  0.1848  0.1706
   70MOL   C43737835   3.709   0.486   6.713 -0.9379  0.2844  0.4441
   70MOL   C43837836   3.811   0.404   6.627  0.3230  0.4625  0.2313
   70MOL   O43937837   3.941   0.422   6.675 -0.7752 -0.3409 -0.3295
   70MOL   C44037838   4.027   0.500   6.611 -0.4997 -0.6588 -0.3233
   70MOL   O44137839   4.004   0.558   6.507  0.1012  0.1646  0.4831
   70MOL   C44237840   4.164   0.516   6.676 -0.3446  0.4554  0.6742
   70MOL   C44337841   4.151   0.509   6.827  0.0061  0.3723 -0.4070
   70MOL   C44437842   4.256   0.393   6.647  0.2257  0.1891 -0.8825
   70MOL   H44537843   3.752   0.874   6.824  0.4088 -1.6069 -0.7990
   70MOL   H44637844   3.631   0.911   6.699  1.4112 -0.7205  0.3306
   70MOL   H44737845   3.577   0.900   6.861  1.2405  1.0665  0.7594
   70MOL   H44837846   3.639   0.681   6.894 -1.5513  0.3898  0.5303
   70MOL   H44937847   3.510   0.692   6.780 -0.2125 -0.5133  1.3196
   70MOL   H45037848   3.653   0.647   6.581 -0.3736 -2.2663  0.1303
   70MOL   H45137849   3.794   0.665   6.674  0.3528  1.3588 -1.8733
   70MOL   H45237850   3.618   0.427   6.699  1.6035 -3.5505 -0.5092
   70MOL   H45337851   3.713   0.477   6.822  0.4120 -0.6786  0.3203
   70MOL   H45437852   3.798   0.424   6.521  4.7550  1.3450 -0.2584
   70MOL   H45537853   3.792   0.299   6.649 -1.5920  0.8967  0.7683
   70MOL   H45637854   4.116   0.414   6.867  1.2157  0.3541  0.6735
   70MOL   H45737855   4.249   0.534   6.869 -0.5114  0.6983  0.6333
   70MOL   H45837856   4.082   0.586   6.860 -0.1379 -0.1950  0.6348
   70MOL   H45937857   4.178   0.317   6.639 -1.2939  1.8108 -2.0505
   70MOL   H46037858   4.319   0.377   6.735  2.4733  1.0989 -2.2883
   70MOL   C46137859   4.804   0.656   7.044  0.5968  0.4385  0.0207
   70MOL   C46237860   4.746   0.520   6.995 -0.7028  0.5093 -0.1541
   70MOL   C46337861   4.753   0.503   6.848 -0.6557  0.0160  0.0931
   70MOL   C46437862   4.666   0.596   6.775  0.0002  0.3465 -1.0066
   70MOL   C46537863   4.648   0.557   6.632  0.0023  0.0705  0.6446
   70MOL   O46637864   4.535   0.472   6.627  0.1567  0.2808  0.5455
   70MOL   C46737865   4.462   0.463   6.510  0.0827 -0.1652 -0.2054
   70MOL   O46837866   4.504   0.518   6.403 -0.7657  0.8659  0.2077
   70MOL   C46937867   4.339   0.368   6.516  0.2449 -0.2226  0.1376
   70MOL   C47037868   4.243   0.384   6.395  0.0854 -0.5966 -0.6466
   70MOL   C47137869   4.384   0.209   6.500 -0.4758 -0.9642 -0.1273
   70MOL   H47237870   4.825   0.664   7.150  0.9950 -0.9858  0.0595
   70MOL   H47337871   4.722   0.728   7.034  0.4803  0.5589  1.6681
   70MOL   H47437872   4.896   0.680   6.990  0.2199 -4.5414 -3.1305
   70MOL   H47537873   4.639   0.519   7.018 -1.4574  2.1686 -3.2704
   70MOL   H47637874   4.797   0.442   7.052 -0.6636 -0.8628 -2.0471
   70MOL   H47737875   4.740   0.397   6.827  0.4433  0.3591 -2.4997
   70MOL   H47837876   4.855   0.524   6.813 -0.8434 -0.4839 -0.7684
   70MOL   H47937877   4.710   0.694   6.796  0.5545 -0.1571  0.2454
   70MOL   H48037878   4.570   0.589   6.827  1.1255 -0.0694  1.0589
   70MOL   H48137879   4.636   0.643   6.565 -0.6878 -0.4888  0.0495
   70MOL   H48237880   4.729   0.498   6.588  1.2258  1.2589  1.2402
   70MOL   H48337881   4.275   0.337   6.302 -0.4094 -0.8902 -0.6758
   70MOL   H48437882   4.220   0.488   6.376  1.9908 -0.1643 -0.6463
   70MOL   H48537883   4.146   0.338   6.419  0.4732 -1.0425  0.1014
   70MOL   H48637884   4.435   0.203   6.404  0.7493 -1.0473  0.5050
   70MOL   H48737885   4.284   0.166   6.495 -1.1039  0.7167 -2.6550
   70MOL   C48837886   3.794   0.083   7.095 -0.1743 -0.1136 -0.1236
   70MOL   C48937887   3.855   0.092   6.956  0.4742  0.2047 -0.9960
   70MOL   C49037888   4.009   0.119   6.977  0.5519  0.4584 -0.7431
   70MOL   C49137889   4.093   0.091   6.846  0.1614  0.2948 -0.0570
   70MOL   C49237890   4.242   0.114   6.869  0.3148 -0.1996  0.0401
   70MOL   O49337891   4.309   0.096   6.747  0.3142 -0.2328  0.4396
   70MOL   C49437892   4.429   0.134   6.738  0.4285 -0.1717  0.5531
   70MOL   O49537893   4.496   0.186   6.825 -0.1436  0.3950  0.0611
   70MOL   C49637894   4.478   0.114   6.592  0.0552  0.3757  0.0282
   70MOL   C49737895   4.629   0.154   6.568  0.2842  0.5097 -0.0188
   70MOL   C49837896   4.451   7.785   6.541 -0.4090  0.2558  0.0196
   70MOL   H49937897   3.839   0.008   7.161  0.6069  0.8403  0.4390
   70MOL   H50037898   3.806   0.179   7.146 -0.5426  0.1106 -0.4611
   70MOL   H50137899   3.697   0.047   7.062  0.4336  0.4560 -2.6896
   70MOL   H50237900   3.800   0.155   6.886 -0.2377 -0.4931 -1.0826
   70MOL   H50337901   3.856   7.811   6.903 -1.4251 -2.0111  2.6519
   70MOL   H50437902   4.027   0.222   7.008  1.3859 -0.5728  2.3104
   70MOL   H50537903   4.049   0.062   7.061  1.5883  1.6142 -0.4322
   70MOL   H50637904   4.065   0.164   6.770 -0.3303 -0.0991 -0.2562
   70MOL   H50737905   4.073   7.810   6.797  0.5372 -0.7849  1.8461
   70MOL   H50837906   4.259   0.219   6.894  1.8066 -0.2102 -0.8865
   70MOL   H50937907   4.266   0.042   6.947  0.0411  0.2554  0.5430
   70MOL   H51037908   4.657   0.244   6.622  2.2751  0.3579 -0.7726
   70MOL   H51137909   4.656   0.163   6.463 -0.1200 -0.4194 -0.2135
   70MOL   H51237910   4.700   0.076   6.596 -1.9178 -1.2587  0.7843
   70MOL   H51337911   4.437   7.790   6.433 -2.2167 -0.5881  0.2039
   70MOL   H51437912   4.350   7.764   6.576 -0.2778  0.4340  0.5066
   70MOL   C51537913   5.374   7.492   6.417 -0.4463 -0.1775 -0.9441
   70MOL   C51637914   5.249   7.480   6.503  0.2500 -0.3479  0.4013
   70MOL   C51737915   5.125   7.515   6.427 -0.6263 -0.5178 -0.3118
   70MOL   C51837916   4.996   7.517   6.510 -0.4484 -0.3430  0.5243
   70MOL   C51937917   4.876   7.560   6.425  0.4759  0.2198 -0.2146
   70MOL   O52037918   4.762   7.568   6.513 -0.2820  0.7734  0.1856
   70MOL   C52137919   4.660   7.653   6.479  0.2271 -0.0726 -0.2235
   70MOL   O52237920   4.664   7.715   6.370 -0.4243  0.3245 -0.2777
   70MOL   C52337921   4.535   7.656   6.578  0.0647 -0.1865  0.1997
   70MOL   C52437922   4.452   7.523   6.559 -0.1357  0.6238 -0.3420
   70MOL   C52537923   4.588   7.661   6.727 -0.4737 -0.4124 -0.1890
   70MOL   H52637924   5.355   7.456   6.316  1.1541 -1.2637 -0.8701
   70MOL   H52737925   5.396   7.598   6.406  0.2408 -0.1411  0.6332
   70MOL   H52837926   5.459   7.451   6.471 -1.0617  0.4698  0.5570
   70MOL   H52937927   5.242   7.374   6.523  0.2540 -0.8501 -2.1260
   70MOL   H53037928   5.256   7.533   6.598  4.5595  0.9719 -0.5112
   70MOL   H53137929   5.140   7.613   6.381  1.6165  0.1760  1.7758
   70MOL   H53237930   5.106   7.448   6.343 -3.0037 -1.3832  0.8703
   70MOL   H53337931   5.008   7.591   6.589 -3.1198  0.7269  0.0012
   70MOL   H53437932   4.982   7.423   6.563  1.4250 -1.2236 -0.5048
   70MOL   H53537933   4.908   7.654   6.379  0.3369  0.2778 -0.1902
   70MOL   H53637934   4.849   7.498   6.340  0.1717 -1.6744  1.2295
   70MOL   H53737935   4.514   7.436   6.537  1.4262  2.0632 -1.8192
   70MOL   H53837936   4.381   7.529   6.477  0.6304 -0.1206 -1.0673
   70MOL   H53937937   4.396   7.499   6.650  1.4261 -2.6091 -0.1613
   70MOL   H54037938   4.658   7.579   6.741 -1.3751 -1.1377  0.1374
   70MOL   H54137939   4.507   7.660   6.800 -1.3508  0.3952 -1.1335
   70MOL   H54237940   4.653   7.746   6.749  1.1995 -0.6135 -4.0418
   71MOL     C137941   1.300   2.904   5.408  0.1018  0.1148 -0.5387
   71MOL     C237942   1.226   2.932   5.271 -0.1977  0.6051  0.1173
   71MOL     C337943   1.194   2.802   5.192  1.0324  0.1706 -0.1882
   71MOL     C437944   1.318   2.752   5.103  0.9074 -0.3376  0.3450
   71MOL     C537945   1.310   2.607   5.052  0.5190 -0.7639 -0.8471
   71MOL     O637946   1.219   2.588   4.950 -0.1501  0.1395 -0.4329
   71MOL     C737947   1.246   2.630   4.828 -0.4953  0.5548 -0.2111
   71MOL     O837948   1.347   2.689   4.795  0.0209 -0.4185 -0.5265
   71MOL     C937949   1.130   2.607   4.728  0.5477 -0.3055  0.2439
   71MOL    C1037950   1.004   2.684   4.771  0.5528  0.2109 -0.2916
   71MOL    C1137951   1.097   2.455   4.706 -0.1599  1.3947 -0.1554
   71MOL    H1237952   1.239   2.834   5.465 -0.6238  1.5400  0.4568
   71MOL    H1337953   1.319   3.002   5.452  0.1166 -0.7045  1.3188
   71MOL    H1437954   1.388   2.842   5.390  0.6236  0.1023  1.9360
   71MOL    H1537955   1.143   3.002   5.277  0.6238  1.5627  0.3683
   71MOL    H1637956   1.297   2.994   5.216  2.3307 -0.6032  1.9063
   71MOL    H1737957   1.152   2.725   5.258  1.2190  0.4376  0.2407
   71MOL    H1837958   1.112   2.821   5.122  0.0815  0.7814  1.0649
   71MOL    H1937959   1.405   2.750   5.169  0.9354 -0.9314  0.2859
   71MOL    H2037960   1.340   2.825   5.025 -2.2520  1.4663  1.0686
   71MOL    H2137961   1.409   2.576   5.018  0.6164  1.5538 -2.8436
   71MOL    H2237962   1.286   2.547   5.140  1.4124 -0.2985 -0.2799
   71MOL    H2337963   0.970   2.639   4.864 -0.5423 -3.1453 -2.2177
   71MOL    H2437964   0.924   2.668   4.699 -0.7357 -0.3383  1.2462
   71MOL    H2537965   1.015   2.792   4.786 -2.8168  0.2879  2.2307
   71MOL    H2637966   1.014   2.459   4.635  0.0836  2.3615 -0.3882
   71MOL    H2737967   1.063   2.411   4.800 -1.3949  1.3751 -0.5911
   71MOL    H2837968   1.168   2.662   4.642  2.2559 -2.6615 -0.5674
   71MOL    C2937969   1.824   2.159   5.052  0.2007 -0.5260 -0.0466
   71MOL    C3037970   1.717   2.176   4.943 -0.0417 -0.1504  0.6538
   71MOL    C3137971   1.602   2.071   4.960 -0.0633  0.2425 -0.0021
   71MOL    C3237972   1.486   2.102   4.868 -0.3885 -0.0121 -0.4499
   71MOL    C3337973   1.386   2.208   4.927 -0.6651  0.2630 -0.3897
   71MOL    O3437974   1.292   2.245   4.825 -0.5988 -0.1893 -0.1797
   71MOL    C3537975   1.321   2.328   4.722  0.3860 -0.0144 -0.3409
   71MOL    O3637976   1.435   2.369   4.704  0.3297 -0.0767 -0.4627
   71MOL    C3737977   1.204   2.367   4.631 -0.1775 -0.3130  0.6136
   71MOL    C3837978   1.249   2.451   4.501  0.6394 -0.1974 -0.2592
   71MOL    C3937979   1.131   2.241   4.582  0.5177  0.1989  0.1532
   71MOL    H4037980   1.901   2.235   5.064  0.0038 -0.4818  0.9920
   71MOL    H4137981   1.791   2.134   5.153 -1.0240  0.6929 -0.1227
   71MOL    H4237982   1.883   2.068   5.040 -2.9224 -2.3263 -2.2512
   71MOL    H4337983   1.759   2.165   4.843 -1.0606 -2.6521  0.4739
   71MOL    H4437984   1.683   2.280   4.938 -1.2849 -0.4922  1.6798
   71MOL    H4537985   1.586   2.073   5.068  3.3511  2.2883  0.5482
   71MOL    H4637986   1.642   1.971   4.943 -0.8570  0.3162 -2.4577
   71MOL    H4737987   1.519   2.137   4.770 -3.3544 -1.7924 -2.1641
   71MOL    H4837988   1.431   2.010   4.847  0.1450 -0.5031  0.2717
   71MOL    H4937989   1.446   2.290   4.967 -0.9370  0.1793  0.2068
   71MOL    H5037990   1.344   2.160   5.016  0.6222  0.8510  0.5446
   71MOL    H5137991   1.309   2.390   4.434  0.8664  0.9031 -1.0794
   71MOL    H5237992   1.321   2.528   4.528  0.5309  0.1286 -0.8845
   71MOL    H5337993   1.170   2.497   4.441 -1.0343 -1.3310  0.9986
   71MOL    H5437994   1.034   2.278   4.547  0.6438 -0.2042 -0.6252
   71MOL    H5537995   1.107   2.179   4.668  0.7894  0.6352  0.5459
   71MOL    C5637996   0.407   1.790   4.400  0.1123 -0.3421  0.4478
   71MOL    C5737997   0.509   1.896   4.405 -0.2134 -0.0299 -0.5744
   71MOL    C5837998   0.639   1.851   4.479  0.5998  0.0966 -0.8638
   71MOL    C5937999   0.747   1.968   4.469  0.3201 -0.1619  0.4677
   71MOL    C6038000   0.890   1.924   4.523 -0.3057  0.5467  0.2183
   71MOL    O6138001   0.984   2.023   4.481 -0.6719 -0.2022  0.3320
   71MOL    C6238002   1.114   2.009   4.500  0.1491  0.3840  0.0009
   71MOL    O6338003   1.170   1.907   4.545 -0.1704  0.6755 -0.1578
   71MOL    C6438004   1.190   2.146   4.474 -0.2049 -0.0612  0.4612
   71MOL    C6538005   1.341   2.118   4.497  0.4202  0.6325 -0.6017
   71MOL    C6638006   1.147   2.198   4.328 -0.5588 -0.0599 -0.2830
   71MOL    H6738007   0.340   1.823   4.320 -0.4122  0.2669  1.1280
   71MOL    H6838008   0.352   1.781   4.494  0.8343 -0.0089  0.8961
   71MOL    H6938009   0.444   1.689   4.380  1.2837  0.6732 -2.9058
   71MOL    H7038010   0.539   1.921   4.303  1.9873 -0.5354 -0.0686
   71MOL    H7138011   0.474   1.989   4.448  3.5674  1.5953 -0.8660
   71MOL    H7238012   0.624   1.836   4.586  0.8313 -1.4734 -1.0354
   71MOL    H7338013   0.684   1.761   4.437  1.3949  0.1561 -0.1597
   71MOL    H7438014   0.722   2.053   4.532 -1.2756  1.3721 -2.1588
   71MOL    H7538015   0.759   2.000   4.366 -0.3585 -2.3628 -0.3275
   71MOL    H7638016   0.882   1.913   4.632  1.0976  1.9909  0.4897
   71MOL    H7738017   0.911   1.827   4.478 -2.5490  0.4774 -0.7158
   71MOL    H7838018   1.373   2.037   4.432  0.8483  1.1364 -1.0213
   71MOL    H7938019   1.368   2.092   4.600  2.1267  1.4220 -0.8294
   71MOL    H8038020   1.399   2.206   4.469 -0.0719  1.8193  1.9406
   71MOL    H8138021   1.155   2.305   4.313  0.8239 -0.2987 -1.4122
   71MOL    H8238022   1.040   2.179   4.325 -0.2379 -2.0464 -0.2915
   71MOL    C8338023   1.775   2.775   4.067 -1.1884  0.4836 -0.3332
   71MOL    C8438024   1.647   2.723   4.130  0.3720 -0.0833 -0.0660
   71MOL    C8538025   1.642   2.578   4.129  0.1594  0.1206 -0.0554
   71MOL    C8638026   1.516   2.515   4.184 -0.7781 -0.9173  0.4742
   71MOL    C8738027   1.523   2.358   4.196 -0.2085 -0.1813  0.4510
   71MOL    O8838028   1.395   2.303   4.207  0.2519 -0.5694  0.0117
   71MOL    C8938029   1.368   2.177   4.197 -0.6133  0.3489  1.3660
   71MOL    O9038030   1.457   2.090   4.183  0.2996  0.4611 -0.5822
   71MOL    C9138031   1.218   2.136   4.203  0.5479 -0.3924 -0.0182
   71MOL    C9238032   1.203   1.986   4.202 -0.5727  0.3888  0.1966
   71MOL    C9338033   1.159   2.198   4.072  0.1816 -0.6632  0.2652
   71MOL    H9438034   1.759   2.879   4.038 -0.4012  1.1378  1.5105
   71MOL    H9538035   1.871   2.758   4.116 -1.6445  0.4006  0.5426
   71MOL    H9638036   1.782   2.730   3.968  1.0262  2.6866 -1.2363
   71MOL    H9738037   1.565   2.762   4.071 -0.1790  0.8916  1.3227
   71MOL    H9838038   1.632   2.766   4.229  0.1246  2.0957 -1.0222
   71MOL    H9938039   1.728   2.536   4.182 -0.2270  0.7960  1.1118
   71MOL   H10038040   1.654   2.538   4.028  0.7033 -0.7414  0.3425
   71MOL   H10138041   1.430   2.535   4.120 -1.5460 -0.5079  1.6215
   71MOL   H10238042   1.498   2.562   4.281 -2.2513  1.0786 -0.7251
   71MOL   H10338043   1.585   2.332   4.282  0.6082  1.4279  0.3629
   71MOL   H10438044   1.577   2.308   4.116 -1.8916 -3.5791  1.3458
   71MOL   H10538045   1.261   1.934   4.278 -0.5402  1.9233  1.2420
   71MOL   H10638046   1.232   1.947   4.104 -0.1194 -1.2253  0.9634
   71MOL   H10738047   1.098   1.957   4.201 -0.8682  1.4302 -0.6150
   71MOL   H10838048   1.052   2.186   4.088 -0.0356  1.6634  0.7727
   71MOL   H10938049   1.167   2.307   4.080 -2.3448 -0.2947 -1.4408
   71MOL   C11038050   0.507   1.698   3.990 -0.1215  0.3360 -0.1571
   71MOL   C11138051   0.598   1.820   3.994  0.5822  0.3437 -0.7700
   71MOL   C11238052   0.743   1.775   3.970 -0.5831  0.6351 -0.3589
   71MOL   C11338053   0.847   1.886   4.001  0.8515  0.0990  0.0994
   71MOL   C11438054   0.869   1.980   3.882 -0.9015 -0.1892  0.2393
   71MOL   O11538055   0.971   2.081   3.901 -0.5759 -0.0966  0.3483
   71MOL   C11638056   1.093   2.054   3.876 -0.0080 -0.1472  0.1897
   71MOL   O11738057   1.128   1.946   3.825  0.0796  0.4530  0.9371
   71MOL   C11838058   1.189   2.164   3.918 -0.4254  0.1195 -0.1644
   71MOL   C11938059   1.333   2.123   3.897  0.0280  0.1810 -0.4041
   71MOL   C12038060   1.148   2.302   3.838  0.1986 -0.3785  0.1398
   71MOL   H12138061   0.500   1.660   3.888  0.0927 -0.8989  0.2755
   71MOL   H12238062   0.539   1.615   4.053  1.6457 -0.2674 -1.8034
   71MOL   H12338063   0.405   1.714   4.024  0.0274 -0.6867  0.7829
   71MOL   H12438064   0.570   1.885   3.911 -1.3445 -0.3165 -0.6698
   71MOL   H12538065   0.599   1.873   4.089 -0.9673  1.7900 -1.5259
   71MOL   H12638066   0.773   1.687   4.027 -0.2209  0.4529 -0.8283
   71MOL   H12738067   0.754   1.735   3.870  1.1676  1.5301 -0.5361
   71MOL   H12838068   0.944   1.855   4.039  0.2010  0.6492  2.2952
   71MOL   H12938069   0.805   1.955   4.074 -1.4933 -0.0574 -1.0336
   71MOL   H13038070   0.891   1.924   3.792  0.4250  2.3590 -1.0667
   71MOL   H13138071   0.777   2.032   3.852 -0.2529 -1.0718 -3.4879
   71MOL   H13238072   1.357   2.039   3.962 -1.6089 -0.4802 -0.6267
   71MOL   H13338073   1.353   2.084   3.797  1.2035  1.1412 -0.5594
   71MOL   H13438074   1.406   2.203   3.912 -0.9745  1.2442 -1.0598
   71MOL   H13538075   1.047   2.319   3.876  0.2641  0.1287  0.0896
   71MOL   H13638076   1.209   2.388   3.868  0.9397 -0.9704  0.3640
   71MOL   C13738077   1.610   2.885   3.736  0.2238  0.1363  0.0250
   71MOL   C13838078   1.571   2.774   3.639  0.2615 -0.2387  0.6747
   71MOL   C13938079   1.550   2.636   3.709  0.0674 -0.5619 -0.4463
   71MOL   C14038080   1.545   2.526   3.608 -0.3794 -0.5426 -0.0588
   71MOL   C14138081   1.518   2.391   3.667 -0.3989  0.7274  0.1522
   71MOL   O14238082   1.381   2.394   3.694 -0.1608 -0.0478 -0.6931
   71MOL   C14338083   1.293   2.312   3.629  0.4216  0.4898  0.1561
   71MOL   O14438084   1.338   2.230   3.549  0.4985 -0.3571  0.4715
   71MOL   C14538085   1.149   2.323   3.686  0.0711  0.2628 -0.1945
   71MOL   C14638086   1.071   2.210   3.616 -0.5147  0.3937 -0.1454
   71MOL   C14738087   1.091   2.468   3.652  0.0521 -0.6161  0.1091
   71MOL   H14838088   1.715   2.891   3.766  0.8020 -1.7331 -1.4999
   71MOL   H14938089   1.550   2.872   3.826 -0.0154 -1.2107 -0.3136
   71MOL   H15038090   1.592   2.986   3.701 -1.3893 -0.6401 -1.4405
   71MOL   H15138091   1.650   2.765   3.564  0.4852  1.3102  0.6913
   71MOL   H15238092   1.482   2.785   3.577  0.1263 -2.0832  0.5121
   71MOL   H15338093   1.635   2.620   3.775  0.9218 -1.7278 -1.7900
   71MOL   H15438094   1.453   2.638   3.757  0.5364  2.1667  0.4971
   71MOL   H15538095   1.466   2.546   3.536  0.7774 -0.1595 -1.2461
   71MOL   H15638096   1.635   2.510   3.548 -1.0476 -0.1766 -1.1690
   71MOL   H15738097   1.577   2.361   3.753 -1.4692 -0.7757  0.3900
   71MOL   H15838098   1.548   2.313   3.597  1.1518 -1.1562  2.8630
   71MOL   H15938099   1.115   2.111   3.612  1.9537  1.4908 -1.4953
   71MOL   H16038100   1.062   2.236   3.511 -1.6454 -2.3142 -0.7477
   71MOL   H16138101   0.965   2.202   3.637 -0.5467  0.9141 -0.0876
   71MOL   H16238102   1.120   2.537   3.731 -1.9272 -0.4334  0.6886
   71MOL   H16338103   1.156   2.505   3.572  0.8129  0.3036  1.1386
   71MOL   C16438104   1.427   2.232   3.212  0.6506 -0.0964  0.6155
   71MOL   C16538105   1.279   2.225   3.215 -0.7926  0.1272 -1.1070
   71MOL   C16638106   1.208   2.358   3.234 -0.4052  0.3601  0.2745
   71MOL   C16738107   1.054   2.342   3.205  0.3543 -0.1703 -0.8857
   71MOL   C16838108   0.961   2.451   3.246  0.2983 -0.5455 -0.6731
   71MOL   O16938109   0.970   2.505   3.384  0.2417 -0.0022 -0.4229
   71MOL   C17038110   0.905   2.446   3.485  0.7950  0.4088 -0.4185
   71MOL   O17138111   0.835   2.342   3.477  0.4722 -0.4733  0.0594
   71MOL   C17238112   0.939   2.506   3.623 -0.3206  0.6408  1.6449
   71MOL   C17338113   0.940   2.662   3.615 -0.2784 -0.3558 -0.5040
   71MOL   C17438114   0.843   2.452   3.743  0.1055 -0.2657 -0.1697
   71MOL   H17538115   1.464   2.271   3.307  1.4348  1.7488 -0.4199
   71MOL   H17638116   1.474   2.286   3.129  0.9981 -1.2904  0.0217
   71MOL   H17738117   1.463   2.129   3.207  1.7193  0.2994 -0.1733
   71MOL   H17838118   1.247   2.161   3.298 -1.5753  1.8915 -0.0042
   71MOL   H17938119   1.250   2.172   3.125 -0.7704 -2.1758  0.2117
   71MOL   H18038120   1.239   2.390   3.334  0.8240 -0.4716  0.1829
   71MOL   H18138121   1.229   2.436   3.161 -0.0824 -0.8023 -0.8849
   71MOL   H18238122   1.010   2.258   3.259  1.2987  0.3454  0.7015
   71MOL   H18338123   1.033   2.322   3.100 -3.0184  3.9871 -1.1496
   71MOL   H18438124   0.854   2.442   3.229  0.0996  2.7249 -1.4139
   71MOL   H18538125   0.982   2.538   3.183  1.9599  0.6809  1.4754
   71MOL   H18638126   0.954   2.709   3.712 -2.1404 -2.2052  0.7172
   71MOL   H18738127   0.848   2.698   3.569 -0.7077  1.4492  1.7117
   71MOL   H18838128   1.015   2.704   3.549  0.4128 -0.0803  0.4475
   71MOL   H18938129   0.845   2.343   3.745  0.2043 -0.2723 -0.6555
   71MOL   H19038130   0.891   2.472   3.839 -0.3286 -2.1167  0.4564
   71MOL   C19138131   0.089   2.646   3.457 -0.6878  0.2395  0.0389
   71MOL   C19238132   0.129   2.529   3.364  1.1381 -0.8943 -0.1050
   71MOL   C19338133   0.275   2.506   3.342  0.7936 -0.3644 -0.7673
   71MOL   C19438134   0.359   2.465   3.463  0.6736  0.3074  0.9377
   71MOL   C19538135   0.515   2.456   3.443 -0.1848 -0.4344 -0.2137
   71MOL   O19638136   0.586   2.429   3.565 -0.1544 -0.2818  0.2437
   71MOL   C19738137   0.605   2.527   3.645  0.7260 -0.0186  1.1063
   71MOL   O19838138   0.557   2.637   3.629  0.1599  0.0371  0.2817
   71MOL   C19938139   0.696   2.494   3.770 -0.2615  0.0363  0.4340
   71MOL   C20038140   0.692   2.623   3.856 -0.2884 -0.4854 -0.3003
   71MOL   C20138141   0.634   2.365   3.850 -0.8034  0.5810  0.4647
   71MOL   H20238142   7.794   2.654   3.451 -0.9323 -2.5344  0.1281
   71MOL   H20338143   0.124   2.625   3.558 -2.3380 -0.4017  0.4891
   71MOL   H20438144   0.136   2.740   3.429  0.4731  0.2778  2.0090
   71MOL   H20538145   0.096   2.552   3.263  1.2805 -0.9771 -0.1710
   71MOL   H20638146   0.066   2.451   3.406  1.6125 -0.7365  0.9301
   71MOL   H20738147   0.325   2.591   3.295 -0.1892  0.2085 -0.7905
   71MOL   H20838148   0.290   2.422   3.274 -0.7105 -2.1936  1.0997
   71MOL   H20938149   0.342   2.547   3.532 -0.0200  0.4067  0.6537
   71MOL   H21038150   0.322   2.366   3.490  2.6834 -0.1982  1.8835
   71MOL   H21138151   0.539   2.382   3.366  0.3480 -0.2312 -0.2406
   71MOL   H21238152   0.547   2.550   3.399  0.6850 -0.3151  0.6601
   71MOL   H21338153   0.741   2.703   3.800  1.1801 -0.6539  0.6980
   71MOL   H21438154   0.740   2.601   3.952 -2.9062 -1.4791  0.8403
   71MOL   H21538155   0.593   2.665   3.875 -0.1760 -0.8083  1.0501
   71MOL   H21638156   0.717   2.319   3.904 -0.4944  0.7658  0.1399
   71MOL   H21738157   0.609   2.301   3.765  1.5858  0.7615 -0.3957
   71MOL   C21838158   0.131   2.092   4.490  0.3982  0.3214  0.8582
   71MOL   C21938159   0.187   2.060   4.352  0.5394 -0.3857  0.0163
   71MOL   C22038160   0.140   2.168   4.246 -0.6552  0.1095 -0.4215
   71MOL   C22138161   0.150   2.118   4.097  0.7021  0.2804  0.0224
   71MOL   C22238162   0.292   2.099   4.053 -0.6709 -0.1274  0.1534
   71MOL   O22338163   0.351   2.229   4.042  0.3162 -0.1747  0.3112
   71MOL   C22438164   0.470   2.230   3.971  0.2886 -0.1835  0.1339
   71MOL   O22538165   0.537   2.125   3.944  0.3034 -0.2348 -0.1997
   71MOL   C22638166   0.508   2.371   3.937  0.0537 -0.3501  0.2837
   71MOL   C22738167   0.392   2.430   3.861  0.0001 -0.3150 -0.9564
   71MOL   C22838168   0.526   2.444   4.082  0.0710  0.6027  0.7551
   71MOL   H22938169   0.150   2.012   4.562  1.9355 -0.1240 -0.0192
   71MOL   H23038170   0.176   2.188   4.518 -0.9089  0.6155  2.0230
   71MOL   H23138171   0.023   2.100   4.487  0.5393  1.8927 -0.6371
   71MOL   H23238172   0.174   1.959   4.313  1.0462 -0.0185 -1.1231
   71MOL   H23338173   0.294   2.081   4.360  0.4678 -0.0332  0.0591
   71MOL   H23438174   0.201   2.258   4.258  2.1422 -1.6155 -1.3333
   71MOL   H23538175   0.037   2.192   4.273 -0.6917 -2.0230  1.5376
   71MOL   H23638176   0.091   2.031   4.069 -1.6855  2.0924 -0.7267
   71MOL   H23738177   0.097   2.196   4.043  0.4256  0.4009  0.4624
   71MOL   H23838178   0.288   2.048   3.956 -2.3521  0.2220  0.0207
   71MOL   H23938179   0.350   2.045   4.127  0.8172  1.5998  0.2651
   71MOL   H24038180   0.409   2.535   3.837 -1.3587  0.2484  0.4804
   71MOL   H24138181   0.298   2.432   3.917 -0.0405  1.4048 -1.0571
   71MOL   H24238182   0.365   2.376   3.770 -2.2703 -0.6959 -0.0875
   71MOL   H24338183   0.424   2.459   4.117 -0.9651 -0.6808 -1.6283
   71MOL   H24438184   0.572   2.543   4.079 -0.0317  0.6313 -0.0078
   71MOL   C24538185   1.175   2.782   3.912  0.0629 -0.8248  0.1122
   71MOL   C24638186   1.192   2.767   4.061  0.4945  0.6771 -0.1257
   71MOL   C24738187   1.152   2.629   4.109  0.0438 -0.3520  0.4351
   71MOL   C24838188   1.004   2.605   4.113  0.4241 -0.1011 -0.7516
   71MOL   C24938189   0.955   2.465   4.161  0.2201  0.1032  0.1874
   71MOL   O25038190   0.816   2.469   4.174 -0.3340  0.0928  0.8139
   71MOL   C25138191   0.747   2.358   4.175  0.2618 -0.1544 -0.1915
   71MOL   O25238192   0.798   2.250   4.160  0.4205  0.0282  0.0944
   71MOL   C25338193   0.600   2.381   4.209  0.4562  0.6372  0.2279
   71MOL   C25438194   0.539   2.258   4.268 -0.2548  0.5268  0.4882
   71MOL   C25538195   0.583   2.495   4.311 -0.4121 -0.6775  1.1193
   71MOL   H25638196   1.207   2.882   3.880 -1.7775 -0.4940 -0.7189
   71MOL   H25738197   1.241   2.709   3.864  1.6560  0.9114 -0.4391
   71MOL   H25838198   1.070   2.771   3.888  0.1578  0.7884 -1.1553
   71MOL   H25938199   1.298   2.767   4.088  0.5821 -0.2770 -0.4440
   71MOL   H26038200   1.141   2.846   4.115  0.6116  2.5164 -2.6041
   71MOL   H26138201   1.200   2.618   4.206 -1.1320  2.9886  1.4454
   71MOL   H26238202   1.203   2.557   4.044  0.9772  1.5029 -0.9476
   71MOL   H26338203   0.960   2.682   4.175 -2.7851 -1.2278 -1.5605
   71MOL   H26438204   0.959   2.605   4.014  2.4788  0.4909 -1.7082
   71MOL   H26538205   0.979   2.391   4.085 -0.3476 -1.8545  1.8514
   71MOL   H26638206   1.000   2.410   4.244 -1.5232  0.5687  1.4765
   71MOL   H26738207   0.554   2.166   4.210  2.0821  1.5906 -0.6536
   71MOL   H26838208   0.586   2.236   4.364  0.2231 -1.8086 -0.2316
   71MOL   H26938209   0.432   2.276   4.283 -0.2734  0.7988  0.0316
   71MOL   H27038210   0.629   2.586   4.272 -0.2904 -0.6452  1.3380
   71MOL   H27138211   0.476   2.518   4.303  0.1547  2.2416  1.3898
   71MOL   C27238212   0.419   2.563   5.167  0.6504 -0.2391 -0.4664
   71MOL   C27338213   0.351   2.528   5.033 -0.1237 -0.8458 -0.2247
   71MOL   C27438214   0.450   2.462   4.927 -0.9349 -0.6574 -0.0427
   71MOL   C27538215   0.374   2.387   4.815 -0.1119  0.0353 -0.0010
   71MOL   C27638216   0.468   2.301   4.733  0.0305  0.6769  0.2689
   71MOL   O27738217   0.554   2.384   4.661 -0.3384  0.8306 -0.0893
   71MOL   C27838218   0.515   2.416   4.534  0.2459  0.7100  0.4263
   71MOL   O27938219   0.396   2.402   4.492  0.4035 -0.0539  0.2986
   71MOL   C28038220   0.622   2.488   4.460 -0.9337  0.8200  0.7373
   71MOL   C28138221   0.761   2.421   4.482 -0.0788  0.3427  0.3829
   71MOL   C28238222   0.644   2.633   4.514 -0.2445 -0.3616 -0.1913
   71MOL   H28338223   0.359   2.633   5.226 -0.2817 -1.6854  0.3182
   71MOL   H28438224   0.434   2.475   5.230 -0.1713  1.0768  1.6154
   71MOL   H28538225   0.524   2.593   5.172  0.4478  0.1292  2.3803
   71MOL   H28638226   0.266   2.464   5.057  0.8240 -3.0491 -2.5690
   71MOL   H28738227   0.312   2.619   4.988  0.2297  0.0692  1.2862
   71MOL   H28838228   0.513   2.532   4.873  1.1730 -1.0194  1.8450
   71MOL   H28938229   0.511   2.382   4.969 -0.2898 -1.2686 -2.0894
   71MOL   H29038230   0.301   2.320   4.860 -0.2249  0.8370  1.0252
   71MOL   H29138231   0.310   2.454   4.757 -1.8764 -0.6350  1.1367
   71MOL   H29238232   0.402   2.241   4.670  1.9056 -1.2168  0.0266
   71MOL   H29338233   0.515   2.233   4.805  1.7333  1.0454 -0.4723
   71MOL   H29438234   0.841   2.488   4.450  0.1504  1.2315  2.6849
   71MOL   H29538235   0.784   2.400   4.587  1.2189 -0.5729 -0.0724
   71MOL   H29638236   0.791   2.332   4.426 -0.6613  0.7933 -0.6459
   71MOL   H29738237   0.689   2.628   4.613  0.0350  1.3311 -0.2167
   71MOL   H29838238   0.724   2.673   4.453  0.1235 -2.7650 -1.3385
   71MOL   C29938239   0.881   2.967   4.017  0.2362 -0.3957 -0.2369
   71MOL   C30038240   0.764   3.069   4.015  0.0177  0.1158  0.1703
   71MOL   C30138241   0.634   3.032   4.096 -0.0045 -0.6179 -0.1873
   71MOL   C30238242   0.589   2.881   4.067 -0.3415  0.2873 -0.4114
   71MOL   C30338243   0.482   2.839   4.160  0.0382  0.2290 -0.3378
   71MOL   O30438244   0.543   2.813   4.288  0.0326 -0.0140  0.8129
   71MOL   C30538245   0.458   2.774   4.384 -0.3493  0.2009 -0.4295
   71MOL   O30638246   0.335   2.764   4.380  0.4337  1.0765  0.3043
   71MOL   C30738247   0.534   2.751   4.521 -0.3484 -0.2392  0.2844
   71MOL   C30838248   0.431   2.717   4.629 -0.9878 -0.3660  0.0518
   71MOL   C30938249   0.618   2.882   4.553  0.6160  0.4157  0.4911
   71MOL   H31038250   0.955   3.014   3.952  0.6554  1.3896  1.4748
   71MOL   H31138251   0.854   2.874   3.967  0.7623  0.4793 -2.1625
   71MOL   H31238252   0.917   2.945   4.118 -1.0991  1.0094  0.5659
   71MOL   H31338253   0.734   3.087   3.912  0.4358 -2.2386 -0.3862
   71MOL   H31438254   0.802   3.167   4.045 -0.5319  0.1150  0.8700
   71MOL   H31538255   0.551   3.099   4.075 -1.9699 -2.8547  0.2901
   71MOL   H31638256   0.655   3.051   4.201  1.1772 -1.0429 -0.3312
   71MOL   H31738257   0.672   2.810   4.067 -0.7676 -0.2390  1.5256
   71MOL   H31838258   0.546   2.878   3.967 -1.9179 -0.7567  0.2827
   71MOL   H31938259   0.401   2.911   4.170  0.3025  0.0672  4.6251
   71MOL   H32038260   0.451   2.744   4.117 -1.4623  0.7233 -0.3521
   71MOL   H32138261   0.471   2.691   4.727  0.3797  0.3531 -0.3194
   71MOL   H32238262   0.356   2.796   4.629 -0.8978 -0.2783 -0.4546
   71MOL   H32338263   0.375   2.631   4.591  0.6799 -0.9630 -1.0804
   71MOL   H32438264   0.661   2.917   4.459 -0.6870 -0.8010 -0.5753
   71MOL   H32538265   0.711   2.843   4.596  0.3360  0.1333  0.8388
   71MOL   C32638266   0.508   3.429   4.085 -0.2608 -0.0020 -0.3035
   71MOL   C32738267   0.375   3.361   4.128 -0.0882  0.0878  0.2703
   71MOL   C32838268   0.399   3.280   4.256  0.2600 -0.3071  0.7473
   71MOL   C32938269   0.293   3.169   4.266  0.0544  0.2256 -0.2155
   71MOL   C33038270   0.275   3.121   4.412 -0.5828  0.1711  0.1031
   71MOL   O33138271   0.407   3.075   4.453  0.2066  0.8273 -0.0127
   71MOL   C33238272   0.423   3.051   4.588 -0.0241 -0.0635 -0.0480
   71MOL   O33338273   0.332   3.063   4.680 -0.3031  0.4394 -0.3873
   71MOL   C33438274   0.567   3.008   4.627  0.2254 -0.5155  0.3240
   71MOL   C33538275   0.567   2.974   4.781  0.2733 -0.4341  0.3781
   71MOL   C33638276   0.667   3.127   4.602  0.1182  0.6375  0.7155
   71MOL   H33738277   0.558   3.482   4.166 -0.7825 -0.8267  0.5615
   71MOL   H33838278   0.495   3.510   4.013  2.2396 -0.0617 -0.8630
   71MOL   H33938279   0.582   3.355   4.056 -0.7479 -0.3769 -0.5840
   71MOL   H34038280   0.339   3.302   4.044  0.3089 -1.9355  1.4759
   71MOL   H34138281   0.299   3.435   4.153 -0.3828 -0.2688  0.4336
   71MOL   H34238282   0.385   3.349   4.339 -2.7263 -0.1757  0.1855
   71MOL   H34338283   0.502   3.251   4.279  0.7254  1.2743  0.7409
   71MOL   H34438284   0.289   3.088   4.194  0.2732  0.1349 -0.1246
   71MOL   H34538285   0.200   3.216   4.234 -0.5090  0.3589  1.5286
   71MOL   H34638286   0.208   3.035   4.415 -0.5640  0.1584  0.1874
   71MOL   H34738287   0.226   3.193   4.478  0.4399  2.3022 -1.3969
   71MOL   H34838288   0.659   2.926   4.814  0.1169  0.2469  1.8481
   71MOL   H34938289   0.504   2.889   4.807  0.6012 -0.6894  0.3395
   71MOL   H35038290   0.536   3.056   4.845  1.3704 -1.8769  2.8346
   71MOL   H35138291   0.681   3.160   4.499  2.2239 -1.1969  0.3735
   71MOL   H35238292   0.766   3.083   4.616  0.1102  0.9159  1.6715
   71MOL   C35338293   1.440   3.298   4.809 -0.2551  0.2273  0.4058
   71MOL   C35438294   1.336   3.190   4.782 -0.2789 -0.6689  0.2819
   71MOL   C35538295   1.195   3.227   4.838  0.2249 -0.8125  0.2716
   71MOL   C35638296   1.103   3.115   4.871  0.8416  0.0543  0.3812
   71MOL   C35738297   0.959   3.154   4.908  0.0454  0.4423  0.0510
   71MOL   O35838298   0.877   3.175   4.799 -0.1373  0.3640 -0.4705
   71MOL   C35938299   0.757   3.230   4.818  0.1158  0.0991  0.7482
   71MOL   O36038300   0.712   3.248   4.930 -0.2045 -0.4776 -0.5887
   71MOL   C36138301   0.673   3.261   4.688  0.0955 -0.8436  0.4517
   71MOL   C36238302   0.529   3.320   4.711  0.0181  0.2679 -0.3201
   71MOL   C36338303   0.743   3.366   4.598 -0.0152 -0.5676 -0.3591
   71MOL   H36438304   1.538   3.258   4.786 -0.7872 -0.9372  0.0901
   71MOL   H36538305   1.452   3.331   4.912  0.7678 -0.3318  0.4682
   71MOL   H36638306   1.415   3.387   4.751 -1.4087  0.2005  0.8304
   71MOL   H36738307   1.325   3.188   4.674 -1.7843 -0.5233  0.4134
   71MOL   H36838308   1.378   3.095   4.817  4.4353  1.3014  0.3349
   71MOL   H36938309   1.145   3.276   4.755 -0.5710 -1.4060  0.3946
   71MOL   H37038310   1.208   3.300   4.919  0.2603  0.3467 -0.7663
   71MOL   H37138311   1.141   3.060   4.956  0.5329  0.3940  0.7438
   71MOL   H37238312   1.115   3.054   4.782  0.7063  1.0589 -0.3362
   71MOL   H37338313   0.920   3.073   4.970  2.7432 -1.1354 -0.2279
   71MOL   H37438314   0.966   3.244   4.970  0.1771  1.0306 -0.8147
   71MOL   H37538315   0.533   3.411   4.770 -1.0639 -0.3360  0.7128
   71MOL   H37638316   0.479   3.344   4.617 -0.2269  0.3218 -0.1753
   71MOL   H37738317   0.468   3.254   4.773 -0.0828  0.5975 -0.0675
   71MOL   H37838318   0.839   3.315   4.589 -0.4972 -1.5042 -0.2483
   71MOL   H37938319   0.696   3.375   4.500  1.6098  0.2080 -1.0899
   71MOL   C38038320   7.762   3.724   4.646 -0.0434  0.4399  0.4242
   71MOL   C38138321   0.076   3.652   4.668  0.3288 -0.2620 -0.0709
   71MOL   C38238322   0.197   3.674   4.573  0.4849  0.3788 -0.7229
   71MOL   C38338323   0.325   3.595   4.609  0.2375  0.4810  0.1357
   71MOL   C38438324   0.448   3.647   4.527  0.6680  1.1620  0.5580
   71MOL   O38538325   0.562   3.562   4.550 -0.6034 -0.1772  0.3783
   71MOL   C38638326   0.651   3.604   4.641 -0.6650 -0.4852 -0.5516
   71MOL   O38738327   0.642   3.709   4.710  0.1294  0.2904  0.1583
   71MOL   C38838328   0.778   3.515   4.651  0.8886 -0.3921 -0.2879
   71MOL   C38938329   0.821   3.513   4.805  0.0947  0.2385 -0.2499
   71MOL   C39038330   0.899   3.585   4.580  0.3979 -0.3956  0.1016
   71MOL   H39138331   7.787   3.829   4.635  2.3932  0.0184  1.5495
   71MOL   H39238332   7.705   3.679   4.565  1.8760 -0.4662 -0.4535
   71MOL   H39338333   7.702   3.713   4.737 -0.3918  0.0099  0.1429
   71MOL   H39438334   0.060   3.547   4.690  1.6182 -0.2805  0.8234
   71MOL   H39538335   0.118   3.687   4.762  1.4058 -1.0074 -0.2666
   71MOL   H39638336   0.158   3.637   4.478 -0.8500 -2.8157  0.9691
   71MOL   H39738337   0.222   3.780   4.564  1.6104  0.1512 -0.3856
   71MOL   H39838338   0.350   3.603   4.714  1.1644 -1.6804  0.1216
   71MOL   H39938339   0.313   3.487   4.605 -0.8239  0.5633  1.1769
   71MOL   H40038340   0.461   3.753   4.550  1.5419  1.2612 -0.3937
   71MOL   H40138341   0.416   3.630   4.424 -2.7292  2.5585  1.2881
   71MOL   H40238342   0.732   3.498   4.865 -0.1821  0.0585 -0.7020
   71MOL   H40338343   0.860   3.613   4.824 -0.2573  0.7083 -1.9177
   71MOL   H40438344   0.899   3.441   4.826 -0.6153 -0.2776  0.6401
   71MOL   H40538345   0.985   3.526   4.611  0.6344 -0.0670  0.0844
   71MOL   H40638346   0.923   3.680   4.629 -1.9874  0.5354 -0.4380
   71MOL   C40738347   1.347   2.828   4.420 -0.1391  0.0556  0.3996
   71MOL   C40838348   1.298   2.960   4.486  0.1618  0.1631 -0.1714
   71MOL   C40938349   1.207   3.044   4.397 -0.3732  0.3555  0.0611
   71MOL   C41038350   1.159   3.164   4.474 -0.0050 -0.8555  0.1250
   71MOL   C41138351   1.048   3.245   4.387 -0.5489 -0.0049 -0.0356
   71MOL   O41238352   1.017   3.377   4.429 -0.8829 -0.2606  0.4137
   71MOL   C41338353   0.931   3.451   4.359 -0.3562 -0.0953  0.0342
   71MOL   O41438354   0.869   3.408   4.260 -0.2765 -0.7130  0.2157
   71MOL   C41538355   0.919   3.591   4.418 -0.1727 -0.5546  0.1313
   71MOL   C41638356   0.795   3.660   4.354  0.7036 -0.5139 -0.2192
   71MOL   C41738357   1.049   3.681   4.376  0.1963 -0.0849 -0.0289
   71MOL   H41838358   1.420   2.835   4.340 -0.7792 -0.3331 -0.2370
   71MOL   H41938359   1.391   2.767   4.499 -1.4345 -2.8113 -0.9753
   71MOL   H42038360   1.265   2.761   4.393 -0.6801 -0.1496  2.4429
   71MOL   H42138361   1.384   3.020   4.516 -0.9158  1.9069 -0.5267
   71MOL   H42238362   1.249   2.942   4.582 -0.7849  2.0852 -0.2637
   71MOL   H42338363   1.263   3.075   4.308 -0.2094 -0.7100 -0.2127
   71MOL   H42438364   1.119   2.998   4.354 -0.3086 -0.8017  1.1396
   71MOL   H42538365   1.240   3.236   4.482  0.0014 -0.6289 -1.8363
   71MOL   H42638366   1.107   3.138   4.567 -1.4549 -0.6502 -0.6081
   71MOL   H42738367   1.068   3.234   4.280  3.5340  0.3727  0.5892
   71MOL   H42838368   0.953   3.193   4.400 -1.0132  0.9185  0.2903
   71MOL   H42938369   0.815   3.677   4.248  3.6974 -0.6901  0.2742
   71MOL   H43038370   0.782   3.753   4.408  1.4454  1.0522 -2.6509
   71MOL   H43138371   0.700   3.606   4.352  0.1651  0.4647 -2.7959
   71MOL   H43238372   1.041   3.764   4.446 -0.7991 -1.6789  1.7786
   71MOL   H43338373   1.028   3.733   4.282 -0.3255 -1.0431 -0.4519
   71MOL   C43438374   1.352   3.688   5.180 -0.0578 -0.2045 -0.1281
   71MOL   C43538375   1.306   3.746   5.044  0.1061 -0.2280  0.1096
   71MOL   C43638376   1.182   3.680   4.985 -0.5085  0.3948  0.3960
   71MOL   C43738377   1.152   3.722   4.845  0.2206  0.6942 -0.2574
   71MOL   C43838378   1.224   3.634   4.739 -0.5060  0.5194 -1.2891
   71MOL   O43938379   1.208   3.677   4.605  0.1773  0.1164 -0.5117
   71MOL   C44038380   1.242   3.597   4.509  0.3000  0.2956  0.0677
   71MOL   O44138381   1.302   3.491   4.526 -0.4932 -0.0943  0.4012
   71MOL   C44238382   1.200   3.647   4.369 -0.1029  0.2245  0.6803
   71MOL   C44338383   1.271   3.782   4.357 -0.2376 -0.6063  0.2729
   71MOL   C44438384   1.229   3.541   4.251 -0.1216  0.3071  0.5376
   71MOL   H44538385   1.265   3.676   5.244 -0.2159 -3.0741 -0.8047
   71MOL   H44638386   1.402   3.591   5.181 -0.5150 -0.5147 -2.8897
   71MOL   H44738387   1.412   3.763   5.232 -1.0356  0.5450 -0.0751
   71MOL   H44838388   1.295   3.852   5.067  0.4073 -0.0982 -0.3427
   71MOL   H44938389   1.384   3.737   4.969  0.1529 -2.3869  0.3777
   71MOL   H45038390   1.186   3.572   5.001 -1.9878  0.2333 -0.2775
   71MOL   H45138391   1.101   3.713   5.050 -1.2971 -0.6649 -0.0266
   71MOL   H45238392   1.172   3.828   4.826  2.0358  0.2797 -0.8189
   71MOL   H45338393   1.044   3.723   4.834  0.4070 -1.7586 -3.1311
   71MOL   H45438394   1.174   3.538   4.752  2.2870 -0.8204 -0.2358
   71MOL   H45538395   1.327   3.621   4.771 -0.5211  0.9839 -1.0420
   71MOL   H45638396   1.376   3.764   4.337 -0.4472  0.2688 -1.7883
   71MOL   H45738397   1.242   3.840   4.270 -1.0227 -1.0141  0.2580
   71MOL   H45838398   1.263   3.855   4.438 -2.2628  1.7644 -1.9702
   71MOL   H45938399   1.164   3.574   4.170 -0.4680 -2.2482 -0.2818
   71MOL   H46038400   1.197   3.439   4.273  0.2285 -0.1445 -1.0201
   71MOL   C46138401   1.689   3.012   4.503 -0.4277 -0.0519 -0.0083
   71MOL   C46238402   1.751   3.132   4.431  0.0139 -0.7481 -0.3973
   71MOL   C46338403   1.659   3.255   4.441 -0.2507  0.5479 -0.4155
   71MOL   C46438404   1.724   3.389   4.404 -0.1980 -0.4732  0.0837
   71MOL   C46538405   1.626   3.499   4.436  0.3370  0.2099  0.1338
   71MOL   O46638406   1.515   3.478   4.353 -0.2880  0.2211 -0.2694
   71MOL   C46738407   1.493   3.555   4.253 -0.2052 -0.1694  0.0020
   71MOL   O46838408   1.578   3.634   4.210  0.0295  0.3989  0.3308
   71MOL   C46938409   1.363   3.535   4.169  0.1575  0.3740 -0.5258
   71MOL   C47038410   1.365   3.646   4.058 -0.4814  0.3947  0.0667
   71MOL   C47138411   1.377   3.390   4.097 -0.4219  0.1027  0.5871
   71MOL   H47238412   1.752   2.924   4.519 -1.0158 -0.6412 -0.8818
   71MOL   H47338413   1.600   2.988   4.444 -0.2330  0.1560 -0.3893
   71MOL   H47438414   1.650   3.030   4.603  0.2935 -2.5449  0.7628
   71MOL   H47538415   1.763   3.118   4.324  0.3136  1.0348 -0.6103
   71MOL   H47638416   1.852   3.162   4.462  0.2690  1.0523 -2.7760
   71MOL   H47738417   1.619   3.264   4.542 -3.6776 -1.6640 -1.4992
   71MOL   H47838418   1.571   3.232   4.381  0.5672 -2.1449 -0.6139
   71MOL   H47938419   1.748   3.389   4.298 -0.9388 -1.1514 -0.0826
   71MOL   H48038420   1.816   3.403   4.460 -1.1753  2.2638  1.1073
   71MOL   H48138421   1.598   3.504   4.541 -0.7359  0.7223 -0.1692
   71MOL   H48238422   1.673   3.595   4.415 -0.2041  0.7854  1.5060
   71MOL   H48338423   1.449   3.635   3.990 -0.1830 -2.2494  0.7789
   71MOL   H48438424   1.374   3.745   4.102 -2.4625 -0.0852  1.6189
   71MOL   H48538425   1.280   3.648   3.990  0.1825 -0.0692 -0.7833
   71MOL   H48638426   1.375   3.315   4.176  0.0619 -0.0176  0.4880
   71MOL   H48738427   1.479   3.386   4.059 -1.3355 -1.3877 -1.8499
   71MOL   C48838428   0.795   3.662   3.507  0.3139 -0.8595  0.4633
   71MOL   C48938429   0.885   3.688   3.630  0.1375 -0.4137  0.1564
   71MOL   C49038430   0.863   3.603   3.755 -0.1913  0.1443  0.0504
   71MOL   C49138431   0.938   3.647   3.885  0.3850  0.0785  0.2162
   71MOL   C49238432   0.961   3.528   3.977  0.0809  0.3509 -0.0402
   71MOL   O49338433   1.100   3.485   3.968 -0.7167 -0.1426  0.3859
   71MOL   C49438434   1.141   3.360   3.992 -0.8421 -0.0534 -0.1733
   71MOL   O49538435   1.057   3.274   4.019 -0.3493  0.2795  0.2272
   71MOL   C49638436   1.290   3.334   3.978 -0.3692 -0.8884 -0.6493
   71MOL   C49738437   1.303   3.181   3.970  0.0135 -0.1123 -0.4522
   71MOL   C49838438   1.343   3.399   3.847 -0.2256  0.0607  0.4619
   71MOL   H49938439   0.767   3.557   3.497 -1.8842 -0.2649  0.1813
   71MOL   H50038440   0.707   3.724   3.522  0.9752  0.7344 -1.8767
   71MOL   H50138441   0.845   3.695   3.415  1.5093 -1.4206  0.9021
   71MOL   H50238442   0.893   3.795   3.647  0.6641 -0.6025  1.1601
   71MOL   H50338443   0.980   3.645   3.600 -0.9383 -1.9841 -1.0920
   71MOL   H50438444   0.755   3.590   3.758 -0.2363  0.0626 -1.4946
   71MOL   H50538445   0.891   3.505   3.718 -2.7373 -0.1665 -1.1410
   71MOL   H50638446   0.877   3.714   3.946  0.4988 -0.8173  1.3274
   71MOL   H50738447   1.034   3.696   3.871  0.4721 -0.5164 -1.3427
   71MOL   H50838448   0.965   3.552   4.084 -0.2295 -2.9118  0.7444
   71MOL   H50938449   0.881   3.457   3.954 -2.2308  2.2816  1.7592
   71MOL   H51038450   1.410   3.160   3.962  0.1542  0.2871  0.2952
   71MOL   H51138451   1.243   3.134   3.893  1.5050 -1.0597 -1.0413
   71MOL   H51238452   1.264   3.141   4.064  0.3522 -0.5336 -0.4901
   71MOL   H51338453   1.451   3.413   3.838 -0.4694  2.3087  0.5970
   71MOL   H51438454   1.316   3.505   3.847 -1.5413 -0.2753 -0.3979
   71MOL   C51538455   1.210   4.009   3.878 -0.0434  1.4214  0.6292
   71MOL   C51638456   1.323   3.941   3.803 -0.3758  0.0678 -0.1276
   71MOL   C51738457   1.288   3.829   3.707  0.2315  0.3953  0.1451
   71MOL   C51838458   1.409   3.761   3.643  0.3585  0.2196 -0.1386
   71MOL   C51938459   1.370   3.663   3.532  0.3252 -0.0724 -0.4122
   71MOL   O52038460   1.310   3.547   3.584 -0.3675  0.6308  0.2284
   71MOL   C52138461   1.377   3.434   3.599  0.0774 -0.1414  0.5182
   71MOL   O52238462   1.473   3.404   3.535 -0.2467  0.4136 -0.0852
   71MOL   C52338463   1.317   3.335   3.705 -0.2148  0.0257 -0.6351
   71MOL   C52438464   1.163   3.329   3.674 -0.0465 -1.2606 -0.0862
   71MOL   C52538465   1.390   3.200   3.675  0.0958  0.2993  0.0425
   71MOL   H52638466   1.139   4.063   3.815 -0.4201 -0.3630 -0.5404
   71MOL   H52738467   1.150   3.933   3.927  0.4744  1.5890  1.5354
   71MOL   H52838468   1.246   4.079   3.953  1.0674  1.2438  0.2828
   71MOL   H52938469   1.374   4.020   3.749 -1.0630 -0.9386 -2.2905
   71MOL   H53038470   1.394   3.902   3.876  1.0121  0.8265 -1.0518
   71MOL   H53138471   1.216   3.761   3.751  0.1256  1.6408  1.9562
   71MOL   H53238472   1.243   3.875   3.619 -1.3184  0.8782  1.1797
   71MOL   H53338473   1.459   3.712   3.727 -0.1141  0.3482  0.2197
   71MOL   H53438474   1.475   3.839   3.605 -0.0744 -0.8951 -3.3185
   71MOL   H53538475   1.304   3.709   3.459 -0.9742  0.0959  0.8402
   71MOL   H53638476   1.460   3.636   3.475 -1.0775 -2.1095 -1.7521
   71MOL   H53738477   1.111   3.420   3.707  0.2810  0.1605 -3.3210
   71MOL   H53838478   1.118   3.237   3.711  1.4315 -1.7307  0.6026
   71MOL   H53938479   1.150   3.315   3.567  0.7980 -0.3968 -0.3170
   71MOL   H54038480   1.339   3.110   3.711  0.4847  0.5854  1.3640
   71MOL   H54138481   1.490   3.198   3.720  0.3502 -0.7856 -0.5623
   71MOL   H54238482   1.406   3.178   3.570 -0.6026  0.0119 -0.0077
   72MOL     C138483   7.220   5.317   0.041  0.1302  0.1760 -0.2378
   72MOL     C238484   7.180   5.166   0.050 -0.0236 -0.1220 -0.1339
   72MOL     C338485   7.068   5.142   0.152  0.1003 -0.0763  0.5538
   72MOL     C438486   7.111   5.134   0.301 -1.2714  0.7742  0.4679
   72MOL     C538487   6.992   5.112   0.399 -0.2574  0.4403  0.4065
   72MOL     O638488   6.896   5.220   0.394 -0.1809  0.4426 -0.2683
   72MOL     C738489   6.783   5.203   0.471 -0.1007  0.3402 -0.8014
   72MOL     O838490   6.761   5.098   0.534 -0.0193 -0.3990  0.4451
   72MOL     C938491   6.694   5.324   0.484  0.2270 -0.0799  0.0753
   72MOL    C1038492   6.620   5.346   0.352 -0.6818  0.3013  0.3316
   72MOL    C1138493   6.769   5.446   0.544  0.4273 -0.6283 -0.2644
   72MOL    H1238494   7.306   5.321   7.788  1.9567 -1.5821  1.9205
   72MOL    H1338495   7.247   5.365   0.135 -0.6918  0.0931  0.0350
   72MOL    H1438496   7.135   5.373   0.003  0.6296  0.6381 -0.6990
   72MOL    H1538497   7.147   5.122   7.770  5.0280 -1.4188 -1.4689
   72MOL    H1638498   7.265   5.107   0.085  0.3159 -0.1899 -1.0595
   72MOL    H1738499   6.996   5.223   0.143  2.3867  1.9583  0.0400
   72MOL    H1838500   7.015   5.049   0.129  0.1154  0.0015  0.2100
   72MOL    H1938501   7.165   5.227   0.318 -0.7626  0.3903  1.0081
   72MOL    H2038502   7.185   5.054   0.309 -1.2261  0.8351  0.6642
   72MOL    H2138503   6.947   5.016   0.372 -0.6484  0.3461  1.3569
   72MOL    H2238504   7.021   5.108   0.504  2.0765 -1.0920 -0.2595
   72MOL    H2338505   6.589   5.450   0.339 -2.0106 -0.2270 -0.9188
   72MOL    H2438506   6.532   5.284   0.334 -0.3688 -0.0923  0.1500
   72MOL    H2538507   6.684   5.334   0.265 -0.6206  2.3940  0.0808
   72MOL    H2638508   6.815   5.506   0.466  0.0310 -0.8355 -0.6620
   72MOL    H2738509   6.856   5.400   0.590  0.6409 -1.4667 -1.4659
   72MOL    H2838510   6.628   5.293   0.565 -0.4559 -0.5747 -0.6681
   72MOL    C2938511   6.828   5.547   1.300  0.4557  0.1675 -0.0827
   72MOL    C3038512   6.924   5.433   1.261 -0.0966 -0.6624  0.2298
   72MOL    C3138513   6.926   5.404   1.111 -0.9954 -1.3076 -0.3834
   72MOL    C3238514   6.793   5.335   1.065 -1.0068  0.0642 -0.8975
   72MOL    C3338515   6.797   5.296   0.919  0.0675  0.2132 -0.0636
   72MOL    O3438516   6.794   5.406   0.833 -0.2269  0.0965 -0.0540
   72MOL    C3538517   6.675   5.439   0.778  0.6842  0.4676  0.7766
   72MOL    O3638518   6.568   5.405   0.818 -0.4141  0.0034  0.4320
   72MOL    C3738519   6.694   5.526   0.651  0.0504 -0.1650 -0.4373
   72MOL    C3838520   6.551   5.562   0.600 -0.2057 -0.1424 -0.1739
   72MOL    C3938521   6.784   5.648   0.685 -0.0311 -0.0244  0.7284
   72MOL    H4038522   6.724   5.517   1.288  0.7996 -0.8094 -0.6205
   72MOL    H4138523   6.828   5.566   1.408 -3.0919 -1.4027  0.2711
   72MOL    H4238524   6.854   5.641   1.251  0.5898  1.3118  2.1312
   72MOL    H4338525   6.905   5.345   1.321 -2.0038  0.3201  1.1379
   72MOL    H4438526   7.025   5.463   1.287  0.2286  1.4045 -2.9832
   72MOL    H4538527   7.003   5.332   1.083 -1.2752 -1.6306 -0.3309
   72MOL    H4638528   6.947   5.501   1.067  0.2710 -1.8024 -0.8769
   72MOL    H4738529   6.775   5.249   1.128  1.8784 -1.2880 -1.8292
   72MOL    H4838530   6.714   5.407   1.088  1.2160  1.4962  2.6109
   72MOL    H4938531   6.709   5.236   0.896 -0.9851  1.1614  1.4029
   72MOL    H5038532   6.882   5.235   0.886  0.8821  0.0563  2.1834
   72MOL    H5138533   6.545   5.596   0.496  1.9673 -1.1704 -0.6501
   72MOL    H5238534   6.502   5.637   0.663 -2.4822 -0.2698 -1.7221
   72MOL    H5338535   6.475   5.484   0.596  0.1426 -0.3934 -2.4358
   72MOL    H5438536   6.840   5.672   0.595 -2.3079 -1.4351 -1.1351
   72MOL    H5538537   6.867   5.612   0.746  2.4134  1.0926 -1.8458
   72MOL    C5638538   7.205   6.347   0.837  0.8354  0.2828  0.0403
   72MOL    C5738539   7.293   6.245   0.757  0.1310 -0.0034  0.1704
   72MOL    C5838540   7.252   6.097   0.783 -1.0180 -0.4230 -0.4119
   72MOL    C5938541   7.132   6.051   0.695 -0.2948 -0.4644 -0.6961
   72MOL    C6038542   7.098   5.906   0.735  0.1460 -0.1979  0.0564
   72MOL    O6138543   6.969   5.869   0.707  0.2304 -0.2585  0.7378
   72MOL    C6238544   6.877   5.848   0.804  0.5117 -0.0357 -0.2229
   72MOL    O6338545   6.891   5.877   0.925  0.1689 -0.4411 -0.4433
   72MOL    C6438546   6.742   5.785   0.752  0.0846  0.2851 -0.3639
   72MOL    C6538547   6.664   5.750   0.881 -0.2943  0.2406  0.0032
   72MOL    C6638548   6.667   5.874   0.649 -0.7365  0.4098 -0.0230
   72MOL    H6738549   7.212   6.453   0.812 -1.0270  0.7020  1.1408
   72MOL    H6838550   7.225   6.321   0.941  2.0826 -0.1905 -0.3070
   72MOL    H6938551   7.100   6.332   0.811  0.5517 -0.2936  1.4532
   72MOL    H7038552   7.292   6.268   0.651  0.0909 -4.2575 -0.8241
   72MOL    H7138553   7.395   6.267   0.791  0.7481 -1.3997 -0.7118
   72MOL    H7238554   7.332   6.026   0.762  1.3415  2.0013  0.1327
   72MOL    H7338555   7.237   6.081   0.890 -3.2351 -1.7413 -0.8736
   72MOL    H7438556   7.154   6.060   0.589 -1.6554 -0.4461 -0.9868
   72MOL    H7538557   7.047   6.116   0.719 -0.6910 -1.8205  1.7723
   72MOL    H7638558   7.157   5.831   0.683 -0.1006 -0.4762  0.1771
   72MOL    H7738559   7.112   5.894   0.842  2.3515 -0.7718 -0.2704
   72MOL    H7838560   6.724   5.710   0.962  0.1698  0.7214 -0.1001
   72MOL    H7938561   6.574   5.690   0.866  0.4256 -0.2089 -2.9931
   72MOL    H8038562   6.624   5.846   0.912  1.9443  0.4557  2.4147
   72MOL    H8138563   6.617   5.806   0.581  1.9559 -1.2123 -0.4599
   72MOL    H8238564   6.747   5.922   0.593 -0.4386  1.3211  1.1597
   72MOL    C8338565   6.001   6.074   1.348  0.8272  0.4274 -0.2191
   72MOL    C8438566   6.038   6.092   1.200 -0.4334 -0.6879 -0.2101
   72MOL    C8538567   6.160   6.001   1.156 -0.0060 -0.1572  0.2413
   72MOL    C8638568   6.229   6.040   1.029  0.6581  0.2260 -0.3825
   72MOL    C8738569   6.309   5.926   0.965 -0.0062  0.3953 -0.1194
   72MOL    O8838570   6.404   5.990   0.882 -0.1946  0.0514  0.3888
   72MOL    C8938571   6.437   5.936   0.755  1.1152 -0.0215  0.1039
   72MOL    O9038572   6.367   5.852   0.698  0.5142 -0.1143  0.1641
   72MOL    C9138573   6.567   5.987   0.692  0.1223 -0.4410 -0.2933
   72MOL    C9238574   6.638   6.092   0.782  0.1198 -0.6988 -0.7538
   72MOL    C9338575   6.527   6.052   0.553 -0.0626 -0.1413  0.8326
   72MOL    H9438576   5.908   6.124   1.378  0.9071 -0.4406  1.5056
   72MOL    H9538577   5.975   5.971   1.371  0.5145  0.7570  0.9165
   72MOL    H9638578   6.083   6.102   1.414  1.6115 -2.6867  0.1807
   72MOL    H9738579   6.056   6.198   1.182  1.1374 -0.7399  1.0025
   72MOL    H9838580   5.952   6.061   1.140 -0.5401 -1.6147  0.4049
   72MOL    H9938581   6.128   5.897   1.157 -3.4633  0.7995 -1.9317
   72MOL   H10038582   6.241   5.998   1.229  1.0891 -0.5181 -0.9841
   72MOL   H10138583   6.295   6.126   1.042  1.3909 -0.4554  0.5290
   72MOL   H10238584   6.152   6.075   0.960  0.8747 -2.5365 -2.1123
   72MOL   H10338585   6.250   5.843   0.928 -0.7114  1.3604 -1.2016
   72MOL   H10438586   6.375   5.881   1.039  0.0005  2.3413  1.1137
   72MOL   H10538587   6.562   6.157   0.826 -1.0266 -1.3913 -1.6763
   72MOL   H10638588   6.713   6.149   0.726 -0.3261  1.6184  0.9304
   72MOL   H10738589   6.681   6.046   0.870 -1.1231 -0.7731 -0.1802
   72MOL   H10838590   6.620   6.074   0.500 -0.3606 -1.4715 -0.2915
   72MOL   H10938591   6.495   5.968   0.491  2.9059 -0.1464 -0.7557
   72MOL   C11038592   6.901   6.566   0.218 -0.7020 -0.1200 -0.4320
   72MOL   C11138593   6.794   6.463   0.268  0.1227 -0.2125  1.1825
   72MOL   C11238594   6.859   6.353   0.354 -0.5736 -0.8723  0.0614
   72MOL   C11338595   6.861   6.373   0.510  0.6857  0.0028 -0.3242
   72MOL   C11438596   6.724   6.413   0.576 -0.1056  0.0948  0.8913
   72MOL   O11538597   6.633   6.314   0.521  0.3935 -0.3351  0.0012
   72MOL   C11638598   6.513   6.303   0.580 -0.1087 -0.5905 -0.5777
   72MOL   O11738599   6.468   6.384   0.665 -0.0291 -0.0663  0.0887
   72MOL   C11838600   6.434   6.178   0.525  0.3895  0.2502 -0.2311
   72MOL   C11938601   6.297   6.163   0.598 -0.0392  0.5964  0.4929
   72MOL   C12038602   6.418   6.176   0.364  0.2899 -0.3804  0.2821
   72MOL   H12138603   6.987   6.513   0.179 -1.7697 -1.8335 -0.5216
   72MOL   H12238604   6.866   6.634   0.139 -1.4362  0.9779  0.7999
   72MOL   H12338605   6.939   6.625   0.301 -0.0448 -0.6130 -0.3868
   72MOL   H12438606   6.722   6.517   0.329 -0.6956  1.4149 -1.1622
   72MOL   H12538607   6.736   6.418   0.188  2.2003  1.8161 -1.5464
   72MOL   H12638608   6.820   6.256   0.325  2.3112 -2.5736  1.6576
   72MOL   H12738609   6.966   6.357   0.335 -0.7421  1.2723 -0.5827
   72MOL   H12838610   6.924   6.461   0.523 -0.6935  0.9201  0.2557
   72MOL   H12938611   6.907   6.287   0.560  1.4917  1.3047  1.2248
   72MOL   H13038612   6.727   6.417   0.685 -0.7299 -0.1698  0.9244
   72MOL   H13138613   6.689   6.509   0.539 -1.3312  0.8306  3.7905
   72MOL   H13238614   6.245   6.256   0.575 -2.2916 -0.8195 -0.2437
   72MOL   H13338615   6.243   6.083   0.548 -0.4227  1.0645  0.1572
   72MOL   H13438616   6.305   6.164   0.707 -0.1084  0.4163  0.4990
   72MOL   H13538617   6.509   6.209   0.312 -0.8674 -0.8541 -2.1171
   72MOL   H13638618   6.406   6.078   0.318  1.4613 -1.8797  3.0794
   72MOL   C13738619   5.835   5.707   0.041 -0.8235  0.7373 -0.3112
   72MOL   C13838620   5.966   5.775   0.004 -0.1753  0.5221  0.6191
   72MOL   C13938621   5.988   5.906   0.090 -0.3086  0.1060  0.1735
   72MOL   C14038622   6.035   5.883   0.234 -0.2274 -0.0856  0.2551
   72MOL   C14138623   6.031   6.018   0.313  0.2210 -0.4605 -0.6836
   72MOL   O14238624   6.147   6.089   0.273 -0.5006  0.3938  0.6241
   72MOL   C14338625   6.169   6.214   0.310 -0.1726  0.2458  0.7005
   72MOL   O14438626   6.087   6.275   0.383 -1.0108 -0.0945 -0.2237
   72MOL   C14538627   6.313   6.269   0.285 -0.5365  0.1394  0.2680
   72MOL   C14638628   6.326   6.417   0.338  0.2157  0.2310 -0.5615
   72MOL   C14738629   6.355   6.259   0.136  0.2539  0.6931  0.6545
   72MOL   H14838630   5.809   5.627   7.786  0.6636  0.1241 -0.1846
   72MOL   H14938631   5.759   5.785   0.031  1.3532  2.8985 -0.4730
   72MOL   H15038632   5.835   5.667   0.143  0.4590  0.9876 -0.2015
   72MOL   H15138633   5.964   5.796   7.711  2.7271 -1.6925  0.0753
   72MOL   H15238634   6.057   5.719   0.024 -0.2747 -0.5236 -1.6980
   72MOL   H15338635   6.047   5.987   0.046 -1.5475  1.2727  0.6288
   72MOL   H15438636   5.891   5.956   0.088 -1.1999 -1.5191  1.7061
   72MOL   H15538637   5.981   5.802   0.282  0.5958 -0.3988  0.6554
   72MOL   H15638638   6.139   5.853   0.225  0.2298  1.4210  0.3474
   72MOL   H15738639   6.046   5.993   0.419  0.2584 -0.2997 -0.6512
   72MOL   H15838640   5.945   6.082   0.300  1.1021  0.4637 -2.1024
   72MOL   H15938641   6.299   6.417   0.443  2.6228 -0.0746  0.0978
   72MOL   H16038642   6.270   6.486   0.275 -0.6214 -1.0055 -1.1868
   72MOL   H16138643   6.427   6.455   0.321 -0.1763  1.2842 -0.5717
   72MOL   H16238644   6.458   6.294   0.135  1.0171 -1.4895  0.5585
   72MOL   H16338645   6.359   6.152   0.115  0.7090  0.4741  1.8495
   72MOL   C16438646   6.728   6.980   0.235  0.0866 -0.0861 -1.1800
   72MOL   C16538647   6.660   6.848   0.201 -0.1926 -0.3498  0.5466
   72MOL   C16638648   6.513   6.878   0.184 -0.3901 -0.1052 -0.8123
   72MOL   C16738649   6.432   6.749   0.179  0.1406 -0.3144 -0.2728
   72MOL   C16838650   6.446   6.673   0.039  0.2615  0.0032 -0.5000
   72MOL   O16938651   6.409   6.537   0.057  0.2258  0.0790  0.6757
   72MOL   C17038652   6.290   6.490   0.020 -0.1226 -0.3419 -0.2423
   72MOL   O17138653   6.199   6.550   7.784 -0.1651 -0.5615  0.3122
   72MOL   C17238654   6.283   6.333   0.018 -0.7854  0.5141  0.6246
   72MOL   C17338655   6.140   6.298   0.029 -0.0106  0.1501 -0.6535
   72MOL   C17438656   6.323   6.274   7.691  0.5799  0.2873  0.4861
   72MOL   H17538657   6.672   7.032   0.313 -0.2643 -0.8660 -0.9108
   72MOL   H17638658   6.707   7.049   0.153 -5.3152 -0.8394 -0.5946
   72MOL   H17738659   6.830   6.970   0.271 -1.3586 -1.9089  2.7530
   72MOL   H17838660   6.675   6.784   0.288  1.4379 -2.6967 -1.3985
   72MOL   H17938661   6.701   6.798   0.114 -0.0339 -1.7179  1.3852
   72MOL   H18038662   6.467   6.927   0.270  1.2970  3.5743 -1.9246
   72MOL   H18138663   6.492   6.933   0.093 -4.7005 -0.8804 -0.3914
   72MOL   H18238664   6.330   6.766   0.213 -0.0996 -1.8031 -0.2264
   72MOL   H18338665   6.458   6.676   0.256 -0.7219 -1.2245 -0.8451
   72MOL   H18438666   6.545   6.681   7.809  0.5025  2.8264  0.4147
   72MOL   H18538667   6.385   6.719   7.775 -0.5117 -1.2028 -0.6175
   72MOL   H18638668   6.128   6.191   0.047  2.7565 -0.1981 -0.7750
   72MOL   H18738669   6.081   6.322   7.754  0.5714 -0.6414 -1.2599
   72MOL   H18838670   6.088   6.354   0.106  1.1004 -0.6138  0.6620
   72MOL   H18938671   6.325   6.166   7.700 -3.7144 -0.1475 -2.3473
   72MOL   H19038672   6.241   6.292   7.622 -0.3832  1.8514  1.9874
   72MOL   C19138673   7.147   6.067   0.189 -0.1297  0.5281 -0.3431
   72MOL   C19238674   7.030   6.116   0.100  0.3638  0.8628 -0.0084
   72MOL   C19338675   6.908   6.017   0.088  1.1711  0.0072  0.3207
   72MOL   C19438676   6.807   6.067   7.801 -0.4065 -0.7160  0.5814
   72MOL   C19538677   6.731   6.193   0.031 -0.4808 -0.2140  0.8356
   72MOL   O19638678   6.623   6.201   7.757  0.4447 -0.2092 -0.0785
   72MOL   C19738679   6.570   6.312   7.709 -0.4094  0.9631  0.8429
   72MOL   O19838680   6.620   6.421   7.733 -0.1333  0.0887  0.1770
   72MOL   C19938681   6.456   6.304   7.607 -0.4262  0.2109  0.5717
   72MOL   C20038682   6.425   6.434   7.531  0.2373  0.7572  0.0357
   72MOL   C20138683   6.486   6.189   7.509  0.3171 -0.0552  0.5994
   72MOL   H20238684   7.186   5.972   0.155  2.1310  1.6393 -0.9412
   72MOL   H20338685   7.231   6.136   0.193  1.0541 -0.9045  0.0380
   72MOL   H20438686   7.110   6.066   0.291 -2.4568  1.9990 -1.1354
   72MOL   H20538687   7.072   6.127   0.000 -0.5086 -3.1664 -0.9073
   72MOL   H20638688   7.006   6.215   0.138 -0.4431  0.1480  1.4135
   72MOL   H20738689   6.853   5.999   0.180  0.4945  0.5647  0.0261
   72MOL   H20838690   6.941   5.916   0.062 -0.1237 -0.3972  0.2042
   72MOL   H20938691   6.861   6.093   7.710  0.0344 -0.5312  0.8967
   72MOL   H21038692   6.734   5.990   7.774 -0.5433 -0.6854  0.8610
   72MOL   H21138693   6.693   6.183   0.133 -0.3423  1.5679  1.0788
   72MOL   H21238694   6.798   6.279   0.032  0.3885 -0.7819  5.2840
   72MOL   H21338695   6.502   6.455   7.457  0.4355 -0.3981 -0.0894
   72MOL   H21438696   6.418   6.518   7.601  0.4543  0.2178  0.7186
   72MOL   H21538697   6.333   6.426   7.474  0.7118 -0.5449 -0.5486
   72MOL   H21638698   6.385   6.160   7.479  0.1465  0.4515  0.6832
   72MOL   H21738699   6.511   6.095   7.559 -0.2922 -0.8366 -0.5296
   72MOL   C21838700   6.741   6.414   6.629  0.7656 -0.0207  0.1312
   72MOL   C21938701   6.623   6.332   6.677  0.8185  0.3242  0.3370
   72MOL   C22038702   6.547   6.382   6.802 -0.1881  0.4262  0.2614
   72MOL   C22138703   6.621   6.353   6.936  0.2744  0.3404 -0.5305
   72MOL   C22238704   6.533   6.375   7.057  0.1091  0.2463 -0.9200
   72MOL   O22338705   6.598   6.304   7.165 -0.1084  0.2195 -0.1344
   72MOL   C22438706   6.515   6.258   7.264 -0.0316  0.8590  0.0669
   72MOL   O22538707   6.393   6.255   7.252  0.1037  0.7456  0.6602
   72MOL   C22638708   6.585   6.190   7.386  0.1471  0.2021  0.8362
   72MOL   C22738709   6.600   6.044   7.344 -0.5002  0.2507  0.4362
   72MOL   C22838710   6.725   6.248   7.436 -0.0693  0.0215  0.5889
   72MOL   H22938711   6.821   6.437   6.699  1.1472  0.2121 -0.3759
   72MOL   H23038712   6.794   6.372   6.544 -0.1520 -1.0367  0.0470
   72MOL   H23138713   6.701   6.511   6.600  0.3878 -0.5147 -1.0608
   72MOL   H23238714   6.663   6.231   6.686 -0.3271 -0.3006 -1.3300
   72MOL   H23338715   6.547   6.336   6.599 -0.3660  0.8979  1.4929
   72MOL   H23438716   6.451   6.333   6.817 -0.8012  1.2217 -0.9960
   72MOL   H23538717   6.534   6.490   6.798 -1.0136  0.2814 -1.9328
   72MOL   H23638718   6.650   6.248   6.923 -1.0899 -0.0485 -0.4917
   72MOL   H23738719   6.712   6.413   6.931  0.5220 -0.0004 -0.0748
   72MOL   H23838720   6.434   6.337   7.034  0.0412 -1.2130  1.6509
   72MOL   H23938721   6.531   6.482   7.076 -1.2237  0.1205 -0.3581
   72MOL   H24038722   6.678   5.993   7.400  1.9340 -1.0330 -3.9103
   72MOL   H24138723   6.624   6.038   7.238 -0.1596 -1.7794  0.6088
   72MOL   H24238724   6.502   5.995   7.343  0.1943 -1.1524 -0.3112
   72MOL   H24338725   6.736   6.179   7.519  0.8007 -1.3637 -0.6471
   72MOL   H24438726   6.706   6.346   7.481 -1.4041  0.7792 -1.5070
   72MOL   C24538727   6.643   6.966   7.484 -0.1990  0.9780  0.4881
   72MOL   C24638728   6.665   6.820   7.534  0.6178  0.3885 -0.1538
   72MOL   C24738729   6.745   6.721   7.450 -0.5753 -0.2697 -0.6848
   72MOL   C24838730   6.696   6.689   7.304  0.6987 -0.0762  0.6172
   72MOL   C24938731   6.791   6.600   7.230  0.0078  0.6125 -0.4964
   72MOL   O25038732   6.781   6.470   7.287  0.2578  0.0654  0.1513
   72MOL   C25138733   6.860   6.368   7.253 -0.5172  0.2797  0.3204
   72MOL   O25238734   6.929   6.364   7.149 -0.0123 -0.0986  0.5210
   72MOL   C25338735   6.864   6.258   7.363  0.0260 -0.2234 -0.3771
   72MOL   C25438736   6.910   6.130   7.299 -0.1922 -0.3198 -0.5820
   72MOL   C25538737   6.961   6.302   7.480  0.2723  0.2907 -0.6255
   72MOL   H25638738   6.624   6.968   7.377  0.3567 -1.9129  0.2870
   72MOL   H25738739   6.569   7.020   7.543  0.3312  0.6483  1.4782
   72MOL   H25838740   6.737   7.020   7.493  1.2694 -1.2227 -1.0497
   72MOL   H25938741   6.695   6.828   7.638  0.1699 -1.5810  0.1346
   72MOL   H26038742   6.571   6.766   7.532  0.7774  0.1436 -1.5049
   72MOL   H26138743   6.758   6.625   7.500  1.5933  0.0637 -0.5840
   72MOL   H26238744   6.837   6.778   7.453 -0.8625  0.1315  0.7909
   72MOL   H26338745   6.601   6.635   7.303  0.8376 -0.3211  0.5448
   72MOL   H26438746   6.680   6.783   7.251  0.4963 -0.9568 -0.9268
   72MOL   H26538747   6.784   6.592   7.121 -0.6822  1.1084 -0.4915
   72MOL   H26638748   6.888   6.645   7.249 -0.7519  1.6463  1.0193
   72MOL   H26738749   6.839   6.090   7.226 -1.0152  0.9491 -0.4817
   72MOL   H26838750   6.995   6.135   7.232 -0.7841  2.5634 -1.1649
   72MOL   H26938751   6.930   6.058   7.379 -3.2215 -0.7989 -0.1901
   72MOL   H27038752   6.911   6.369   7.550  1.3215  0.0212  0.3906
   72MOL   H27138753   6.964   6.213   7.543 -0.1945  1.7451  1.4767
   72MOL   C27238754   7.702   5.929   7.350  0.2149  0.6461  0.1633
   72MOL   C27338755   7.641   5.993   7.223  0.3734 -0.3689  0.0618
   72MOL   C27438756   7.492   5.985   7.195 -0.1815 -0.7908 -0.0058
   72MOL   C27538757   7.419   6.060   7.308  0.5314  0.3378  0.0143
   72MOL   C27638758   7.265   6.065   7.286 -0.2227  0.0106  0.1117
   72MOL   O27738759   7.210   6.148   7.384  0.7390  0.0200  0.1467
   72MOL   C27838760   7.184   6.282   7.353  0.5977  0.2662  0.0741
   72MOL   O27938761   7.221   6.331   7.247  0.1770  0.2745  0.1567
   72MOL   C28038762   7.109   6.358   7.464  0.6019  0.2926  0.2596
   72MOL   C28138763   7.098   6.504   7.415 -0.2907  0.4621 -0.4013
   72MOL   C28238764   7.175   6.347   7.603 -0.0231 -0.9718  0.4776
   72MOL   H28338765   7.665   5.987   7.434 -1.2384 -2.8553  2.0666
   72MOL   H28438766   7.657   5.830   7.360 -1.6931  1.4351 -0.4073
   72MOL   H28538767   7.809   5.915   7.332 -0.6087 -1.2578 -3.8740
   72MOL   H28638768   7.666   6.099   7.228 -0.0856 -0.2692  0.2062
   72MOL   H28738769   7.696   5.962   7.134 -2.3716 -1.7226 -1.2452
   72MOL   H28838770   7.472   6.023   7.095 -0.4714 -0.9277  0.0015
   72MOL   H28938771   7.466   5.879   7.196 -0.4013 -0.7472 -0.9648
   72MOL   H29038772   7.437   6.002   7.399  1.8787 -1.3166 -1.2655
   72MOL   H29138773   7.458   6.161   7.317  1.3356  0.1368 -0.9997
   72MOL   H29238774   7.220   5.966   7.293 -0.6992 -0.0225 -2.6522
   72MOL   H29338775   7.236   6.101   7.187 -0.7908 -1.9128 -0.4365
   72MOL   H29438776   7.197   6.550   7.411 -0.7056  1.6505  2.0903
   72MOL   H29538777   7.054   6.526   7.318  1.1093  1.1495 -0.8916
   72MOL   H29638778   7.039   6.554   7.492  0.7413 -1.5004  1.7147
   72MOL   H29738779   7.099   6.364   7.678 -0.4169  1.5477 -0.4414
   72MOL   H29838780   7.199   6.245   7.633 -0.7466 -0.5127  2.6846
   72MOL   C29938781   7.063   7.181   0.126  0.1443  0.0162  0.0456
   72MOL   C30038782   7.094   7.033   0.120 -0.0019 -0.3832  0.1020
   72MOL   C30138783   7.015   6.954   0.016 -0.3121 -0.1635  0.0411
   72MOL   C30238784   7.031   6.800   0.018  0.3284  0.1056 -0.0875
   72MOL   C30338785   7.170   6.760   7.772  0.6848 -0.2167  0.4281
   72MOL   O30438786   7.187   6.624   7.750 -0.1095 -0.8577  0.6332
   72MOL   C30538787   7.270   6.583   7.653 -0.0443  0.3754 -0.7499
   72MOL   O30638788   7.326   6.655   7.569  0.0272  0.3354 -0.3724
   72MOL   C30738789   7.296   6.431   7.658 -0.5041  0.1117  0.2242
   72MOL   C30838790   7.308   6.391   7.809 -0.8889 -0.0942 -0.0407
   72MOL   C30938791   7.429   6.394   7.579  0.1101 -0.5433 -0.5147
   72MOL   H31038792   7.062   7.218   0.023  2.2917 -0.6091 -0.2264
   72MOL   H31138793   7.138   7.240   0.178  1.4920 -1.8884  0.3035
   72MOL   H31238794   6.966   7.209   0.167 -1.0853  0.4517 -3.0414
   72MOL   H31338795   7.094   7.004   0.225 -1.2535  0.7668  0.4209
   72MOL   H31438796   7.200   7.030   0.096 -0.1647  2.3903 -1.1985
   72MOL   H31538797   7.053   6.983   7.732  1.8535  0.4189  1.0431
   72MOL   H31638798   6.913   6.991   0.024 -0.0776  0.1938  1.4930
   72MOL   H31738799   6.952   6.754   7.772  0.3024  1.0906 -0.8287
   72MOL   H31838800   7.033   6.769   0.123  0.1604 -1.4145 -0.5260
   72MOL   H31938801   7.186   6.816   7.680 -0.0250 -1.4729 -0.4795
   72MOL   H32038802   7.252   6.780   0.027  0.2144 -0.7565  1.1586
   72MOL   H32138803   7.379   6.451   0.052  1.3177 -1.4785 -1.2410
   72MOL   H32238804   7.216   6.417   0.046 -1.4044 -0.4738 -0.7677
   72MOL   H32338805   7.334   6.287   0.014 -0.8923  0.2418  1.8389
   72MOL   H32438806   7.426   6.452   7.487  1.8769  0.9025  0.2908
   72MOL   H32538807   7.418   6.291   7.547  3.1470 -1.0513 -0.0746
   72MOL   C32638808   7.117   5.838   7.585  0.0658 -0.9845 -0.5623
   72MOL   C32738809   7.270   5.841   7.587 -0.3049  0.5879 -0.1943
   72MOL   C32838810   7.324   5.957   7.666  0.1340  0.1779  0.4951
   72MOL   C32938811   7.477   5.943   7.712  0.2594 -0.3502  0.1149
   72MOL   C33038812   7.523   6.062   7.790  0.5617 -0.4240  0.5722
   72MOL   O33138813   7.549   6.158   7.696 -0.0051  0.0579 -0.4366
   72MOL   C33238814   7.578   6.281   7.745  0.7466 -0.3514 -0.0856
   72MOL   O33338815   7.604   6.311   0.052  0.0606 -0.1706  0.1289
   72MOL   C33438816   7.568   6.395   7.641  0.2378  0.4332 -0.3075
   72MOL   C33538817   7.668   6.359   7.522  0.0454  0.4801 -0.0675
   72MOL   C33638818   7.602   6.540   7.695  0.1197 -0.4983  0.3947
   72MOL   H33738819   7.085   5.923   7.525 -1.4812 -0.8260  0.4918
   72MOL   H33838820   7.071   5.844   7.683  1.3363 -0.8817  0.0365
   72MOL   H33938821   7.087   5.744   7.539 -2.2901 -0.5047 -0.0585
   72MOL   H34038822   7.296   5.838   7.482  0.8644 -0.2348  0.1024
   72MOL   H34138823   7.306   5.753   7.640 -0.9104  1.6963  2.1411
   72MOL   H34238824   7.266   5.959   7.759  1.1566 -0.3280  1.1570
   72MOL   H34338825   7.309   6.039   7.596 -2.0437 -1.2998 -0.8387
   72MOL   H34438826   7.535   5.925   7.622  2.6243  0.4478  1.4493
   72MOL   H34538827   7.488   5.858   7.781 -1.1059 -0.3552  0.3421
   72MOL   H34638828   7.613   6.044   0.034 -0.7545 -0.2803  2.6941
   72MOL   H34738829   7.445   6.076   0.050  0.0776 -1.1571  0.2142
   72MOL   H34838830   7.635   6.266   7.475  0.3763  0.8361 -1.0212
   72MOL   H34938831   7.770   6.333   7.551 -0.5015  0.6974  2.1534
   72MOL   H35038832   7.648   6.419   7.433 -2.2283  2.2972  1.5918
   72MOL   H35138833   7.541   6.558   7.784  1.0239 -1.4790  1.2296
   72MOL   H35238834   7.553   6.605   7.622 -1.1921 -1.8111  0.0860
   72MOL   C35338835   7.592   6.409   7.159  0.4765 -0.1643  0.6179
   72MOL   C35438836   7.631   6.552   7.132  0.0678 -0.0872 -0.2369
   72MOL   C35538837   7.681   6.644   7.248  0.1569 -0.3052 -0.5875
   72MOL   C35638838   0.016   6.620   7.275 -0.2754  0.6287  0.5324
   72MOL   C35738839   0.072   6.698   7.395 -0.4612 -0.2151  0.4204
   72MOL   O35838840   7.810   6.671   7.508 -0.0189 -0.2378 -0.1258
   72MOL   C35938841   0.041   6.600   7.616  0.3645  0.2139  0.6511
   72MOL   O36038842   0.157   6.556   7.629  0.2009  0.0471 -0.3083
   72MOL   C36138843   7.752   6.592   7.737 -0.6003  0.3217  0.5470
   72MOL   C36238844   7.811   6.507   0.030 -0.1104  0.7125 -0.5222
   72MOL   C36338845   7.721   6.741   7.782  0.5129  0.7297 -0.7694
   72MOL   H36438846   7.676   6.361   7.208  1.0794  0.2253 -0.0326
   72MOL   H36538847   7.566   6.366   7.062 -0.5296 -0.9877  1.2490
   72MOL   H36638848   7.503   6.411   7.222 -0.3307 -0.2585 -0.4851
   72MOL   H36738849   7.695   6.559   7.044  1.0852  2.1309  0.6247
   72MOL   H36838850   7.547   6.604   7.087  0.6221  0.1349 -1.0326
   72MOL   H36938851   7.626   6.614   7.337  1.5721  1.7795  1.0361
   72MOL   H37038852   7.668   6.751   7.230  2.0680  0.0427 -0.0283
   72MOL   H37138853   0.070   6.634   7.181 -0.4957 -0.4230  0.2321
   72MOL   H37238854   0.024   6.514   7.299 -2.3159  0.7589  1.8775
   72MOL   H37338855   0.176   6.675   7.418 -0.1934  0.2322 -0.3000
   72MOL   H37438856   0.066   6.807   7.388 -0.9451 -0.1754  1.3872
   72MOL   H37538857   0.087   6.560   0.063 -0.0662 -0.7623  1.8418
   72MOL   H37638858   7.750   6.502   0.120 -1.3177  1.9880 -1.2356
   72MOL   H37738859   0.034   6.407   0.007 -1.6169  0.4231 -1.7440
   72MOL   H37838860   7.700   6.794   7.689 -3.2556 -0.2432 -0.5474
   72MOL   H37938861   7.624   6.751   0.017  1.7719 -2.2604  2.5314
   72MOL   C38038862   7.298   6.479   0.456 -0.2968 -0.6163 -0.4191
   72MOL   C38138863   7.328   6.552   0.321 -0.1504  0.3986 -0.5406
   72MOL   C38238864   7.474   6.581   0.291  0.4410  0.2361 -0.4497
   72MOL   C38338865   7.546   6.666   0.394 -0.5373  0.0609  0.2485
   72MOL   C38438866   7.699   6.682   0.363 -0.4106 -0.3682  0.1439
   72MOL   O38538867   7.716   6.740   0.237  0.3218 -0.0880 -0.5707
   72MOL   C38638868   0.018   6.785   0.189  0.0199  0.2064  0.3561
   72MOL   O38738869   0.125   6.781   0.255  0.8496  0.6480  0.0482
   72MOL   C38838870   0.005   6.837   0.048 -0.8625  0.2712  0.3978
   72MOL   C38938871   0.151   6.837   7.809 -0.1223  0.2616  0.0032
   72MOL   C39038872   7.778   6.991   0.046  0.6357 -0.2459  0.0881
   72MOL   H39138873   7.190   6.479   0.471 -0.2427  3.0719  0.4598
   72MOL   H39238874   7.348   6.382   0.456 -0.4113 -0.7069  2.1830
   72MOL   H39338875   7.338   6.542   0.536  1.1465 -0.3565 -1.3174
   72MOL   H39438876   7.288   6.653   0.327 -3.0050 -0.6802 -0.7409
   72MOL   H39538877   7.280   6.500   0.238 -1.1256 -0.2040  0.3955
   72MOL   H39638878   7.540   6.499   0.266  0.8028  0.2309  0.4884
   72MOL   H39738879   7.479   6.629   0.194 -2.3987  0.8972 -0.3328
   72MOL   H39838880   7.507   6.767   0.391 -2.9681 -0.8232  0.7590
   72MOL   H39938881   7.542   6.615   0.491  2.3466 -1.6936 -0.4851
   72MOL   H40038882   7.752   6.590   0.389 -0.9039 -0.5140  0.6382
   72MOL   H40138883   7.743   6.757   0.428 -0.6710 -0.3937  0.3521
   72MOL   H40238884   0.156   6.872   7.706  2.0981 -0.7218 -0.2615
   72MOL   H40338885   0.176   6.731   7.805 -1.2974 -0.0867  1.2128
   72MOL   H40438886   0.216   6.894   0.062 -0.7519  2.7953 -1.4710
   72MOL   H40538887   0.012   7.045   7.779  3.2356  0.2832  1.9076
   72MOL   H40638888   0.017   7.027   0.135  2.5766  0.7638 -1.4331
   72MOL   C40738889   0.214   7.194   7.457 -0.6335  0.0886  0.2290
   72MOL   C40838890   0.063   7.222   7.466  0.1394 -0.8270 -0.1644
   72MOL   C40938891   7.784   7.137   7.374 -0.0032 -0.0361  0.4904
   72MOL   C41038892   7.631   7.151   7.401 -0.5449 -0.1912 -0.2907
   72MOL   C41138893   7.572   7.043   7.500  0.1715  0.2110  0.2229
   72MOL   O41238894   7.623   7.070   7.623  0.5705  0.0865  0.6553
   72MOL   C41338895   7.554   7.025   7.735  0.5787 -0.1243  0.6050
   72MOL   O41438896   7.449   6.962   7.722 -0.4382  0.4010  0.1458
   72MOL   C41538897   7.634   7.057   0.053  0.0219  0.1056  0.1446
   72MOL   C41638898   7.567   6.990   0.168  0.3061 -0.0412 -0.2856
   72MOL   C41738899   7.656   7.212   0.063  1.1886 -1.0012  0.2802
   72MOL   H41838900   0.248   7.094   7.482  1.7063  0.8374  0.1715
   72MOL   H41938901   0.231   7.210   7.350 -0.8417 -2.3261 -0.1908
   72MOL   H42038902   0.283   7.266   7.501  0.8150 -1.2003  0.1242
   72MOL   H42138903   0.038   7.325   7.445 -2.2709 -1.2222  0.6382
   72MOL   H42238904   0.015   7.209   7.564  0.6884  3.4382  0.7377
   72MOL   H42338905   7.800   7.155   7.267  2.1396  0.6950  0.9060
   72MOL   H42438906   0.003   7.035   7.395 -1.6271 -0.3268  1.7425
   72MOL   H42538907   7.585   7.160   7.302 -2.6554  1.2046  0.7779
   72MOL   H42638908   7.599   7.241   7.452 -0.2945 -1.9617  3.1142
   72MOL   H42738909   7.463   7.048   7.497  0.2256  0.7417 -0.8561
   72MOL   H42838910   7.592   6.943   7.461  0.8541  0.7506 -0.8115
   72MOL   H42938911   7.546   6.884   0.148 -1.6798  0.6397 -1.9809
   72MOL   H43038912   7.475   7.045   0.187  0.1432 -1.0566  2.1709
   72MOL   H43138913   7.623   7.001   0.261  0.7277  2.3783 -0.8123
   72MOL   H43238914   7.699   7.252   7.786 -0.7816  1.8717  0.5615
   72MOL   H43338915   7.740   7.222   0.133 -0.5338  1.4630  2.0685
   72MOL   C43438916   7.074   6.886   0.502  0.9419  0.3730 -0.2118
   72MOL   C43538917   7.079   7.038   0.494  0.0616 -0.5759  0.3850
   72MOL   C43638918   7.219   7.093   0.469  0.7506 -0.8328 -0.4013
   72MOL   C43738919   7.224   7.250   0.467  0.5885 -0.2705 -0.3317
   72MOL   C43838920   7.370   7.301   0.439  0.1849  1.0209 -0.1441
   72MOL   O43938921   7.396   7.309   0.301 -0.7816 -0.8035 -0.1810
   72MOL   C44038922   7.527   7.290   0.263  0.0808 -0.0682 -0.4217
   72MOL   O44138923   7.618   7.269   0.345  0.1639 -0.7597  0.3952
   72MOL   C44238924   7.550   7.316   0.112 -0.0995 -1.7153  0.6732
   72MOL   C44338925   7.414   7.303   0.037 -0.3907 -0.8571  0.2167
   72MOL   C44438926   7.614   7.464   0.090  0.4749 -0.1286  0.3622
   72MOL   H44538927   7.127   6.836   0.583  1.4342  0.8308 -0.2464
   72MOL   H44638928   6.970   6.855   0.507  1.1593 -0.3018  0.1507
   72MOL   H44738929   7.113   6.841   0.410 -1.5234  0.0041 -1.1044
   72MOL   H44838930   7.000   7.073   0.427  1.9704  2.1135 -0.5525
   72MOL   H44938931   7.050   7.078   0.592  0.4828 -0.0109  0.2815
   72MOL   H45038932   7.289   7.059   0.545  1.4498 -2.5619 -1.7821
   72MOL   H45138933   7.266   7.053   0.379  0.5463 -4.6890  1.1157
   72MOL   H45238934   7.199   7.291   0.565 -2.8512  0.2292 -1.3645
   72MOL   H45338935   7.159   7.306   0.399  1.0597  0.4545 -0.1844
   72MOL   H45438936   7.440   7.231   0.485 -1.7168  0.7311  2.4088
   72MOL   H45538937   7.378   7.405   0.472 -1.8379  1.3071 -0.4834
   72MOL   H45638938   7.368   7.205   0.044  2.5144 -2.1933  1.7450
   72MOL   H45738939   7.339   7.373   0.073 -0.4847 -1.6466  1.6020
   72MOL   H45838940   7.428   7.326   7.746 -1.1312  0.4094  0.3807
   72MOL   H45938941   7.589   7.487   7.801  1.5370 -0.4748  0.0211
   72MOL   H46038942   7.723   7.462   0.079  0.4341 -2.6096  0.3376
   72MOL   C46138943   6.983   7.522   0.607 -0.0028 -0.4027 -0.0281
   72MOL   C46238944   6.939   7.631   0.505 -0.9329  0.0380 -0.0963
   72MOL   C46338945   7.016   7.607   0.375 -0.0768  0.0899  0.1893
   72MOL   C46438946   7.168   7.622   0.380  0.1947 -0.3789  0.4170
   72MOL   C46538947   7.229   7.614   0.239  0.7304  0.0215  0.2103
   72MOL   O46638948   7.363   7.581   0.244 -0.3772 -1.1298  0.3062
   72MOL   C46738949   7.445   7.650   0.158  0.5779  0.4088 -0.2415
   72MOL   O46838950   7.399   7.722   0.072  0.7173 -0.2233 -0.0124
   72MOL   C46938951   7.593   7.607   0.161 -0.4495  0.0665  0.7550
   72MOL   C47038952   7.670   7.710   0.071 -0.4111 -0.5920 -0.4484
   72MOL   C47138953   7.659   7.603   0.299  0.0167 -0.8559 -0.1143
   72MOL   H47238954   6.909   7.506   0.685 -0.8866 -2.1538 -1.1786
   72MOL   H47338955   7.081   7.536   0.653 -1.0806 -0.3400  2.3171
   72MOL   H47438956   6.989   7.422   0.563  0.8214 -1.6609  2.8538
   72MOL   H47538957   6.963   7.730   0.541 -0.6719  0.1624 -0.6067
   72MOL   H47638958   6.831   7.648   0.503 -0.9235  0.1714  0.5408
   72MOL   H47738959   6.970   7.680   0.308  0.2998  0.1298 -0.0231
   72MOL   H47838960   6.992   7.507   0.341  5.6736 -2.3019  2.6651
   72MOL   H47938961   7.210   7.545   0.446  0.6130  2.1018  3.1359
   72MOL   H48038962   7.210   7.718   0.410  0.3995 -0.3357  0.0008
   72MOL   H48138963   7.173   7.533   0.190  0.5739  0.4657 -0.3478
   72MOL   H48238964   7.207   7.704   0.182 -2.6060  1.2214  3.1978
   72MOL   H48338965   7.777   7.704   0.088 -0.5852  1.1535  1.3941
   72MOL   H48438966   7.646   7.814   0.093  1.5207 -0.1392 -0.4614
   72MOL   H48538967   7.651   7.697   7.778  0.8440 -1.3675 -0.5832
   72MOL   H48638968   7.763   7.579   0.278  0.3670 -2.7880  3.5542
   72MOL   H48738969   7.618   7.519   0.354  0.8193  0.2028  2.1567
   72MOL   C48838970   7.213   0.258   0.425  0.1141 -0.5516 -0.2008
   72MOL   C48938971   7.282   0.215   0.297 -0.2773  0.3225  0.3584
   72MOL   C49038972   7.365   0.324   0.233  0.0543  0.7094  1.1113
   72MOL   C49138973   7.502   0.354   0.287 -0.4893  0.7400  0.6987
   72MOL   C49238974   7.608   0.238   0.265 -0.1438  0.6892 -0.3776
   72MOL   O49338975   7.592   0.113   0.332  0.0180 -0.1147  0.0725
   72MOL   C49438976   7.705   0.039   0.350  0.1623  0.2325 -0.7973
   72MOL   O49538977   0.002   0.079   0.318 -0.1841 -0.4145 -0.2881
   72MOL   C49638978   7.669   7.713   0.405 -1.4311 -0.5235 -0.9829
   72MOL   C49738979   7.791   7.687   0.497 -0.5624 -0.7038  0.2384
   72MOL   C49838980   7.536   7.711   0.486 -0.6118 -0.2346 -0.2317
   72MOL   H49938981   7.174   0.176   0.485 -0.0442  0.2610  0.8334
   72MOL   H50038982   7.282   0.303   0.496 -1.0279  0.8677  0.0500
   72MOL   H50138983   7.127   0.323   0.404  1.3197  0.4681 -2.1454
   72MOL   H50238984   7.208   0.177   0.226  0.4697  0.0475 -0.2844
   72MOL   H50338985   7.345   0.132   0.330 -1.0520 -0.0253  0.9665
   72MOL   H50438986   7.390   0.291   0.132  1.7405  0.0369  1.7251
   72MOL   H50538987   7.311   0.418   0.221 -0.7930 -0.0867 -1.7116
   72MOL   H50638988   7.506   0.380   0.392 -0.7700 -3.8647  1.9534
   72MOL   H50738989   7.541   0.442   0.236 -0.0433  0.4080  0.4648
   72MOL   H50838990   7.626   0.219   0.159 -0.2034  2.2185 -0.6631
   72MOL   H50938991   7.696   0.274   0.318  0.7534 -2.0841  0.1422
   72MOL   H51038992   7.780   7.582   0.526  2.7660 -0.7946  1.4072
   72MOL   H51138993   7.802   7.746   0.588  1.0906 -3.1875  1.7143
   72MOL   H51238994   0.068   7.684   0.438 -0.2424 -0.9838  0.7435
   72MOL   H51338995   7.482   7.620   0.463 -0.8960  0.2478 -1.4905
   72MOL   H51438996   7.461   7.776   0.441 -1.3457  0.0364  1.3233
   72MOL   C51538997   7.610   6.992   0.658  0.0296 -0.0896 -0.1240
   72MOL   C51638998   7.526   7.027   0.776  0.6200  0.4515 -0.4853
   72MOL   C51738999   7.569   7.161   0.844  0.5811  0.7494  0.1807
   72MOL   C51839000   7.529   7.277   0.750  0.3471 -0.1107  0.2635
   72MOL   C51939001   7.575   7.410   0.807 -0.5804  0.0068 -0.2305
   72MOL   O52039002   7.536   7.519   0.722  0.1445  0.8089 -0.3551
   72MOL   C52139003   7.585   7.639   0.734  0.3210  0.2726 -0.2647
   72MOL   O52239004   7.670   7.678   0.815 -0.4263  0.3190  0.5027
   72MOL   C52339005   7.525   7.752   0.641  0.8082  0.0408 -0.3406
   72MOL   C52439006   7.369   7.747   0.688 -0.0541  0.8026  0.8989
   72MOL   C52539007   7.561   0.088   0.661  0.6985 -0.0954  0.2928
   72MOL   H52639008   7.716   6.986   0.682 -0.4438 -0.9265  1.8870
   72MOL   H52739009   7.588   6.889   0.628  1.1783 -0.3943  0.0411
   72MOL   H52839010   7.597   7.059   0.573  0.0807  1.1573  0.8334
   72MOL   H52939011   7.420   7.035   0.750  0.0396 -0.7088  1.3935
   72MOL   H53039012   7.528   6.948   0.850 -2.2409  0.9670  0.2211
   72MOL   H53139013   7.510   7.168   0.936  1.9609  1.5568  1.0255
   72MOL   H53239014   7.675   7.173   0.868  0.7326  2.6079 -1.3371
   72MOL   H53339015   7.421   7.277   0.734 -0.1105  1.1185  3.0051
   72MOL   H53439016   7.569   7.261   0.650 -0.9558  0.0789 -0.3010
   72MOL   H53539017   7.525   7.419   0.903 -0.3654 -0.4368 -0.0784
   72MOL   H53639018   7.682   7.412   0.827 -0.6446 -1.7691  0.3104
   72MOL   H53739019   7.330   7.811   0.768 -2.5088  1.5695 -0.8254
   72MOL   H53839020   7.330   7.648   0.709  0.4424  0.3580 -0.2476
   72MOL   H53939021   7.294   7.773   0.612  2.5806 -1.6758 -2.7015
   72MOL   H54039022   7.661   0.106   0.623  0.7600 -0.5453  0.2365
   72MOL   H54139023   7.546   0.129   0.761 -1.3798  2.3689 -0.9832
   72MOL   H54239024   7.505   0.153   0.594 -0.5698  1.9597  3.2717
   73MOL     C139025   4.410   7.198   1.012  0.1598  0.1755  0.0025
   73MOL     C239026   4.464   7.066   0.946  0.5983 -0.6995 -0.0559
   73MOL     C339027   4.373   6.949   0.950 -0.1345 -0.5598 -0.1944
   73MOL     C439028   4.443   6.810   0.950  0.2309 -0.7129 -0.3598
   73MOL     C539029   4.377   6.697   0.870 -0.1907  0.0898 -1.1015
   73MOL     O639030   4.469   6.586   0.874 -0.5799 -0.2524 -0.5309
   73MOL     C739031   4.451   6.484   0.789  0.1929  0.3742  0.2483
   73MOL     O839032   4.368   6.487   0.698  0.5058 -0.5594 -0.7518
   73MOL     C939033   4.522   6.355   0.819 -1.6673  0.8586 -0.2714
   73MOL    C1039034   4.447   6.294   0.945 -0.1876  0.2609  0.1228
   73MOL    C1139035   4.682   6.353   0.844  0.5923 -0.0970  0.0871
   73MOL    H1239036   4.427   7.202   1.120 -1.6792  1.9971  0.2566
   73MOL    H1339037   4.306   7.214   0.983 -0.0533 -2.6395 -0.9533
   73MOL    H1439038   4.458   7.287   0.971  2.1124 -1.0374 -0.4430
   73MOL    H1539039   4.478   7.097   0.843  0.6993 -0.8347 -0.0816
   73MOL    H1639040   4.562   7.049   0.990  0.9801 -2.3224 -1.5195
   73MOL    H1739041   4.314   6.967   1.040  2.0679 -0.2687  1.2163
   73MOL    H1839042   4.288   6.949   0.882 -1.1786 -1.9645  1.0738
   73MOL    H1939043   4.446   6.784   1.056 -0.4000 -2.5329 -0.7696
   73MOL    H2039044   4.549   6.823   0.924  0.5038 -1.2560  0.4580
   73MOL    H2139045   4.291   6.667   0.931  0.0768  3.2479  0.9939
   73MOL    H2239046   4.349   6.733   0.771 -0.3255  1.3990 -0.6044
   73MOL    H2339047   4.450   6.185   0.953  1.1173  0.2330 -0.5666
   73MOL    H2439048   4.338   6.301   0.943 -0.2816 -0.9000  0.8589
   73MOL    H2539049   4.481   6.318   1.045  1.2032 -0.2938 -0.2025
   73MOL    H2639050   4.718   6.270   0.905 -0.2006  1.2940  2.5088
   73MOL    H2739051   4.682   6.440   0.910  0.7609  0.5281 -0.7268
   73MOL    H2839052   4.502   6.293   0.732  0.8042 -1.3979  0.6624
   73MOL    C2939053   5.618   6.385   0.565  0.4245  0.0416  0.4157
   73MOL    C3039054   5.473   6.373   0.507  1.1969  0.3220 -0.7794
   73MOL    C3139055   5.389   6.387   0.635  0.6300  1.0087  0.7334
   73MOL    C3239056   5.237   6.405   0.606  0.1582  0.2846 -0.0175
   73MOL    C3339057   5.161   6.386   0.736  0.0854 -0.7589 -0.1190
   73MOL    O3439058   5.025   6.406   0.696 -0.4889  0.2438  0.5120
   73MOL    C3539059   4.934   6.370   0.783  0.0574  0.0894  0.4643
   73MOL    O3639060   4.958   6.324   0.896 -0.1890  0.2128 -0.2138
   73MOL    C3739061   4.788   6.383   0.732  0.6985 -1.0238 -0.1447
   73MOL    C3839062   4.774   6.524   0.673 -0.0830  0.2184  0.2706
   73MOL    C3939063   4.769   6.294   0.602 -0.3516 -0.1371 -0.3747
   73MOL    H4039064   5.641   6.491   0.576 -0.5432  0.6174 -2.6274
   73MOL    H4139065   5.635   6.344   0.665  0.8306  2.5384  1.4032
   73MOL    H4239066   5.694   6.336   0.503 -0.9762  0.0132 -1.3199
   73MOL    H4339067   5.467   6.270   0.474 -0.1197  0.6337 -1.5517
   73MOL    H4439068   5.446   6.444   0.429  1.0417  0.6882 -0.3965
   73MOL    H4539069   5.415   6.475   0.695  0.2454  1.3986  0.3267
   73MOL    H4639070   5.405   6.303   0.703 -2.8134 -0.4589 -0.1583
   73MOL    H4739071   5.234   6.505   0.563  0.1361  1.2035  2.0811
   73MOL    H4839072   5.220   6.328   0.531  0.2587 -0.5872  0.8543
   73MOL    H4939073   5.184   6.455   0.817 -0.6223  1.1410 -1.4930
   73MOL    H5039074   5.177   6.289   0.782 -1.1543  0.2969  2.6476
   73MOL    H5139075   4.841   6.532   0.588  1.0875  1.0028  1.2574
   73MOL    H5239076   4.803   6.590   0.755  3.0098 -2.2367  1.2548
   73MOL    H5339077   4.670   6.538   0.643  0.2732  0.4085 -0.8883
   73MOL    H5439078   4.850   6.328   0.537  0.2707  0.2182  0.5667
   73MOL    H5539079   4.673   6.330   0.565 -0.3981 -0.4593 -0.5657
   73MOL    C5639080   4.224   5.741   0.387 -0.4660  0.1224 -0.5116
   73MOL    C5739081   4.355   5.815   0.361  0.0127  0.0471 -0.1539
   73MOL    C5839082   4.359   5.960   0.413 -0.2242 -0.2028 -0.0671
   73MOL    C5939083   4.344   5.962   0.566 -0.3034 -0.0577 -0.2806
   73MOL    C6039084   4.386   6.094   0.626  0.6548 -0.0052  0.5258
   73MOL    O6139085   4.517   6.120   0.584 -0.2655 -0.2174  0.4857
   73MOL    C6239086   4.630   6.090   0.662 -0.0866 -0.4671 -0.7202
   73MOL    O6339087   4.618   6.035   0.769 -0.1741  0.0160 -0.1951
   73MOL    C6439088   4.761   6.134   0.603 -0.6589  0.0156 -0.7609
   73MOL    C6539089   4.874   6.081   0.694  0.2954  0.3890  0.3341
   73MOL    C6639090   4.771   6.089   0.457 -0.3120  0.1915 -1.0098
   73MOL    H6739091   4.181   5.749   0.487 -0.7442 -3.4364 -0.2714
   73MOL    H6839092   4.244   5.635   0.368 -0.7588  0.1019 -0.7155
   73MOL    H6939093   4.138   5.759   0.323 -1.6610  0.1805  1.0962
   73MOL    H7039094   4.435   5.756   0.406  0.5286  1.5073  0.8596
   73MOL    H7139095   4.365   5.822   0.253  2.4797  0.5240  0.0798
   73MOL    H7239096   4.451   6.011   0.388 -0.4964  0.6655  0.6724
   73MOL    H7339097   4.279   6.017   0.364  0.2952 -1.2511 -2.2117
   73MOL    H7439098   4.402   5.888   0.620  3.2309  1.1784 -2.2359
   73MOL    H7539099   4.240   5.941   0.594 -0.2545 -1.9810 -1.4260
   73MOL    H7639100   4.318   6.172   0.594  2.7171  2.2196  1.4384
   73MOL    H7739101   4.376   6.090   0.735 -1.3504 -1.4501  0.3275
   73MOL    H7839102   4.849   6.109   0.796 -0.4698  0.7279  0.0522
   73MOL    H7939103   4.976   6.100   0.659  0.1997 -0.6520 -0.5393
   73MOL    H8039104   4.867   5.972   0.700  1.3663  0.2476 -0.7112
   73MOL    H8139105   4.844   6.153   0.407  0.6319 -0.4159 -0.4311
   73MOL    H8239106   4.678   6.125   0.414 -0.8612  0.4255  0.3708
   73MOL    C8339107   5.203   6.288   0.087  0.7563  0.7492 -0.4596
   73MOL    C8439108   5.303   6.158   0.102 -0.2710  0.2155  0.1745
   73MOL    C8539109   5.246   6.040   0.185  0.2373 -0.0029 -0.3318
   73MOL    C8639110   5.252   6.063   0.342 -0.9802 -0.9804 -0.7314
   73MOL    C8739111   5.171   5.955   0.409  1.0856 -0.2420 -0.3981
   73MOL    O8839112   5.035   5.976   0.380  0.3124  0.0158  0.0467
   73MOL    C8939113   4.942   5.905   0.441 -0.8936 -0.3012 -0.3757
   73MOL    O9039114   4.979   5.817   0.521  0.2966 -0.1325  0.6238
   73MOL    C9139115   4.799   5.939   0.407 -0.7359 -0.3057 -1.0444
   73MOL    C9239116   4.710   5.844   0.488 -0.0394 -0.7932  0.5602
   73MOL    C9339117   4.780   5.944   0.260 -0.2951 -0.8479 -0.0702
   73MOL    H9439118   5.114   6.263   0.030  1.5334 -0.7491 -1.0475
   73MOL    H9539119   5.162   6.318   0.184  1.7966  0.0300  0.2226
   73MOL    H9639120   5.257   6.365   0.033  0.8712 -1.0534 -3.0030
   73MOL    H9739121   5.402   6.184   0.139 -0.3039  1.1433 -0.3550
   73MOL    H9839122   5.319   6.137   7.810 -0.2497  0.5772  0.1030
   73MOL    H9939123   5.301   5.950   0.158  0.0012  0.1162 -1.2031
   73MOL   H10039124   5.145   6.023   0.147  0.7975 -0.6132 -1.5769
   73MOL   H10139125   5.216   6.162   0.371 -0.9360 -0.9600 -0.7425
   73MOL   H10239126   5.357   6.052   0.368 -0.8071  1.5066 -0.2906
   73MOL   H10339127   5.179   5.981   0.515 -0.7027  1.3928 -0.6404
   73MOL   H10439128   5.198   5.852   0.386  1.9898 -0.5198  1.7999
   73MOL   H10539129   4.732   5.743   0.455  1.3579  0.8262 -3.7789
   73MOL   H10639130   4.602   5.860   0.491  0.1050  0.0332  1.8881
   73MOL   H10739131   4.741   5.835   0.592  0.5941  0.0516  0.4497
   73MOL   H10839132   4.684   5.993   0.244  0.2170 -0.0592 -0.8107
   73MOL   H10939133   4.845   6.018   0.212  0.6342 -3.0009 -2.2920
   73MOL   C11039134   5.144   6.283   7.472 -0.2903  0.4652  0.2694
   73MOL   C11139135   5.177   6.142   7.453 -0.2036  0.0918 -0.4664
   73MOL   C11239136   5.064   6.045   7.477  0.6326 -1.1593 -0.1742
   73MOL   C11339137   5.056   6.021   7.632  0.2304 -0.5004  0.1003
   73MOL   C11439138   4.932   5.938   7.666  0.1270  0.2902  0.1634
   73MOL   O11539139   4.896   5.907   7.800  0.4813 -0.0228 -0.0372
   73MOL   C11639140   4.772   5.863   0.024 -0.2470 -0.3507  0.4642
   73MOL   O11739141   4.681   5.850   7.756 -0.0213  0.3067  0.6696
   73MOL   C11839142   4.772   5.810   0.169  0.7074  0.8587 -0.5294
   73MOL   C11939143   4.634   5.741   0.191  0.1299  0.3358 -0.2217
   73MOL   C12039144   4.899   5.709   0.195  0.0428 -0.4341  0.3088
   73MOL   H12139145   5.100   6.284   7.572 -1.3954 -2.0814 -0.1565
   73MOL   H12239146   5.234   6.345   7.469 -0.5245  0.7574 -3.6749
   73MOL   H12339147   5.075   6.328   7.401 -1.0253  0.1328  0.7670
   73MOL   H12439148   5.214   6.136   7.350  1.4329  1.2202  0.0228
   73MOL   H12539149   5.260   6.112   7.518 -1.2167 -1.9107 -0.0616
   73MOL   H12639150   4.974   6.099   7.450 -1.3855 -4.6442 -0.6748
   73MOL   H12739151   5.069   5.953   7.418  1.4502 -0.8737 -0.5637
   73MOL   H12839152   5.036   6.109   7.693  1.7407  0.1997 -0.3834
   73MOL   H12939153   5.143   5.976   7.680 -1.0906 -0.2834  2.8318
   73MOL   H13039154   4.846   5.988   7.621  0.3989  1.1273  0.5643
   73MOL   H13139155   4.945   5.842   7.616  2.0218  0.0448  1.0986
   73MOL   H13239156   4.552   5.812   0.194 -1.4645 -1.4721  0.6966
   73MOL   H13339157   4.619   5.678   0.103 -0.7219 -0.3929  0.4355
   73MOL   H13439158   4.636   5.666   0.271  0.3280 -0.0211 -0.5598
   73MOL   H13539159   4.990   5.768   0.197  0.8912 -1.5864 -2.3226
   73MOL   H13639160   4.890   5.683   0.300  1.0360  2.4036  1.1398
   73MOL   C13739161   4.408   5.462   0.676 -0.1585  0.6857 -0.5376
   73MOL   C13839162   4.503   5.343   0.677  0.5575 -0.2428 -0.3589
   73MOL   C13939163   4.557   5.316   0.541 -0.2650  0.1376  0.1533
   73MOL   C14039164   4.661   5.407   0.474  0.1266 -0.6794 -0.2883
   73MOL   C14139165   4.693   5.347   0.335 -1.1054  0.5753 -0.0582
   73MOL   O14239166   4.808   5.419   0.284  0.6220  0.0672 -0.2983
   73MOL   C14339167   4.810   5.464   0.148  0.0118  0.3314 -0.1867
   73MOL   O14439168   4.738   5.429   0.057  0.8718 -0.4596 -0.4722
   73MOL   C14539169   4.925   5.568   0.122 -0.1328 -0.3256 -0.1407
   73MOL   C14639170   4.938   5.592   7.789  0.4643  0.9470  0.4756
   73MOL   C14739171   5.053   5.511   0.185 -0.2590 -0.0886 -0.0442
   73MOL   H14839172   4.350   5.462   0.584 -1.0589  1.2847  0.0185
   73MOL   H14939173   4.455   5.560   0.680  0.6099  0.2530  1.6111
   73MOL   H15039174   4.345   5.450   0.764  0.0618 -2.1107 -0.7176
   73MOL   H15139175   4.455   5.252   0.713  1.9757  0.0104  2.2564
   73MOL   H15239176   4.582   5.360   0.750 -0.9782  1.5839  0.9312
   73MOL   H15339177   4.607   5.220   0.552  1.8114  1.2134  0.5686
   73MOL   H15439178   4.475   5.302   0.472 -1.7969  1.0009  1.7698
   73MOL   H15539179   4.617   5.506   0.462  0.0467 -0.5999  0.6102
   73MOL   H15639180   4.758   5.423   0.522 -0.9464  2.1423  1.0067
   73MOL   H15739181   4.613   5.369   0.264 -1.8928  0.2612  0.7176
   73MOL   H15839182   4.703   5.240   0.349 -1.2891  0.8688  2.5577
   73MOL   H15939183   4.965   5.505   7.729 -2.0019  0.8285 -0.5523
   73MOL   H16039184   5.011   5.668   7.765 -1.4343  2.2655 -1.3357
   73MOL   H16139185   4.843   5.617   7.741  1.3544  1.2507 -1.1469
   73MOL   H16239186   5.126   5.593   0.183  0.3423 -0.6376 -0.7684
   73MOL   H16339187   5.034   5.496   0.291  1.4773  0.3258  0.3457
   73MOL   C16439188   5.658   5.944   7.568  0.3269  0.4111 -0.1815
   73MOL   C16539189   5.544   5.881   7.657  0.1795  0.4967 -0.0290
   73MOL   C16639190   5.427   5.814   7.587  0.3752 -0.5648  0.1273
   73MOL   C16739191   5.318   5.752   7.680 -0.3380  0.0040  0.2609
   73MOL   C16839192   5.343   5.601   7.715 -0.0365 -0.4015 -0.5745
   73MOL   O16939193   5.245   5.562   7.808 -0.2655 -0.2887  0.1811
   73MOL   C17039194   5.236   5.428   0.022  0.4741 -0.0082 -0.3277
   73MOL   O17139195   5.309   5.349   7.792  0.0435  0.2523 -0.0398
   73MOL   C17239196   5.138   5.391   0.132 -0.4116 -0.0507 -0.6077
   73MOL   C17339197   5.047   5.281   0.062 -0.9531 -0.4092 -0.0638
   73MOL   C17439198   5.228   5.321   0.242  0.3788  0.2508 -0.1052
   73MOL   H17539199   5.617   6.026   7.509 -0.5310  1.9989  2.4930
   73MOL   H17639200   5.700   5.865   7.507 -0.8496 -0.6771  0.3929
   73MOL   H17739201   5.734   5.977   7.640 -0.9251 -0.1222  1.4208
   73MOL   H17839202   5.515   5.959   7.727 -0.6932  0.3324 -0.2027
   73MOL   H17939203   5.588   5.809   7.727  1.8458  0.2627 -1.2864
   73MOL   H18039204   5.374   5.892   7.532  0.1486  1.0123  2.5186
   73MOL   H18139205   5.468   5.742   7.516  0.5060 -0.2834 -0.0887
   73MOL   H18239206   5.227   5.767   7.622 -0.2732  1.3907  0.5057
   73MOL   H18339207   5.304   5.801   7.777  1.4772 -1.5010  1.3337
   73MOL   H18439208   5.442   5.588   7.758 -0.8336  2.1591  2.2181
   73MOL   H18539209   5.324   5.547   7.623 -0.7485 -1.7057  0.3169
   73MOL   H18639210   5.109   5.196   0.032 -0.2295 -0.2687  1.0229
   73MOL   H18739211   4.997   5.314   7.785  1.5813 -0.1235 -1.4152
   73MOL   H18839212   4.981   5.239   0.137 -1.1570  0.9534  0.5339
   73MOL   H18939213   5.158   5.265   0.304  0.2630 -0.9319 -1.2882
   73MOL   H19039214   5.290   5.243   0.197  2.1788 -0.6070  3.6659
   73MOL   C19139215   5.010   5.112   0.869 -0.2673  0.8143  0.4908
   73MOL   C19239216   5.025   5.259   0.855 -0.1111  0.2076  0.4423
   73MOL   C19339217   5.014   5.315   0.715  0.4763  0.8677  0.0549
   73MOL   C19439218   5.048   5.463   0.714  0.4616 -0.1296 -0.2240
   73MOL   C19539219   5.056   5.511   0.571  1.0584  0.5386  0.1626
   73MOL   O19639220   5.156   5.437   0.504  0.1079  0.1354  0.0892
   73MOL   C19739221   5.252   5.497   0.428  0.4304  0.2998 -0.1753
   73MOL   O19839222   5.264   5.619   0.421  0.1425  0.3065  0.2686
   73MOL   C19939223   5.326   5.401   0.335 -0.6844  1.0274  0.1430
   73MOL   C20039224   5.436   5.482   0.250  0.3350  0.5086  0.4316
   73MOL   C20139225   5.402   5.288   0.426  0.2049  0.4920 -0.1351
   73MOL   H20239226   5.034   5.097   0.974 -0.6068 -1.1635  0.3051
   73MOL   H20339227   4.906   5.084   0.851 -0.0740  1.6470 -2.1119
   73MOL   H20439228   5.092   5.061   0.818  0.7455  0.4815  2.3924
   73MOL   H20539229   5.121   5.277   0.904 -0.1689  0.8654  0.3169
   73MOL   H20639230   4.960   5.316   0.921 -1.4642 -0.7901  0.0085
   73MOL   H20739231   4.911   5.301   0.683 -0.7846  3.0134  2.9058
   73MOL   H20839232   5.064   5.256   0.639 -2.3008  1.3786 -2.2883
   73MOL   H20939233   4.973   5.525   0.764  1.5832 -0.1784  1.5822
   73MOL   H21039234   5.147   5.486   0.753  1.3826 -0.9387 -2.0219
   73MOL   H21139235   4.963   5.509   0.514  0.5963 -0.6134  0.9253
   73MOL   H21239236   5.083   5.616   0.577 -1.3147  1.1673  0.2855
   73MOL   H21339237   5.404   5.577   0.208  0.2737  0.7069  0.9312
   73MOL   H21439238   5.477   5.419   0.170  1.9086  1.0376  0.8046
   73MOL   H21539239   5.524   5.501   0.312 -0.3936  1.3447  1.2127
   73MOL   H21639240   5.434   5.207   0.361 -0.5812  0.7716 -0.8780
   73MOL   H21739241   5.316   5.240   0.473 -0.2408  1.0262 -0.3953
   73MOL   C21839242   5.673   6.031   0.401 -0.6920  0.3450  0.0072
   73MOL   C21939243   5.635   5.910   0.325  0.0037 -0.3776 -0.3291
   73MOL   C22039244   5.590   5.810   0.432 -0.5820 -0.2740 -0.2783
   73MOL   C22139245   5.711   5.740   0.491  0.0627 -0.3903 -0.3343
   73MOL   C22239246   5.670   5.633   0.598  0.1294 -1.0730 -0.4686
   73MOL   O22339247   5.626   5.517   0.540 -0.5979  0.0550  0.1744
   73MOL   C22439248   5.519   5.445   0.596 -0.1218 -0.1072 -0.0362
   73MOL   O22539249   5.440   5.482   0.684 -0.1182 -0.0165  0.2165
   73MOL   C22639250   5.515   5.306   0.537 -0.1609  0.5854  0.8384
   73MOL   C22739251   5.650   5.266   0.473  0.8096 -0.4167 -0.3893
   73MOL   C22839252   5.471   5.203   0.651 -0.3983  0.0979  0.3230
   73MOL   H22939253   5.757   6.012   0.467  1.2247  0.6106 -2.2813
   73MOL   H23039254   5.696   6.108   0.327  1.6464 -0.8121 -0.5102
   73MOL   H23139255   5.588   6.066   0.460 -1.2430 -1.7980  0.5282
   73MOL   H23239256   5.724   5.870   0.275  0.4942  0.4922 -0.1710
   73MOL   H23339257   5.561   5.927   0.246  1.4196  0.0089 -1.6084
   73MOL   H23439258   5.533   5.729   0.386  0.0960  0.3101 -2.2405
   73MOL   H23539259   5.524   5.850   0.509 -0.8110  0.0292 -0.6314
   73MOL   H23639260   5.772   5.693   0.414  1.3650 -2.8039  2.0609
   73MOL   H23739261   5.765   5.817   0.545 -2.8812  0.0455  2.1143
   73MOL   H23839262   5.615   5.676   0.681  0.6155 -1.6903  0.1775
   73MOL   H23939263   5.761   5.612   0.654 -0.0552  1.5782  0.9154
   73MOL   H24039264   5.684   5.332   0.393  0.0259 -0.7369 -0.9918
   73MOL   H24139265   5.649   5.161   0.445 -0.0517  0.1162 -2.4415
   73MOL   H24239266   5.727   5.266   0.551  0.8012 -2.3206 -0.3572
   73MOL   H24339267   5.441   5.113   0.597 -4.5971  1.1109  0.7995
   73MOL   H24439268   5.374   5.239   0.685 -1.3905 -1.2202 -1.0299
   73MOL   C24539269   6.359   5.065   0.491 -0.0811 -0.1329  0.0292
   73MOL   C24639270   6.241   5.126   0.564  0.0762 -0.1081 -0.0620
   73MOL   C24739271   6.126   5.032   0.588 -0.2276  0.8179 -0.4930
   73MOL   C24839272   6.010   5.098   0.665  0.4042 -0.4487  0.1569
   73MOL   C24939273   5.878   5.021   0.667  0.2429 -0.1665 -0.6417
   73MOL   O25039274   5.773   5.101   0.719 -0.1311 -0.0104  1.2542
   73MOL   C25139275   5.653   5.050   0.730 -0.2998 -0.3371  0.0360
   73MOL   O25239276   5.619   4.937   0.695 -0.5503 -0.1394 -0.4059
   73MOL   C25339277   5.549   5.155   0.781 -0.3925 -0.3255  0.4455
   73MOL   C25439278   5.452   5.070   0.871  0.6339  0.1400 -1.0595
   73MOL   C25539279   5.621   5.282   0.854  0.5053  0.5270 -0.3968
   73MOL   H25639280   6.455   5.103   0.526 -0.0466 -0.1900 -0.0029
   73MOL   H25739281   6.359   4.956   0.498 -0.9303 -0.0536  1.4473
   73MOL   H25839282   6.364   5.090   0.385 -1.1878 -0.5718 -0.1329
   73MOL   H25939283   6.284   5.159   0.658  0.6780 -1.9201  0.3108
   73MOL   H26039284   6.196   5.216   0.521  0.6837 -0.1670 -0.8411
   73MOL   H26139285   6.164   4.951   0.650 -0.9179  0.0965 -1.0226
   73MOL   H26239286   6.096   4.973   0.502  0.8540 -1.5131  0.6766
   73MOL   H26339287   6.029   5.105   0.772  1.7471  0.7248 -0.1422
   73MOL   H26439288   5.988   5.197   0.624  0.2997 -0.5630 -0.0629
   73MOL   H26539289   5.852   4.986   0.568  2.1426  0.6206 -1.4374
   73MOL   H26639290   5.897   4.934   0.729 -0.7749 -0.4022 -0.6536
   73MOL   H26739291   5.502   5.008   0.946  0.5852  0.8361 -0.4495
   73MOL   H26839292   5.380   5.138   0.916  1.3303 -0.3276  0.7969
   73MOL   H26939293   5.397   4.994   0.816  0.7893 -0.1845 -0.7696
   73MOL   H27039294   5.691   5.324   0.782 -0.3270  1.8648 -0.4545
   73MOL   H27139295   5.536   5.350   0.865 -0.3401 -0.4997 -0.5390
   73MOL   C27239296   5.132   5.736   1.397  0.5976 -0.7342  0.8551
   73MOL   C27339297   5.172   5.675   1.265 -0.1959 -0.2718  0.3628
   73MOL   C27439298   5.214   5.536   1.262 -0.5403  0.6185  0.7406
   73MOL   C27539299   5.256   5.470   1.128  0.0516  0.1123  0.7168
   73MOL   C27639300   5.339   5.338   1.129 -0.0854  0.1365 -0.3462
   73MOL   O27739301   5.473   5.364   1.084  0.9779  0.6318 -0.5183
   73MOL   C27839302   5.563   5.267   1.102 -0.7118 -0.7879  0.2156
   73MOL   O27939303   5.550   5.161   1.169  0.2878  0.2885  0.2719
   73MOL   C28039304   5.681   5.289   1.000 -0.3028  0.2181  0.0979
   73MOL   C28139305   5.775   5.172   1.023  0.3513 -0.1912  0.8926
   73MOL   C28239306   5.748   5.431   1.009 -0.0740 -0.4658  0.1135
   73MOL   H28339307   5.205   5.709   1.474 -0.0316 -0.2924  1.6191
   73MOL   H28439308   5.106   5.842   1.401  0.0185 -0.9117  2.0304
   73MOL   H28539309   5.038   5.698   1.437  0.6037 -0.4525  1.1383
   73MOL   H28639310   5.083   5.681   1.202 -1.3476 -1.4246  1.8349
   73MOL   H28739311   5.254   5.734   1.224 -2.2851  0.5856 -2.7491
   73MOL   H28839312   5.305   5.530   1.321 -0.1733  1.8669  0.3201
   73MOL   H28939313   5.141   5.477   1.318 -1.2650 -0.9630 -1.7944
   73MOL   H29039314   5.172   5.465   1.059  1.7253  3.8370 -1.7420
   73MOL   H29139315   5.322   5.540   1.075 -1.6722  0.6011 -0.8186
   73MOL   H29239316   5.288   5.256   1.078 -0.2741 -1.2144  1.9258
   73MOL   H29339317   5.336   5.305   1.233  0.8242 -1.3684 -0.7798
   73MOL   H29439318   5.725   5.078   0.997 -0.7424  0.8387 -0.8495
   73MOL   H29539319   5.867   5.169   0.965 -0.7442 -1.3476 -0.8597
   73MOL   H29639320   5.811   5.154   1.124 -0.3641 -0.2462  1.1405
   73MOL   H29739321   5.808   5.431   0.918  1.6367  0.9236  1.1932
   73MOL   H29839322   5.678   5.511   0.989  2.1996  1.1648 -1.5813
   73MOL   C29939323   5.940   6.154   0.682 -0.3191 -0.0450 -0.1678
   73MOL   C30039324   5.924   6.005   0.728  0.0731 -0.4428 -0.2569
   73MOL   C30139325   5.797   5.981   0.817  0.4096  0.1724  0.0996
   73MOL   C30239326   5.788   5.839   0.872 -0.0729 -0.1033  0.8583
   73MOL   C30339327   5.912   5.807   0.960 -0.0506 -0.8463  0.7149
   73MOL   O30439328   5.907   5.669   0.994 -0.1054  0.1832  0.1650
   73MOL   C30539329   5.858   5.637   1.116 -0.5182  0.1581 -0.3587
   73MOL   O30639330   5.827   5.715   1.213 -0.0839  0.1609 -0.6545
   73MOL   C30739331   5.836   5.483   1.133  0.1872  0.1698 -0.7036
   73MOL   C30839332   5.759   5.464   1.267 -0.3928 -0.8299  0.1059
   73MOL   C30939333   5.972   5.398   1.139  0.0692  0.1217 -0.0831
   73MOL   H31039334   6.026   6.162   0.616  2.3530 -0.1184  3.1479
   73MOL   H31139335   5.961   6.225   0.763 -0.0522  0.2619 -0.5088
   73MOL   H31239336   5.850   6.197   0.638 -1.3923  0.7473  2.6850
   73MOL   H31339337   6.022   5.974   0.764  0.7964 -0.5179 -2.1907
   73MOL   H31439338   5.912   5.951   0.633 -2.7652  0.7839 -0.6452
   73MOL   H31539339   5.714   6.012   0.752  1.0272  0.4868 -0.5436
   73MOL   H31639340   5.802   6.057   0.895 -3.9856  1.1239 -0.3917
   73MOL   H31739341   5.795   5.766   0.792 -0.9939 -0.9004  1.4993
   73MOL   H31839342   5.700   5.813   0.931  0.0968 -0.3568  0.9993
   73MOL   H31939343   5.999   5.840   0.905 -1.1116  3.2585  1.3308
   73MOL   H32039344   5.908   5.874   1.046 -0.4298  0.3357 -0.2035
   73MOL   H32139345   5.810   5.512   1.351  0.8034 -2.7642  0.5319
   73MOL   H32239346   5.663   5.515   1.259 -0.2132 -0.8107 -2.5183
   73MOL   H32339347   5.744   5.363   1.304 -1.6895 -0.3388  0.9385
   73MOL   H32439348   5.988   5.369   1.035 -2.3139  0.4728 -0.5942
   73MOL   H32539349   5.944   5.299   1.176 -0.3216  0.4571  0.5257
   73MOL   C32639350   6.141   5.550   0.460  0.2828  0.1244  0.0140
   73MOL   C32739351   6.041   5.543   0.578 -0.2884  0.2606  0.2104
   73MOL   C32839352   6.079   5.491   0.714  0.0001  0.7748  0.4534
   73MOL   C32939353   6.188   5.587   0.773 -0.8196  0.1217  0.3320
   73MOL   C33039354   6.282   5.519   0.879  0.3667  0.1731  0.1969
   73MOL   O33139355   6.200   5.475   0.983  0.1908  0.6842 -0.1062
   73MOL   C33239356   6.191   5.538   1.101  0.8528  0.4370 -0.3716
   73MOL   O33339357   6.235   5.654   1.127  0.5760 -0.2218  0.2411
   73MOL   C33439358   6.115   5.444   1.202 -0.6273  0.3209  0.6079
   73MOL   C33539359   6.099   5.530   1.332  0.2208  0.4364 -0.7361
   73MOL   C33639360   6.193   5.307   1.231  0.2427  0.7562  0.7249
   73MOL   H33739361   6.120   5.637   0.398  2.4755  0.9461  0.3953
   73MOL   H33839362   6.125   5.458   0.403  1.5334  0.8168 -1.4916
   73MOL   H33939363   6.245   5.558   0.491  0.4325  1.1374 -0.7389
   73MOL   H34039364   5.949   5.497   0.543 -0.3065  0.2991  0.2078
   73MOL   H34139365   6.014   5.649   0.586  1.3883  0.8753 -1.7754
   73MOL   H34239366   6.117   5.389   0.705 -0.9966  0.6412 -2.6344
   73MOL   H34339367   5.989   5.479   0.775 -0.3409 -2.1455 -0.5566
   73MOL   H34439368   6.156   5.677   0.824 -0.7737 -2.3550  4.9844
   73MOL   H34539369   6.256   5.623   0.696  0.8100 -0.4496  1.4759
   73MOL   H34639370   6.353   5.592   0.918  1.6123 -0.9811  0.1441
   73MOL   H34739371   6.316   5.421   0.844  1.6579  0.4876  0.5408
   73MOL   H34839372   6.033   5.491   1.409  0.0510 -1.5125 -1.8131
   73MOL   H34939373   6.049   5.625   1.315 -0.7621  0.1421  0.4650
   73MOL   H35039374   6.191   5.552   1.385  0.2872  0.9024 -1.0372
   73MOL   H35139375   6.221   5.287   1.128  3.2308  1.4400  1.3616
   73MOL   H35239376   6.115   5.237   1.260 -0.7149  1.2570 -0.6297
   73MOL   C35339377   6.751   5.589   1.846  0.1121  0.0170 -0.3509
   73MOL   C35439378   6.710   5.441   1.832  0.5244 -0.4924  0.7509
   73MOL   C35539379   6.566   5.430   1.761 -0.7372  0.6741 -0.3823
   73MOL   C35639380   6.527   5.282   1.742 -0.0550 -0.0476  0.2725
   73MOL   C35739381   6.384   5.272   1.682  0.6292  0.1144  0.2764
   73MOL   O35839382   6.399   5.290   1.539  0.0296 -0.3854  0.1978
   73MOL   C35939383   6.298   5.294   1.459 -0.6682  0.5535 -0.7452
   73MOL   O36039384   6.180   5.307   1.507 -1.1548  0.4930 -0.2633
   73MOL   C36139385   6.328   5.294   1.309  0.1923  0.1968  0.3499
   73MOL   C36239386   6.427   5.412   1.282  0.3917  0.2606  0.1886
   73MOL   C36339387   6.410   5.165   1.261  0.5519 -0.2370  0.3044
   73MOL   H36439388   6.693   5.636   1.925  2.4838 -1.5999  2.4565
   73MOL   H36539389   6.740   5.642   1.751  0.3234 -1.1061 -1.0140
   73MOL   H36639390   6.856   5.590   1.876 -0.0838  0.0600  0.3342
   73MOL   H36739391   6.782   5.410   1.757  2.0180 -0.6317  2.2204
   73MOL   H36839392   6.714   5.393   1.930 -1.2306 -1.4648  0.3741
   73MOL   H36939393   6.571   5.480   1.664 -0.6809  1.0520 -0.1872
   73MOL   H37039394   6.490   5.480   1.822 -0.3982  0.2296  0.4119
   73MOL   H37139395   6.538   5.234   1.839 -0.1754  2.6830  1.6749
   73MOL   H37239396   6.605   5.243   1.677  1.4805  0.4680  1.7579
   73MOL   H37339397   6.353   5.170   1.704  1.4656  0.1594  1.7006
   73MOL   H37439398   6.317   5.334   1.741  1.2937  0.1104  1.0449
   73MOL   H37539399   6.394   5.515   1.298  2.6055  1.0112  0.1261
   73MOL   H37639400   6.515   5.396   1.344  0.3716 -2.0744 -0.3769
   73MOL   H37739401   6.459   5.417   1.178 -2.6639 -2.6261 -0.9664
   73MOL   H37839402   6.397   5.176   1.154 -0.9578  1.7604  0.6591
   73MOL   H37939403   6.517   5.181   1.270  0.8950 -1.3851 -1.5678
   73MOL   C38039404   6.834   4.985   1.261  0.5036  0.0373 -0.3975
   73MOL   C38139405   6.926   4.993   1.380  0.9478 -0.2347 -0.5454
   73MOL   C38239406   6.855   4.954   1.521 -0.3857  0.2893  0.7406
   73MOL   C38339407   6.746   5.051   1.569  1.0853  0.2171  0.3903
   73MOL   C38439408   6.607   4.976   1.585  0.1151 -0.2977 -0.5964
   73MOL   O38539409   6.534   4.989   1.462  0.3852  0.1417 -0.2648
   73MOL   C38639410   6.408   4.988   1.451 -0.2927  0.5829  0.8718
   73MOL   O38739411   6.328   4.968   1.542 -0.2293  0.1302  0.0865
   73MOL   C38839412   6.362   5.023   1.301 -0.2052  0.0830  0.0375
   73MOL   C38939413   6.211   5.009   1.298 -0.0640  0.2967  0.6701
   73MOL   C39039414   6.431   4.920   1.208  0.6633  0.0601 -0.4714
   73MOL   H39139415   6.758   5.063   1.265  0.9652  0.4808 -0.2021
   73MOL   H39239416   6.887   4.995   1.166 -0.2543 -2.9534 -1.1888
   73MOL   H39339417   6.784   4.888   1.268 -0.0954  0.1086 -3.0720
   73MOL   H39439418   6.971   5.092   1.384 -0.9455  0.5825  1.9050
   73MOL   H39539419   7.003   4.918   1.363  1.5256 -0.0944  1.3484
   73MOL   H39639420   6.815   4.853   1.531  0.5982 -0.0072  1.7802
   73MOL   H39739421   6.933   4.961   1.597 -0.7653 -0.0079  1.1529
   73MOL   H39839422   6.779   5.089   1.665 -0.3172  2.2478  0.1060
   73MOL   H39939423   6.749   5.144   1.512 -0.5916 -1.3782 -2.4295
   73MOL   H40039424   6.557   5.019   1.671  0.4650 -0.0161 -0.5314
   73MOL   H40139425   6.620   4.873   1.617  2.2881  0.1816  0.1206
   73MOL   H40239426   6.183   4.905   1.310 -0.1527  0.2906  0.4240
   73MOL   H40339427   6.160   5.043   1.207 -0.6977  0.4034  1.0606
   73MOL   H40439428   6.162   5.069   1.375 -0.2686  2.5591 -1.1648
   73MOL   H40539429   6.398   4.822   1.243  0.2618  0.2541 -0.3020
   73MOL   H40639430   6.539   4.919   1.221  0.3625 -0.8660  2.2140
   73MOL   C40739431   5.938   4.436   1.137  0.5823  0.3700  0.9735
   73MOL   C40839432   5.903   4.584   1.110  0.0083 -0.3232  0.4298
   73MOL   C40939433   6.010   4.656   1.033 -0.7314 -0.6993 -0.5138
   73MOL   C41039434   5.970   4.801   1.006  0.0702  0.0918 -0.5353
   73MOL   C41139435   6.071   4.883   0.936 -0.0119 -0.3427  0.0711
   73MOL   O41239436   6.196   4.871   1.002 -0.3811 -0.5545 -0.1157
   73MOL   C41339437   6.298   4.955   0.983 -0.1895 -0.2163 -0.0020
   73MOL   O41439438   6.287   5.058   0.916 -0.0645 -0.3663 -0.4213
   73MOL   C41539439   6.436   4.914   1.046 -0.0685 -0.1809  0.4856
   73MOL   C41639440   6.553   4.999   0.988  0.0676 -0.4309 -0.3744
   73MOL   C41739441   6.461   4.769   1.006 -0.4569  0.4029  0.7278
   73MOL   H41839442   5.868   4.389   1.206 -0.8856  0.7278 -0.2460
   73MOL   H41939443   5.939   4.376   1.046 -0.1929  2.8558 -0.7136
   73MOL   H42039444   6.037   4.442   1.183  1.7304 -0.2686 -1.3466
   73MOL   H42139445   5.896   4.639   1.203  1.6300  1.9258 -0.7552
   73MOL   H42239446   5.812   4.606   1.054 -1.2876  1.0370  2.9624
   73MOL   H42339447   6.105   4.640   1.084 -1.4123  1.1730  1.4142
   73MOL   H42439448   6.018   4.603   0.938  0.7066 -0.1430 -0.7075
   73MOL   H42539449   5.956   4.847   1.104 -0.0785  1.5386 -1.2163
   73MOL   H42639450   5.873   4.818   0.959 -0.9317  0.9307  1.7223
   73MOL   H42739451   6.084   4.854   0.832  1.2118  1.0737 -0.1752
   73MOL   H42839452   6.038   4.987   0.943 -1.9961 -0.9058 -0.4459
   73MOL   H42939453   6.649   4.951   1.007 -0.7974 -1.5894  1.1616
   73MOL   H43039454   6.542   5.104   1.016 -0.3957 -1.2201  2.5580
   73MOL   H43139455   6.542   5.001   0.879 -1.0773  1.7813 -0.2400
   73MOL   H43239456   6.374   4.717   1.047 -2.0382  0.4303 -2.4760
   73MOL   H43339457   6.540   4.731   1.072 -1.1456  0.4038  1.5617
   73MOL   C43439458   7.148   5.069   0.802  0.1524  0.1275  0.3432
   73MOL   C43539459   7.133   4.925   0.751  0.6751 -0.3196  0.2425
   73MOL   C43639460   7.079   4.812   0.841 -0.4733 -0.0144 -0.0032
   73MOL   C43739461   6.938   4.853   0.889 -0.6254 -0.3251 -0.4655
   73MOL   C43839462   6.857   4.732   0.910 -0.4833  0.5273 -0.0230
   73MOL   O43939463   6.718   4.736   0.926  0.4232  0.2329 -0.0834
   73MOL   C44039464   6.634   4.743   0.819 -0.2742 -0.1664  0.4693
   73MOL   O44139465   6.671   4.776   0.705 -0.0719  0.1526  0.1010
   73MOL   C44239466   6.486   4.714   0.859 -0.7482 -0.1835 -0.0655
   73MOL   C44339467   6.397   4.787   0.748 -0.0368  0.3908 -0.0879
   73MOL   C44439468   6.452   4.563   0.861 -0.1481 -0.3570 -0.9790
   73MOL   H44539469   7.212   5.122   0.731 -0.3177  1.8302  1.1707
   73MOL   H44639470   7.053   5.120   0.784  0.4655  0.3196 -0.8498
   73MOL   H44739471   7.182   5.083   0.904  2.5333 -0.2352 -0.3630
   73MOL   H44839472   7.073   4.921   0.660 -1.9567  0.6576  1.8821
   73MOL   H44939473   7.232   4.898   0.712  1.7711  2.3655  1.0455
   73MOL   H45039474   7.082   4.711   0.802  0.1469 -0.0849  0.2146
   73MOL   H45139475   7.147   4.793   0.924 -0.2071 -0.6373 -0.3610
   73MOL   H45239476   6.888   4.919   0.818 -1.3446 -1.6093 -1.1711
   73MOL   H45339477   6.939   4.909   0.983  0.3391 -2.7761  1.0408
   73MOL   H45439478   6.896   4.680   0.997 -2.9696 -0.2611  0.6675
   73MOL   H45539479   6.884   4.666   0.828 -0.7548  2.2798 -1.5795
   73MOL   H45639480   6.291   4.783   0.774  0.3485  0.9020  1.6436
   73MOL   H45739481   6.439   4.886   0.731 -2.4771  1.5119  0.2180
   73MOL   H45839482   6.414   4.748   0.647  2.6345 -2.5363  1.3868
   73MOL   H45939483   6.345   4.562   0.845 -0.6146  0.9764  1.7363
   73MOL   H46039484   6.470   4.526   0.962  0.2696 -0.0195 -0.9259
   73MOL   C46139485   7.240   4.001   0.625  0.1428 -0.6807 -0.3158
   73MOL   C46239486   7.091   4.017   0.623  0.9071 -1.0972  0.0554
   73MOL   C46339487   7.042   4.138   0.709  0.3216 -0.1519 -0.4449
   73MOL   C46439488   6.894   4.174   0.694  0.1177  0.1774  0.8846
   73MOL   C46539489   6.850   4.295   0.771 -0.6242 -0.1449  0.1802
   73MOL   O46639490   6.716   4.332   0.730  0.2184  0.3958 -0.2377
   73MOL   C46739491   6.648   4.416   0.806  0.0350 -0.0145  0.3429
   73MOL   O46839492   6.699   4.463   0.907 -0.2097 -0.2501 -0.0222
   73MOL   C46939493   6.507   4.457   0.770  0.3245 -0.4285  0.0482
   73MOL   C47039494   6.524   4.509   0.628  0.3823  0.8646 -0.8524
   73MOL   C47139495   6.413   4.331   0.761  0.1211  0.0442  0.9999
   73MOL   H47239496   7.308   4.085   0.609  0.4718 -1.0394 -0.8008
   73MOL   H47339497   7.270   3.913   0.568 -0.0874 -0.2864 -1.0472
   73MOL   H47439498   7.264   3.970   0.727  0.9943  1.4127  0.1395
   73MOL   H47539499   7.043   3.926   0.656  1.2077 -0.5640  1.9908
   73MOL   H47639500   7.051   4.037   0.523  0.5593  1.2868  0.6396
   73MOL   H47739501   7.097   4.228   0.681 -2.0254  1.2860 -0.5757
   73MOL   H47839502   7.056   4.124   0.817 -1.8315 -1.4795 -0.3131
   73MOL   H47939503   6.826   4.101   0.737  1.0413 -0.4523  1.2667
   73MOL   H48039504   6.871   4.194   0.589  1.1276 -1.4496  0.3326
   73MOL   H48139505   6.861   4.262   0.874 -1.0299 -2.5948 -0.5328
   73MOL   H48239506   6.921   4.373   0.741  0.2577 -2.1368 -3.2866
   73MOL   H48339507   6.425   4.531   0.588 -0.4985 -2.9767 -0.9732
   73MOL   H48439508   6.555   4.427   0.564 -0.3316 -1.0426  1.1746
   73MOL   H48539509   6.593   4.588   0.598  1.2510  1.2900  2.0605
   73MOL   H48639510   6.448   4.277   0.673 -1.5215  1.8809 -0.8636
   73MOL   H48739511   6.317   4.370   0.727  0.6836 -0.0431 -0.7483
   73MOL   C48839512   6.716   4.565   1.417  0.3204 -0.6659 -0.0847
   73MOL   C48939513   6.712   4.526   1.261  0.5189 -0.2246 -0.5766
   73MOL   C49039514   6.621   4.409   1.233  0.5140  0.5014  0.2727
   73MOL   C49139515   6.471   4.431   1.262 -0.2415 -0.4319  0.1617
   73MOL   C49239516   6.386   4.301   1.241  0.7037 -0.1550  0.3109
   73MOL   O49339517   6.392   4.238   1.115 -0.5494 -0.5988 -0.1858
   73MOL   C49439518   6.332   4.298   1.006 -0.0107  0.8619 -0.4355
   73MOL   O49539519   6.249   4.384   1.008  0.1324  0.2294  0.3397
   73MOL   C49639520   6.371   4.226   0.868  0.0308  0.1502 -0.6074
   73MOL   C49739521   6.493   4.140   0.900  0.1085 -0.6177  0.3474
   73MOL   C49839522   6.252   4.134   0.839  0.3922 -0.6740 -0.4051
   73MOL   H49939523   6.763   4.493   1.483 -1.6309 -0.0618  2.0114
   73MOL   H50039524   6.766   4.660   1.436 -0.2391 -0.4813  0.4698
   73MOL   H50139525   6.614   4.573   1.454  0.1612  1.2257 -0.8639
   73MOL   H50239526   6.809   4.487   1.233  0.6007 -0.0035 -0.6042
   73MOL   H50339527   6.685   4.610   1.197  1.8637  1.8688  1.5118
   73MOL   H50439528   6.629   4.379   1.129  0.6838  1.6104 -0.0384
   73MOL   H50539529   6.649   4.324   1.295  0.4040 -0.3270 -0.7972
   73MOL   H50639530   6.432   4.510   1.197  2.3446 -0.8504 -1.9815
   73MOL   H50739531   6.464   4.459   1.367 -0.9170 -1.0953  0.2986
   73MOL   H50839532   6.426   4.234   1.317  2.1805  1.6009  1.1383
   73MOL   H50939533   6.282   4.321   1.268  0.6904 -1.8129  1.5729
   73MOL   H51039534   6.551   4.102   0.815  0.8138  1.6771 -0.2260
   73MOL   H51139535   6.462   4.052   0.956 -0.3123 -0.9432 -0.3782
   73MOL   H51239536   6.571   4.192   0.954 -1.5745  1.3849  0.8992
   73MOL   H51339537   6.161   4.194   0.846  0.1981 -0.8753 -1.1546
   73MOL   H51439538   6.246   4.059   0.918  2.9678 -0.1371  0.3334
   73MOL   C51539539   5.854   4.593   0.686  0.2733 -0.2934  0.1677
   73MOL   C51639540   5.993   4.635   0.640  0.2090 -0.6903 -1.3738
   73MOL   C51739541   6.078   4.504   0.625  0.8708  0.0770 -0.8481
   73MOL   C51839542   6.033   4.413   0.516 -0.1541 -1.0651  0.0848
   73MOL   C51939543   6.140   4.308   0.483 -0.2324 -0.2116 -0.6881
   73MOL   O52039544   6.145   4.225   0.589 -0.6818 -0.0052 -0.6919
   73MOL   C52139545   6.237   4.127   0.579 -0.3209  0.0886  0.8820
   73MOL   O52239546   6.297   4.085   0.475 -0.0894 -0.1888 -0.3792
   73MOL   C52339547   6.246   4.045   0.709 -0.1079 -0.2522 -0.2409
   73MOL   C52439548   6.112   3.974   0.719 -0.3307 -0.7308  0.5290
   73MOL   C52539549   6.356   3.937   0.706 -0.2580  0.2350 -0.2283
   73MOL   H52639550   5.808   4.522   0.617 -0.8013  0.3105  0.2493
   73MOL   H52739551   5.852   4.555   0.788  0.4804 -0.3376  0.1570
   73MOL   H52839552   5.797   4.685   0.677  1.7803  0.7764  1.2196
   73MOL   H52939553   5.984   4.693   0.548 -0.0690 -0.2046 -1.0441
   73MOL   H53039554   6.046   4.702   0.707  0.7885 -1.7547 -0.7523
   73MOL   H53139555   6.183   4.533   0.628  0.9050 -0.0008 -1.3686
   73MOL   H53239556   6.065   4.451   0.720 -3.1140  2.3422 -0.0002
   73MOL   H53339557   6.012   4.466   0.423 -0.3786  0.5520  1.0367
   73MOL   H53439558   5.937   4.369   0.541 -0.6727  0.1032  0.2074
   73MOL   H53539559   6.110   4.251   0.395 -0.7323 -2.0275  0.6368
   73MOL   H53639560   6.238   4.354   0.475  0.3161 -0.6734  2.5985
   73MOL   H53739561   6.032   4.042   0.746  0.6991  1.3473 -1.4939
   73MOL   H53839562   6.117   3.884   0.780  1.2176 -1.5521 -0.7627
   73MOL   H53939563   6.080   3.934   0.622 -2.3566 -1.4984  1.4889
   73MOL   H54039564   6.445   3.982   0.664 -1.7004  2.8394 -0.6191
   73MOL   H54139565   6.322   3.850   0.650 -1.7417 -0.0115  0.9885
   73MOL   H54239566   6.376   3.898   0.806 -1.8786 -1.1060 -0.3952
   74MOL     C139567   7.071   0.913   5.258  0.1489 -0.0168 -0.8923
   74MOL     C239568   7.178   0.809   5.227 -0.3342 -0.5495 -0.2561
   74MOL     C339569   7.123   0.674   5.190 -0.6232  0.4344  0.1455
   74MOL     C439570   7.052   0.602   5.302  0.6864 -0.1807 -0.0524
   74MOL     C539571   6.995   0.462   5.262  0.2041 -0.0810 -0.2920
   74MOL     O639572   6.912   0.412   5.365  0.1256  0.9429 -0.4395
   74MOL     C739573   6.853   0.293   5.343  0.3812 -0.5629 -0.6104
   74MOL     O839574   6.871   0.221   5.248  0.3673 -0.2665 -0.3635
   74MOL     C939575   6.768   0.251   5.467 -0.2493  0.0177 -0.0508
   74MOL    C1039576   6.747   0.094   5.464 -0.3622 -0.5575 -0.3991
   74MOL    C1139577   6.638   0.335   5.485 -0.1628 -0.3308  0.3452
   74MOL    H1239578   7.014   0.876   5.344  0.8389  1.1407  0.0827
   74MOL    H1339579   6.998   0.933   5.180 -1.1714 -1.1229  0.0161
   74MOL    H1439580   7.113   1.010   5.285 -1.8588  1.2727 -2.2524
   74MOL    H1539581   7.247   0.842   5.149 -0.2029 -0.7105 -0.2087
   74MOL    H1639582   7.222   0.812   5.327 -1.1135 -0.5321  0.0919
   74MOL    H1739583   7.050   0.674   5.109  0.9583 -2.2234 -1.3467
   74MOL    H1839584   7.202   0.607   5.158 -0.2998  0.8568  0.0556
   74MOL    H1939585   6.958   0.655   5.317  0.2139 -1.2561  0.9067
   74MOL    H2039586   7.114   0.596   5.391  0.6161 -1.2009 -0.0570
   74MOL    H2139587   6.945   0.463   5.165 -0.0685 -1.9233 -0.1878
   74MOL    H2239588   7.076   0.391   5.244  1.3124  1.0237  0.3230
   74MOL    H2339589   6.704   0.062   5.559 -0.9012  2.3574  0.3841
   74MOL    H2439590   6.846   0.050   5.453 -1.2595 -2.6034 -0.3679
   74MOL    H2539591   6.694   0.065   5.373 -0.1277 -0.1618 -0.6668
   74MOL    H2639592   6.557   0.266   5.461 -2.0582  1.8885  0.2700
   74MOL    H2739593   6.639   0.406   5.403 -0.4343 -0.1079  0.5367
   74MOL    H2839594   6.826   0.272   5.557  0.6550 -0.7764 -0.4300
   74MOL    C2939595   6.831   7.574   5.953 -0.2080 -0.5110 -0.0704
   74MOL    C3039596   6.909   7.685   6.020 -0.2040  0.4551  0.2512
   74MOL    C3139597   6.831   0.005   6.023 -0.3998  0.0681 -0.7207
   74MOL    C3239598   6.831   0.091   5.897  0.0916 -0.2619 -0.3841
   74MOL    C3339599   6.703   0.171   5.879  0.9218  0.4525  0.3441
   74MOL    O3439600   6.715   0.262   5.771  0.0904  0.6593 -0.0865
   74MOL    C3539601   6.603   0.333   5.744 -0.1788  0.3740  0.4331
   74MOL    O3639602   6.504   0.329   5.812  0.8501 -0.0815 -1.3182
   74MOL    C3739603   6.618   0.421   5.617  0.0371 -0.4959  0.3080
   74MOL    C3839604   6.496   0.510   5.586  0.5132 -0.3323  0.3784
   74MOL    C3939605   6.754   0.512   5.631  0.0334 -0.3582 -0.2646
   74MOL    H4039606   6.902   7.491   5.951  0.3964  0.0356 -3.5482
   74MOL    H4139607   6.733   7.552   5.994 -1.5176  2.8919 -1.2013
   74MOL    H4239608   6.817   7.589   5.846  0.8408 -1.1442 -0.3076
   74MOL    H4339609   7.005   7.705   5.974  0.0386  1.5987  1.2211
   74MOL    H4439610   6.931   7.649   6.121  1.5174  1.9821  0.4500
   74MOL    H4539611   6.859   0.059   6.113 -1.0241  1.5393 -1.3961
   74MOL    H4639612   6.728   7.800   6.053 -0.2942 -1.3390 -1.1661
   74MOL    H4739613   6.913   0.160   5.914  0.5261 -0.9563  0.3874
   74MOL    H4839614   6.846   0.029   5.808  0.2202  1.1125 -1.3338
   74MOL    H4939615   6.669   0.219   5.971  0.2369  1.6363 -0.5301
   74MOL    H5039616   6.626   0.107   5.836  0.1888 -0.1941  2.5312
   74MOL    H5139617   6.520   0.576   5.503 -1.0610  0.5543  0.6002
   74MOL    H5239618   6.455   0.555   5.676  0.0876  0.3738 -0.1605
   74MOL    H5339619   6.421   0.456   5.527 -1.8028  0.6049  2.3843
   74MOL    H5439620   6.771   0.555   5.533  4.2243 -0.0082  0.5376
   74MOL    H5539621   6.843   0.451   5.649 -0.2803 -0.5217  0.7897
   74MOL    C5639622   6.432   1.121   5.226  0.1873 -0.1710  0.0983
   74MOL    C5739623   6.566   1.047   5.238 -0.0941 -0.0767  0.3412
   74MOL    C5839624   6.601   1.004   5.386 -0.0131 -0.0887 -0.0735
   74MOL    C5939625   6.500   0.916   5.455 -0.0098  0.1118 -0.6305
   74MOL    C6039626   6.533   0.883   5.607  0.4726 -0.1049  0.6507
   74MOL    O6139627   6.637   0.790   5.618  0.6115  0.4263  0.4458
   74MOL    C6239628   6.654   0.736   5.742 -0.2630 -0.0097  0.3368
   74MOL    O6339629   6.577   0.760   5.840 -0.1816  0.0860  0.2776
   74MOL    C6439630   6.768   0.629   5.745 -0.4320  0.0164 -0.3645
   74MOL    C6539631   6.900   0.703   5.700 -0.0848 -0.2639 -0.8240
   74MOL    C6639632   6.773   0.554   5.888 -0.2438 -0.5972 -0.4070
   74MOL    H6739633   6.408   1.176   5.135  0.1119 -0.7775 -0.2525
   74MOL    H6839634   6.400   1.186   5.308 -0.7731  0.6974 -0.9449
   74MOL    H6939635   6.356   1.044   5.218 -0.1709 -0.1770  2.9029
   74MOL    H7039636   6.574   0.961   5.172 -0.1303  0.6053 -0.5557
   74MOL    H7139637   6.642   1.121   5.213 -1.2145  0.8547 -0.3562
   74MOL    H7239638   6.700   0.958   5.382  0.0979  0.3195 -3.2401
   74MOL    H7339639   6.619   1.094   5.445  2.1604 -0.7556  0.3140
   74MOL    H7439640   6.499   0.820   5.402  1.2118 -0.2480 -0.0248
   74MOL    H7539641   6.405   0.969   5.457 -0.9479 -1.4145 -2.4528
   74MOL    H7639642   6.565   0.973   5.660  1.4556  0.8588 -1.5035
   74MOL    H7739643   6.441   0.848   5.653 -0.0829  0.9454  0.3499
   74MOL    H7839644   6.948   0.769   5.772 -0.0024 -1.5852  0.3429
   74MOL    H7939645   6.888   0.744   5.600  0.5845  0.5886 -0.5629
   74MOL    H8039646   6.971   0.621   5.695  2.2660  1.7268 -1.2919
   74MOL    H8139647   6.810   0.456   5.858 -2.8986 -1.3551 -1.4231
   74MOL    H8239648   6.669   0.532   5.913 -0.8186  2.9404  0.5955
   74MOL    C8339649   7.287   0.257   5.534 -0.5337 -0.2886 -0.5895
   74MOL    C8439650   7.144   0.276   5.583  0.1131 -0.7462 -0.5557
   74MOL    C8539651   7.131   0.309   5.731 -0.9674  0.5239 -0.2251
   74MOL    C8639652   7.209   0.436   5.774  0.2713  0.3657 -0.4280
   74MOL    C8739653   7.202   0.464   5.920 -0.0887  0.3589 -0.0330
   74MOL    O8839654   7.060   0.483   5.949  0.0804  0.7267 -0.5748
   74MOL    C8939655   7.013   0.603   5.998  1.0882  0.2740  0.0091
   74MOL    O9039656   7.083   0.703   6.011 -0.1257 -0.2659  0.0253
   74MOL    C9139657   6.862   0.597   6.017  0.7452 -0.7052  0.3774
   74MOL    C9239658   6.817   0.743   6.063  0.3939  0.0223 -0.0653
   74MOL    C9339659   6.824   0.483   6.121 -0.4076 -0.2715  0.1275
   74MOL    H9439660   7.290   0.202   5.440 -2.0416 -0.4263 -0.5800
   74MOL    H9539661   7.336   0.354   5.528 -0.9672  0.1005  1.7935
   74MOL    H9639662   7.343   0.194   5.602 -0.0869  0.5870 -0.1324
   74MOL    H9739663   7.089   0.183   5.581 -2.3507  0.6074  1.7321
   74MOL    H9839664   7.094   0.351   5.521  0.6609 -0.0783 -0.2030
   74MOL    H9939665   7.162   0.234   5.803  0.9819  1.2757 -0.2304
   74MOL   H10039666   7.026   0.329   5.753 -0.6710  2.3557 -0.3293
   74MOL   H10139667   7.155   0.518   5.726 -1.4578 -0.5051 -0.0351
   74MOL   H10239668   7.313   0.429   5.744  0.6578  2.6142  0.2990
   74MOL   H10339669   7.268   0.548   5.943  1.4878 -0.9584  0.4306
   74MOL   H10439670   7.241   0.389   5.990  0.5571  0.8147  0.0951
   74MOL   H10539671   6.842   0.767   6.167 -2.2349 -0.1117  0.6433
   74MOL   H10639672   6.708   0.749   6.053  0.4737  0.3747 -0.7487
   74MOL   H10739673   6.862   0.826   6.010  1.0724 -0.4747 -0.2699
   74MOL   H10839674   6.715   0.475   6.120 -0.7098  3.0717  0.3701
   74MOL   H10939675   6.863   0.394   6.072 -0.4228 -0.7375  0.9514
   74MOL   C11039676   6.326   1.019   6.565  0.3723  0.0107  0.2488
   74MOL   C11139677   6.397   0.897   6.507 -0.4070 -0.0017  0.7291
   74MOL   C11239678   6.539   0.932   6.464 -0.0246  0.2689 -0.4823
   74MOL   C11339679   6.612   0.826   6.384 -0.0113 -0.0857  0.4777
   74MOL   C11439680   6.639   0.697   6.460  0.3068  0.4866 -0.0903
   74MOL   O11539681   6.696   0.606   6.364  0.0333 -0.6932 -0.2119
   74MOL   C11639682   6.827   0.579   6.365  0.5197 -0.0503 -0.2730
   74MOL   O11739683   6.906   0.628   6.440  0.3149 -0.1384 -0.4143
   74MOL   C11839684   6.867   0.458   6.275  0.1419 -0.2571 -0.0214
   74MOL   C11939685   7.019   0.438   6.284  0.1392 -0.3616  0.1519
   74MOL   C12039686   6.791   0.332   6.316 -0.2025  0.5241 -0.3465
   74MOL   H12139687   6.227   0.990   6.600  1.1450 -2.5448  0.4116
   74MOL   H12239688   6.378   1.068   6.647 -0.5182  1.0006  0.2286
   74MOL   H12339689   6.308   1.089   6.483  0.1132 -0.3527 -0.0091
   74MOL   H12439690   6.397   0.819   6.584 -0.1057 -1.5727 -0.8260
   74MOL   H12539691   6.332   0.858   6.429  0.2907  1.6847 -0.7278
   74MOL   H12639692   6.531   1.021   6.401  3.6427  0.7211 -0.4216
   74MOL   H12739693   6.612   0.953   6.542  0.7212  1.2552 -1.4251
   74MOL   H12839694   6.704   0.867   6.343 -0.2552  0.7682  0.7777
   74MOL   H12939695   6.552   0.802   6.295  0.9448 -0.7322  0.0017
   74MOL   H13039696   6.702   0.707   6.549  1.4154 -0.9137 -0.7051
   74MOL   H13139697   6.553   0.637   6.487 -0.1769  1.3722  0.3747
   74MOL   H13239698   7.071   0.532   6.266 -2.0271  0.9731  0.6186
   74MOL   H13339699   7.059   0.408   6.381 -0.7844 -0.4111  0.5215
   74MOL   H13439700   7.062   0.366   6.215 -3.0800 -2.4869  0.2758
   74MOL   H13539701   6.688   0.364   6.309 -0.7451 -1.1492 -0.3198
   74MOL   H13639702   6.802   0.259   6.236  1.9819 -1.3871  1.6079
   74MOL   C13739703   7.535   0.136   6.010  0.4913  0.7373  0.1926
   74MOL   C13839704   7.384   0.119   6.019  0.0734  0.3431 -0.4837
   74MOL   C13939705   7.319   0.120   6.162 -0.7791  0.7296  0.5269
   74MOL   C14039706   7.175   0.073   6.171  0.0122  0.1978  0.3809
   74MOL   C14139707   7.124   0.077   6.319  0.3913  0.0130 -0.1292
   74MOL   O14239708   7.002   0.144   6.332 -0.0879  0.4496  0.0129
   74MOL   C14339709   6.952   0.172   6.452  0.3892  0.0553  0.2167
   74MOL   O14439710   7.008   0.153   6.560 -0.1070  0.3458  0.0550
   74MOL   C14539711   6.820   0.251   6.453 -0.4531  0.1196 -0.1287
   74MOL   C14639712   6.816   0.344   6.582  0.3462  0.5555  0.2814
   74MOL   C14739713   6.707   0.141   6.461  0.1416 -0.1805 -0.2961
   74MOL   H14839714   7.561   0.146   5.904  0.0043  0.0032  0.0028
   74MOL   H14939715   7.599   0.054   6.042  0.7073  0.4730 -0.8747
   74MOL   H15039716   7.561   0.236   6.045 -0.2502  0.7680  0.6571
   74MOL   H15139717   7.357   0.032   5.959 -0.0281 -0.3093  0.4991
   74MOL   H15239718   7.347   0.203   5.961 -1.7460 -0.2680 -0.2347
   74MOL   H15339719   7.378   0.048   6.218  1.7431  0.9336 -1.7858
   74MOL   H15439720   7.321   0.223   6.199  0.7778  0.5273  1.0087
   74MOL   H15539721   7.122   0.141   6.105  1.8181  0.6429 -0.6085
   74MOL   H15639722   7.168   7.786   6.129  1.0074  0.3212 -0.0813
   74MOL   H15739723   7.211   0.117   6.371 -0.5380  3.3451 -1.0368
   74MOL   H15839724   7.106   7.788   6.348  1.3545 -0.1048  0.0797
   74MOL   H15939725   6.797   0.279   6.667  3.9239 -1.3208 -0.2342
   74MOL   H16039726   6.742   0.423   6.574  0.1878  0.3461 -0.3517
   74MOL   H16139727   6.910   0.397   6.601  1.0560  0.2968 -2.2456
   74MOL   H16239728   6.729   0.063   6.387 -1.2564 -1.3995  0.5297
   74MOL   H16339729   6.728   0.087   6.553  2.9306 -2.1782 -2.0209
   74MOL   C16439730   6.318   0.709   6.213  0.3233  0.4057  0.0154
   74MOL   C16539731   6.352   0.593   6.108 -0.0031  0.0920  0.2817
   74MOL   C16639732   6.283   0.462   6.155  0.0346  0.1096 -0.4698
   74MOL   C16739733   6.344   0.343   6.081 -0.2800  0.9863 -0.0986
   74MOL   C16839734   6.325   0.207   6.152  0.7745 -0.1971 -0.0430
   74MOL   O16939735   6.389   0.203   6.279 -0.3840  1.1588 -0.1172
   74MOL   C17039736   6.510   0.154   6.294 -0.5388 -0.0203 -0.0718
   74MOL   O17139737   6.588   0.126   6.205 -0.2674 -0.0212  0.3836
   74MOL   C17239738   6.553   0.154   6.444  0.7016 -0.5588 -0.9228
   74MOL   C17339739   6.509   0.278   6.525  0.2214  0.2661  0.1418
   74MOL   C17439740   6.474   0.040   6.515  0.2329  0.3812  0.0577
   74MOL   H17539741   6.211   0.727   6.221  0.4677  1.2138  0.1454
   74MOL   H17639742   6.365   0.803   6.185  2.0958  0.2660  2.3474
   74MOL   H17739743   6.351   0.677   6.312  0.0124  0.6578  0.2007
   74MOL   H17839744   6.461   0.586   6.103  0.0485  1.0172  0.1713
   74MOL   H17939745   6.307   0.617   6.012  0.6894  0.6569  0.0976
   74MOL   H18039746   6.278   0.454   6.264  2.4952 -0.5223 -0.3752
   74MOL   H18139747   6.179   0.465   6.120  0.6358 -0.5201 -2.3681
   74MOL   H18239748   6.449   0.356   6.057 -0.2796 -0.0635 -0.6967
   74MOL   H18339749   6.303   0.334   5.981 -0.3426  1.1862 -0.0915
   74MOL   H18439750   6.359   0.128   6.087  0.9061 -1.5595  1.6447
   74MOL   H18539751   6.218   0.209   6.172  0.2368  5.1170 -2.4927
   74MOL   H18639752   6.401   0.296   6.527  0.3645  1.2441 -0.2446
   74MOL   H18739753   6.556   0.364   6.477 -0.9154  2.1206  2.2581
   74MOL   H18839754   6.549   0.280   6.627  0.3622 -2.7394  0.1696
   74MOL   H18939755   6.463   0.065   6.621  0.7767 -3.6225  1.1340
   74MOL   H19039756   6.373   0.053   6.476 -0.0985  0.8503  1.0296
   74MOL   C19139757   6.945   7.165   6.354 -0.1111  0.9662  0.2912
   74MOL   C19239758   6.921   7.294   6.279  0.3556 -0.4460  0.0537
   74MOL   C19339759   6.839   7.396   6.361  0.0916 -0.5187  0.4584
   74MOL   C19439760   6.931   7.493   6.439  0.2925 -0.1485 -1.1052
   74MOL   C19539761   6.851   7.557   6.557 -0.1390  1.4119  0.2077
   74MOL   O19639762   6.746   7.624   6.495 -0.3771  0.5128 -0.5221
   74MOL   C19739763   6.645   7.666   6.574  0.1163  0.2218  0.6063
   74MOL   O19839764   6.656   7.677   6.695 -0.0377 -0.3519  1.0206
   74MOL   C19939765   6.515   7.698   6.495 -0.2312 -0.0371 -0.3578
   74MOL   C20039766   6.533   7.657   6.345  0.0506  0.3071 -0.4080
   74MOL   C20139767   6.386   7.629   6.551  0.1895 -0.1475 -0.1301
   74MOL   H20239768   7.009   7.097   6.297  1.4506  2.1172  0.6370
   74MOL   H20339769   6.974   7.189   6.456 -0.8271  1.0244  0.4776
   74MOL   H20439770   6.848   7.117   6.361 -0.4237  1.8410  2.4532
   74MOL   H20539771   6.883   7.288   6.177 -2.1377 -1.2327  0.9659
   74MOL   H20639772   7.020   7.331   6.254 -0.8792  0.3874 -3.9766
   74MOL   H20739773   6.776   7.349   6.436 -1.2259  1.3633  0.5598
   74MOL   H20839774   6.775   7.453   6.294  1.0994 -0.4422 -0.4720
   74MOL   H20939775   7.004   7.445   6.505 -0.5328  1.2907  0.9285
   74MOL   H21039776   6.984   7.568   6.381  0.6421 -0.5854 -1.3523
   74MOL   H21139777   6.817   7.491   6.637 -1.7144 -0.9866 -2.3586
   74MOL   H21239778   6.914   7.630   6.608  0.4925  1.2353 -0.3119
   74MOL   H21339779   6.557   7.551   6.331  1.7871  0.7272 -0.6912
   74MOL   H21439780   6.617   7.709   6.300  2.1433 -2.3741  0.2662
   74MOL   H21539781   6.443   7.669   6.284 -0.7026 -1.1288  0.3828
   74MOL   H21639782   6.296   7.673   6.509  1.9080  1.8490 -1.8238
   74MOL   H21739783   6.378   7.663   6.654 -0.7790  2.5539 -1.0472
   74MOL   C21839784   5.562   7.264   6.697  0.4620 -0.3888  0.0575
   74MOL   C21939785   5.659   7.366   6.630  0.3397  0.5818 -0.5274
   74MOL   C22039786   5.795   7.356   6.705 -0.1101 -0.3454  0.0895
   74MOL   C22139787   5.909   7.414   6.627  0.9851  0.2389 -0.1646
   74MOL   C22239788   6.034   7.436   6.719 -0.5974  0.1746  0.4435
   74MOL   O22339789   6.143   7.469   6.636 -0.2992 -0.3499 -0.1236
   74MOL   C22439790   6.266   7.447   6.673 -0.2843  0.9760 -0.6224
   74MOL   O22539791   6.300   7.400   6.783 -1.1168  1.1944 -0.1983
   74MOL   C22639792   6.370   7.474   6.559 -0.3441  0.6712  0.5245
   74MOL   C22739793   6.495   7.396   6.589 -0.0102 -0.1031 -0.2445
   74MOL   C22839794   6.308   7.425   6.417 -0.0758  0.1685 -0.4075
   74MOL   H22939795   5.544   7.289   6.802 -1.1589 -2.3974  0.2921
   74MOL   H23039796   5.470   7.265   6.639 -0.1981  1.4464  1.0792
   74MOL   H23139797   5.590   7.161   6.680 -0.8059 -0.6030 -0.8044
   74MOL   H23239798   5.613   7.465   6.623  0.0988  0.4564 -0.7043
   74MOL   H23339799   5.680   7.340   6.526 -0.6625  1.1496 -0.8770
   74MOL   H23439800   5.820   7.251   6.719 -1.0632 -0.5051  0.6230
   74MOL   H23539801   5.800   7.394   6.807  0.9509  1.2428 -0.5390
   74MOL   H23639802   5.952   7.350   6.550 -1.5236 -2.4392  0.5607
   74MOL   H23739803   5.875   7.507   6.582 -0.4748  0.5636  1.5378
   74MOL   H23839804   6.069   7.345   6.767  2.8747  0.5018 -1.3157
   74MOL   H23939805   6.016   7.513   6.794 -3.6677 -1.4166  1.4233
   74MOL   H24039806   6.538   7.437   6.680 -1.5709 -1.9931  1.3885
   74MOL   H24139807   6.569   7.403   6.509  0.2686 -1.5955 -0.1413
   74MOL   H24239808   6.474   7.291   6.607  0.4171 -0.1683 -0.1271
   74MOL   H24339809   6.358   7.473   6.333  1.3539  0.0781  0.3686
   74MOL   H24439810   6.210   7.472   6.414  0.4695  1.7766  3.2433
   74MOL   C24539811   6.279   7.145   5.906  0.0473 -0.0155 -0.0376
   74MOL   C24639812   6.426   7.162   5.848 -0.7215  0.0323 -0.2388
   74MOL   C24739813   6.529   7.238   5.932  1.0423  0.0345 -0.3074
   74MOL   C24839814   6.573   7.155   6.053 -0.6396  0.3782  0.1613
   74MOL   C24939815   6.615   7.251   6.170 -0.0713 -0.2308 -0.3721
   74MOL   O25039816   6.501   7.294   6.232 -0.3527 -0.0850 -0.3031
   74MOL   C25139817   6.445   7.224   6.327 -0.1150 -0.0163 -0.1826
   74MOL   O25239818   6.497   7.125   6.379 -0.4718  0.0774 -0.0896
   74MOL   C25339819   6.305   7.275   6.367  0.5838  0.0514 -0.1181
   74MOL   C25439820   6.226   7.275   6.237 -0.1202 -0.6410  0.4279
   74MOL   C25539821   6.240   7.177   6.472  0.0740 -0.0704 -0.2811
   74MOL   H25639822   6.233   7.243   5.919 -2.3129 -1.1112  0.0393
   74MOL   H25739823   6.220   7.084   5.838  0.5757 -0.6739  0.0769
   74MOL   H25839824   6.279   7.084   5.997 -2.0010  0.6330  0.4165
   74MOL   H25939825   6.470   7.068   5.815  0.0986 -0.1599  1.3648
   74MOL   H26039826   6.412   7.204   5.748 -1.1160 -1.4498 -0.8381
   74MOL   H26139827   6.476   7.330   5.960  1.0306  0.0628 -0.4211
   74MOL   H26239828   6.613   7.259   5.866 -0.3111 -1.2511 -2.4632
   74MOL   H26339829   6.500   7.089   6.100 -0.8866 -0.1021 -0.8931
   74MOL   H26439830   6.662   7.100   6.023 -0.6204  1.2268 -1.3546
   74MOL   H26539831   6.669   7.186   6.238 -0.4327 -2.0976 -1.8047
   74MOL   H26639832   6.670   7.339   6.137 -0.9372 -0.3373 -2.1796
   74MOL   H26739833   6.246   7.355   6.166 -1.5295 -0.5298  0.1460
   74MOL   H26839834   6.249   7.191   6.172 -2.0422 -1.2743  0.5312
   74MOL   H26939835   6.118   7.286   6.247 -0.0439 -0.8227  1.5784
   74MOL   H27039836   6.300   7.184   6.563  1.6525  0.5977 -1.3635
   74MOL   H27139837   6.152   7.230   6.507  0.6267  0.1291  0.8264
   74MOL   C27239838   5.584   7.476   6.045 -0.5618 -0.2394 -0.0579
   74MOL   C27339839   5.715   7.422   6.083 -0.3455 -0.6220  0.1107
   74MOL   C27439840   5.706   7.314   6.194  0.7238  0.2730  0.0382
   74MOL   C27539841   5.842   7.249   6.241  0.0470  0.2985 -0.5358
   74MOL   C27639842   5.834   7.131   6.341 -0.6304  0.3211 -1.2388
   74MOL   O27739843   5.957   7.115   6.408 -0.8636  0.2690  0.1453
   74MOL   C27839844   6.051   7.027   6.361 -0.1623 -0.3096  0.3839
   74MOL   O27939845   6.033   6.963   6.256 -0.1437 -0.1312 -0.2154
   74MOL   C28039846   6.180   7.027   6.444 -0.6287 -0.2979 -0.6610
   74MOL   C28139847   6.280   6.934   6.370  0.2251 -0.3630 -0.0701
   74MOL   C28239848   6.130   6.967   6.581 -0.1708 -0.1426 -0.7229
   74MOL   H28339849   5.521   7.396   6.007 -0.3038 -0.5026  0.0648
   74MOL   H28439850   5.532   7.513   6.133 -1.5130 -2.1537  0.2151
   74MOL   H28539851   5.603   7.548   5.965 -0.1807 -0.6343 -0.3248
   74MOL   H28639852   5.750   7.363   5.998  2.9719 -0.3336  1.1757
   74MOL   H28739853   5.772   7.507   6.120  0.6886 -0.8954 -0.8280
   74MOL   H28839854   5.656   7.350   6.284 -1.3562 -1.8814 -0.2060
   74MOL   H28939855   5.635   7.242   6.155  0.1392  0.7296  0.2536
   74MOL   H29039856   5.902   7.218   6.156  1.6190  0.0135  0.6694
   74MOL   H29139857   5.894   7.333   6.288  0.8260  0.7249 -2.1393
   74MOL   H29239858   5.804   7.045   6.282 -1.4027 -0.1400 -0.1892
   74MOL   H29339859   5.752   7.154   6.409  1.8436  1.0064  1.6447
   74MOL   H29439860   6.373   6.923   6.426  0.7483  1.5297 -0.5193
   74MOL   H29539861   6.221   6.843   6.370  1.3699 -1.1361  1.4621
   74MOL   H29639862   6.306   6.960   6.267  0.1919 -2.1963 -0.5571
   74MOL   H29739863   6.077   7.050   6.627  1.6876  0.5540  0.1798
   74MOL   H29839864   6.055   6.891   6.555 -0.1309 -0.3850 -0.1349
   74MOL   C29939865   5.905   6.505   6.120 -0.4935  0.4248 -0.3145
   74MOL   C30039866   5.923   6.461   6.263 -0.1050  0.0733 -0.5419
   74MOL   C30139867   6.032   6.546   6.331 -0.3262  0.3222  0.1710
   74MOL   C30239868   6.064   6.478   6.463  0.7675  0.8805  0.2825
   74MOL   C30339869   6.183   6.539   6.534 -0.2680 -0.4229  0.2244
   74MOL   O30439870   6.156   6.677   6.569 -0.1570  0.4942  0.4497
   74MOL   C30539871   6.264   6.751   6.623  0.3664 -0.3669 -0.4888
   74MOL   O30639872   6.377   6.705   6.638 -0.4441  0.5287 -0.1222
   74MOL   C30739873   6.225   6.889   6.682  0.0940  0.1995  0.3260
   74MOL   C30839874   6.354   6.967   6.716  0.1005  0.2412  0.2993
   74MOL   C30939875   6.148   6.872   6.819  0.1277  0.3508  0.4480
   74MOL   H31039876   5.826   6.446   6.072 -1.2683  1.1427  0.0541
   74MOL   H31139877   5.991   6.492   6.055  1.4860  1.2561  2.0896
   74MOL   H31239878   5.882   6.611   6.113 -1.0645  0.1732 -2.8693
   74MOL   H31339879   5.931   6.352   6.263  1.4850  0.1552  1.6584
   74MOL   H31439880   5.831   6.467   6.320  0.8244  0.2128  0.9773
   74MOL   H31539881   6.009   6.649   6.356  1.4709  0.9367 -0.5943
   74MOL   H31639882   6.121   6.540   6.267  0.0011  0.7255  0.5820
   74MOL   H31739883   6.066   6.369   6.459  1.6863  0.9004 -0.0174
   74MOL   H31839884   5.983   6.498   6.533 -0.7165  0.1157 -1.2019
   74MOL   H31939885   6.213   6.485   6.624 -1.8740  2.6137  2.6852
   74MOL   H32039886   6.263   6.535   6.460 -1.6619 -0.6250 -1.3098
   74MOL   H32139887   6.405   6.933   6.806  1.2963  1.7021  0.1976
   74MOL   H32239888   6.420   6.957   6.630  1.2497 -1.2512  1.3434
   74MOL   H32339889   6.332   7.073   6.728  0.0886  0.1194  1.3837
   74MOL   H32439890   6.043   6.892   6.797  0.9033  0.9984 -2.8971
   74MOL   H32539891   6.165   6.969   6.867  0.2346  1.1734 -1.2261
   74MOL   C32639892   5.557   6.246   7.049 -0.3165  0.2469 -0.1287
   74MOL   C32739893   5.643   6.372   7.064 -0.3546  0.2048  0.5738
   74MOL   C32839894   5.657   6.456   6.942  0.0509 -0.2344 -0.4153
   74MOL   C32939895   5.767   6.564   6.955 -0.4941 -0.5199 -0.3102
   74MOL   C33039896   5.871   6.532   6.848 -0.4489 -0.0891 -0.0487
   74MOL   O33139897   5.967   6.637   6.861  0.5574 -0.7262  0.0106
   74MOL   C33239898   6.102   6.622   6.890  0.2251 -0.4837  0.0101
   74MOL   O33339899   6.164   6.516   6.877  0.1959 -0.3314 -0.4180
   74MOL   C33439900   6.173   6.754   6.926  0.0439  0.8192 -0.0846
   74MOL   C33539901   6.322   6.726   6.966 -0.3829 -0.1994  0.1870
   74MOL   C33639902   6.090   6.801   7.054 -1.0701  0.3347  0.1903
   74MOL   H33739903   5.465   6.263   6.993 -1.2140 -0.9563  0.9488
   74MOL   H33839904   5.524   6.211   7.147  0.4552  0.7262  0.3066
   74MOL   H33939905   5.608   6.170   6.989 -3.7814 -0.7486 -1.9637
   74MOL   H34039906   5.738   6.348   7.112  0.2615  0.5553 -0.4575
   74MOL   H34139907   5.599   6.433   7.143  0.6683  1.2324  0.3656
   74MOL   H34239908   5.556   6.491   6.923  0.3267 -0.5955 -2.7015
   74MOL   H34339909   5.677   6.394   6.855  3.2385  0.7254 -0.4349
   74MOL   H34439910   5.802   6.553   7.058  0.8926  1.6207 -0.5285
   74MOL   H34539911   5.717   6.661   6.952 -0.8735 -0.7539 -1.6067
   74MOL   H34639912   5.825   6.551   6.750 -1.3707  0.8988  0.5619
   74MOL   H34739913   5.911   6.431   6.857 -0.9498 -0.2523  0.3392
   74MOL   H34839914   6.350   6.633   7.016 -0.0013  0.1341  0.5985
   74MOL   H34939915   6.378   6.802   7.020 -0.1846 -0.2148  0.0050
   74MOL   H35039916   6.386   6.710   6.879 -0.7936 -0.4209 -0.0756
   74MOL   H35139917   5.984   6.796   7.030 -1.8504  2.3097  3.0062
   74MOL   H35239918   6.097   6.909   7.065 -0.7024  0.7539 -3.5145
   74MOL   C35339919   6.560   7.218   6.924  0.4158 -0.0572  0.1040
   74MOL   C35439920   6.533   7.136   7.054  0.1682 -0.2061  0.5061
   74MOL   C35539921   6.391   7.167   7.107  0.2503 -0.3453  0.1007
   74MOL   C35639922   6.381   7.130   7.255 -0.2743 -0.4219  0.4424
   74MOL   C35739923   6.388   6.979   7.285  0.0951 -0.5194 -0.5114
   74MOL   O35839924   6.266   6.920   7.245  0.4653  0.0757  0.1673
   74MOL   C35939925   6.240   6.798   7.262 -0.1918 -0.1615  0.3086
   74MOL   O36039926   6.318   6.728   7.324 -0.5433 -0.4048  0.2352
   74MOL   C36139927   6.106   6.738   7.200 -0.4419 -0.3321 -0.3331
   74MOL   C36239928   6.108   6.584   7.207 -0.1641 -0.2204  0.5792
   74MOL   C36339929   5.989   6.793   7.283  0.3474  0.1540 -0.3534
   74MOL   H36439930   6.649   7.181   6.873  0.0194  1.5276 -1.7670
   74MOL   H36539931   6.560   7.327   6.931  1.0183 -0.0230 -0.3725
   74MOL   H36639932   6.476   7.185   6.863 -1.2842  1.4783  1.5709
   74MOL   H36739933   6.523   7.028   7.044 -1.2381 -0.0601  0.2727
   74MOL   H36839934   6.605   7.146   7.135 -0.6398  1.4596  1.0610
   74MOL   H36939935   6.318   7.108   7.052 -0.7983  0.2271  0.8630
   74MOL   H37039936   6.374   7.273   7.084 -0.6410 -0.1355  1.7057
   74MOL   H37139937   6.284   7.166   7.290  0.3439  0.7396  0.9665
   74MOL   H37239938   6.455   7.179   7.318  1.3891 -0.9226 -1.0822
   74MOL   H37339939   6.474   6.935   7.234  1.6015 -0.2333  1.6968
   74MOL   H37439940   6.394   6.968   7.393 -1.6394 -1.4230 -0.4961
   74MOL   H37539941   6.193   6.537   7.157  1.4739  2.6152  0.6043
   74MOL   H37639942   6.124   6.544   7.307  1.1252 -0.6634  0.1942
   74MOL   H37739943   6.023   6.532   7.162  0.5919 -2.4627  1.6886
   74MOL   H37839944   5.998   6.901   7.269 -0.3195  0.0946 -1.2675
   74MOL   H37939945   5.895   6.786   7.229  0.7394  0.9032 -1.1598
   74MOL   C38039946   5.606   6.406   0.199 -0.1474 -0.2365  0.1808
   74MOL   C38139947   5.704   6.336   0.102  0.3548 -0.3237 -0.5052
   74MOL   C38239948   5.771   6.434   0.011 -0.1729  0.3958  0.0860
   74MOL   C38339949   5.681   6.478   7.710 -0.1721  0.1844 -0.3232
   74MOL   C38439950   5.747   6.489   7.576  0.3578 -0.1300 -0.1832
   74MOL   O38539951   5.835   6.596   7.562  0.8398  0.3105 -0.3049
   74MOL   C38639952   5.856   6.645   7.443 -0.3562 -0.4674 -0.1444
   74MOL   O38739953   5.798   6.601   7.342 -0.1211 -0.1078 -0.2342
   74MOL   C38839954   5.957   6.763   7.438  0.4467  0.0135 -1.0615
   74MOL   C38939955   6.076   6.738   7.523 -0.0855  0.5398 -0.3873
   74MOL   C39039956   5.877   6.879   7.508  0.0950  0.0635  0.2514
   74MOL   H39139957   5.521   6.455   0.151 -0.5621 -0.5276  0.6080
   74MOL   H39239958   5.569   6.336   0.274  1.2985  0.6569  1.7681
   74MOL   H39339959   5.650   6.490   0.253  1.7977 -0.8139 -0.4817
   74MOL   H39439960   5.661   6.250   0.051 -3.1609  1.2392 -0.3187
   74MOL   H39539961   5.782   6.286   0.161  1.4396 -1.3521 -2.7564
   74MOL   H39639962   5.810   6.522   0.063  1.3822  0.1285 -0.6016
   74MOL   H39739963   5.857   6.382   7.784  0.1387  1.5270 -0.7142
   74MOL   H39839964   5.598   6.407   7.705 -0.1913  0.3233 -2.2043
   74MOL   H39939965   5.648   6.576   7.744  0.2665  0.0446  0.5439
   74MOL   H40039966   5.665   6.506   7.506 -0.3778 -0.1063  0.6731
   74MOL   H40139967   5.802   6.400   7.547 -1.2684 -1.3144  0.2646
   74MOL   H40239968   6.133   6.650   7.495  2.4106  1.9796  0.0494
   74MOL   H40339969   6.069   6.715   7.629  1.2525  1.2681 -0.1319
   74MOL   H40439970   6.145   6.819   7.502 -0.9510  0.3008 -4.5897
   74MOL   H40539971   5.815   6.838   7.589  0.4667 -0.0645  0.4697
   74MOL   H40639972   5.800   6.899   7.433 -1.3908  0.2009  1.7578
   74MOL   C40739973   5.937   6.536   0.415 -0.5398 -0.0311  0.1670
   74MOL   C40839974   5.922   6.689   0.403  0.3018  0.0962  0.4741
   74MOL   C40939975   6.024   6.749   0.299 -0.9018  0.4748 -0.3903
   74MOL   C41039976   5.972   6.766   0.156 -0.5362  0.2170  0.1092
   74MOL   C41139977   6.052   6.867   0.070  0.0685  0.1433  0.2569
   74MOL   O41239978   5.978   6.915   7.777 -0.5010 -0.3345 -0.0681
   74MOL   C41339979   6.034   6.992   7.681 -0.5847 -0.6491 -1.1054
   74MOL   O41439980   6.156   7.021   7.682  0.2047 -0.5076  0.2363
   74MOL   C41539981   5.941   7.015   7.557  0.3661  0.2337  0.2840
   74MOL   C41639982   6.012   7.091   7.444  0.0995  0.4184 -0.1792
   74MOL   C41739983   5.815   7.103   7.599  0.3191  0.3754  0.3024
   74MOL   H41839984   6.041   6.504   0.420 -0.3779 -0.0142 -2.3931
   74MOL   H41939985   5.887   6.514   0.509  2.4998 -1.3618  1.5424
   74MOL   H42039986   5.891   6.486   0.330  1.3128 -0.2693 -0.7129
   74MOL   H42139987   5.943   6.736   0.499  0.6817 -0.5383  0.7088
   74MOL   H42239988   5.819   6.708   0.373  0.4130  1.1179  0.7446
   74MOL   H42339989   6.037   6.850   0.336  0.5935  0.1013  0.1772
   74MOL   H42439990   6.119   6.695   0.304 -0.3873  1.4221  0.2378
   74MOL   H42539991   5.864   6.780   0.161 -0.5278  1.5993 -2.6125
   74MOL   H42639992   5.976   6.670   0.105 -0.2563 -0.0382  0.6091
   74MOL   H42739993   6.067   6.952   0.137  0.3657  1.4190 -1.3972
   74MOL   H42839994   6.147   6.823   0.041  0.2864  0.8652 -0.1483
   74MOL   H42939995   6.055   7.175   7.498  0.1537  0.2570  0.0304
   74MOL   H43039996   5.955   7.119   7.356  0.6539 -2.3782 -1.4761
   74MOL   H43139997   6.094   7.025   7.413  0.1410 -0.0093  0.8138
   74MOL   H43239998   5.762   7.047   7.676  2.2024  0.6666  1.8338
   74MOL   H43339999   5.748   7.103   7.512  0.3433 -0.0614  0.2809
   74MOL   C43440000   5.925   7.146   6.985  0.7297 -0.5504  0.2428
   74MOL   C43540001   5.952   7.274   7.065 -0.4852 -0.1915 -0.6807
   74MOL   C43640002   5.832   7.303   7.161  0.1312 -0.0034  0.3950
   74MOL   C43740003   5.840   7.438   7.236  0.4156 -0.1337 -0.4293
   74MOL   C43840004   5.731   7.453   7.341 -0.0737 -0.2071 -0.7282
   74MOL   O43940005   5.737   7.344   7.441 -0.5589  0.6008  0.4293
   74MOL   C44040006   5.830   7.350   7.543 -0.2939 -0.4663 -0.3637
   74MOL   O44140007   5.925   7.422   7.529  0.0573 -0.3552 -0.1426
   74MOL   C44240008   5.814   7.252   7.666 -0.4430 -0.2696 -0.2573
   74MOL   C44340009   5.925   7.273   7.767  0.0100  0.3197  1.2095
   74MOL   C44440010   5.671   7.270   7.737 -0.3608 -0.3012  0.0224
   74MOL   H44540011   5.941   7.061   7.051 -0.1563 -1.1332 -0.2925
   74MOL   H44640012   5.824   7.147   6.945  1.7675  1.2224 -2.5629
   74MOL   H44740013   5.997   7.134   6.904  1.9988  2.8654  0.7700
   74MOL   H44840014   6.045   7.265   7.122 -0.7290  3.9499  0.5135
   74MOL   H44940015   5.968   7.357   6.997  0.8167  1.4673  1.5495
   74MOL   H45040016   5.745   7.305   7.095 -1.1471 -1.6093  1.9576
   74MOL   H45140017   5.817   7.215   7.225  3.4986 -0.5971  0.4827
   74MOL   H45240018   5.838   7.516   7.160 -0.1280  1.1494  0.8975
   74MOL   H45340019   5.939   7.437   7.280  1.2919 -0.1772 -2.3275
   74MOL   H45440020   5.640   7.435   7.283 -0.5777 -0.2797  0.0732
   74MOL   H45540021   5.724   7.548   7.394  1.6916 -0.0279 -0.7718
   74MOL   H45640022   5.930   7.379   7.789  2.8660  0.5334 -0.1952
   74MOL   H45740023   5.913   7.210   0.041 -0.1877  0.7274  1.4711
   74MOL   H45840024   6.021   7.253   7.717 -0.7276 -1.3693  0.4382
   74MOL   H45940025   5.602   7.228   7.663  0.6396  0.9400 -1.6566
   74MOL   H46040026   5.648   7.376   7.725 -0.4075 -0.1764  1.1589
   74MOL   C46140027   5.675   0.186   0.473  0.4310 -0.7964  0.4712
   74MOL   C46240028   5.603   0.086   0.381  0.2254 -0.6372 -0.5016
   74MOL   C46340029   5.703   7.786   0.348  0.3619 -0.0880 -0.1417
   74MOL   C46440030   5.639   7.676   0.269  0.5645  0.4912  0.0759
   74MOL   C46540031   5.730   7.559   0.247 -0.2785  0.2926 -0.0379
   74MOL   O46640032   5.683   7.460   0.153  0.4161  0.2373 -0.0859
   74MOL   C46740033   5.702   7.335   0.173 -0.1206  0.2330 -0.3753
   74MOL   O46840034   5.769   7.288   0.259  0.3817 -0.1949 -0.6328
   74MOL   C46940035   5.630   7.240   0.070 -0.1814 -0.4939  0.1399
   74MOL   C47040036   5.664   7.088   0.103 -0.1514 -0.4926 -0.0353
   74MOL   C47140037   5.475   7.268   0.081 -0.1554 -0.1860  0.5784
   74MOL   H47240038   5.778   0.210   0.446  0.6980 -1.5656  0.7904
   74MOL   H47340039   5.676   0.132   0.568 -2.1682 -1.7038  0.0181
   74MOL   H47440040   5.612   0.274   0.488 -0.4290 -1.2505 -0.4265
   74MOL   H47540041   5.586   0.135   0.285  0.3059 -0.9497 -0.6775
   74MOL   H47640042   5.517   0.053   0.439  1.3348  0.0666  1.6037
   74MOL   H47740043   5.735   7.739   0.442 -0.3306 -0.4994 -0.1098
   74MOL   H47840044   5.799   0.006   0.308 -1.2311  4.4324 -0.4302
   74MOL   H47940045   5.613   7.723   0.174 -0.2579  0.5238  0.3137
   74MOL   H48040046   5.556   7.636   0.326  0.5005  1.3053  0.5584
   74MOL   H48140047   5.819   7.611   0.211  0.1483  0.1270  0.7781
   74MOL   H48240048   5.764   7.509   0.337  0.5475  0.3786 -0.2971
   74MOL   H48340049   5.601   7.020   0.046 -0.7020  1.1347 -1.4208
   74MOL   H48440050   5.652   7.077   0.211  0.3842  0.8396  0.1743
   74MOL   H48540051   5.766   7.058   0.076  0.8857  1.4136  1.5785
   74MOL   H48640052   5.430   7.245   7.799  1.8274 -1.2183 -0.1329
   74MOL   H48740053   5.479   7.376   0.067 -0.3425 -0.2622 -0.0909
   74MOL   C48840054   5.432   7.712   0.918 -0.2182 -0.3006 -0.4796
   74MOL   C48940055   5.355   7.645   0.797  0.1999  0.4052 -0.7269
   74MOL   C49040056   5.453   7.546   0.726 -0.4981 -0.1377  0.0810
   74MOL   C49140057   5.400   7.481   0.594  0.1105 -0.2857  0.1965
   74MOL   C49240058   5.507   7.412   0.509  0.9918  0.4431  0.8310
   74MOL   O49340059   5.455   7.382   0.379 -0.1546 -0.0651  0.0076
   74MOL   C49440060   5.457   7.258   0.343  0.5601 -0.4519  0.6533
   74MOL   O49540061   5.511   7.164   0.400 -0.1321  0.0337 -0.0310
   74MOL   C49640062   5.389   7.228   0.210 -0.1823 -0.0800  0.5660
   74MOL   C49740063   5.359   7.073   0.203  0.1831  0.2292 -0.4501
   74MOL   C49840064   5.251   7.308   0.179  0.3831  0.8202 -0.3290
   74MOL   H49940065   5.469   7.639   0.990  1.4448  0.9344 -0.0665
   74MOL   H50040066   5.514   7.763   0.867 -1.3248 -0.7674 -2.8150
   74MOL   H50140067   5.381   7.787   0.978  0.9090  0.0231  0.0927
   74MOL   H50240068   5.314   7.717   0.727 -2.2801  0.0954  0.3119
   74MOL   H50340069   5.272   7.595   0.848  0.9667 -1.6464 -1.4215
   74MOL   H50440070   5.539   7.602   0.689 -0.4937 -0.9579 -1.1654
   74MOL   H50540071   5.509   7.481   0.793  1.9927 -0.3910 -2.1857
   74MOL   H50640072   5.359   7.559   0.530  1.6739  0.6663  0.3273
   74MOL   H50740073   5.322   7.407   0.607 -1.2010  1.2757  1.4465
   74MOL   H50840074   5.589   7.481   0.487  1.7149 -0.9507 -0.9039
   74MOL   H50940075   5.551   7.328   0.563  0.5054  0.0575  0.6260
   74MOL   H51040076   5.285   7.047   0.278 -0.9007 -0.0678 -1.6028
   74MOL   H51140077   5.433   6.999   0.232  0.4000  0.4744 -0.3733
   74MOL   H51240078   5.334   7.040   0.102  0.5279 -0.8979 -0.1772
   74MOL   H51340079   5.225   7.275   0.078  0.1713  1.5757 -0.5285
   74MOL   H51440080   5.280   7.413   0.176  2.2206  0.3280 -0.9909
   74MOL   C51540081   4.461   6.870   0.071  0.2357 -0.2959  0.3847
   74MOL   C51640082   4.554   6.987   0.084  0.0912  0.2877  0.4026
   74MOL   C51740083   4.693   6.957   0.041  0.4844  0.5208 -0.8326
   74MOL   C51840084   4.775   7.069   0.075 -0.2927 -0.4759  0.9812
   74MOL   C51940085   4.925   7.042   0.059  0.2508 -0.4702 -0.6849
   74MOL   O52040086   5.000   7.160   0.096  0.0330  0.0667 -0.1401
   74MOL   C52140087   5.029   7.171   0.229  0.3050 -0.3430 -0.5374
   74MOL   O52240088   4.987   7.104   0.320 -0.0844 -0.0231  0.0401
   74MOL   C52340089   5.117   7.299   0.263  0.3424  0.1701  0.6759
   74MOL   C52440090   5.034   7.425   0.237 -0.8706  0.1857  0.6965
   74MOL   C52540091   5.147   7.297   0.417 -0.1522  0.1242  0.1308
   74MOL   H52640092   4.506   6.796   0.138  2.2282  1.0727  0.6029
   74MOL   H52740093   4.360   6.902   0.096  1.0109  1.6679  1.1505
   74MOL   H52840094   4.470   6.822   7.787  0.3197 -2.6711  1.5216
   74MOL   H52940095   4.513   7.077   0.038 -2.9001 -0.7388  0.9124
   74MOL   H53040096   4.562   7.010   0.190 -3.4543  1.0885  0.5596
   74MOL   H53140097   4.725   6.867   0.092 -0.0018 -2.2341 -5.1505
   74MOL   H53240098   4.698   6.922   7.752 -0.6832  0.1999 -0.7872
   74MOL   H53340099   4.756   7.108   0.175  0.5205  2.8229 -0.0919
   74MOL   H53440100   4.746   7.141   7.813 -0.4892 -0.8979  0.6572
   74MOL   H53540101   4.957   6.963   0.128 -1.5180  0.7747  1.6155
   74MOL   H53640102   4.946   7.008   7.771  0.6285 -3.1971  0.2616
   74MOL   H53740103   5.091   7.514   0.264  0.5385 -0.4487 -0.1587
   74MOL   H53840104   4.949   7.422   0.305 -1.1091  0.3831  0.4084
   74MOL   H53940105   4.997   7.442   0.135  1.7827  1.5210 -0.0857
   74MOL   H54040106   5.072   7.253   0.482  0.2826 -2.5957 -1.1425
   74MOL   H54140107   5.187   7.391   0.456  1.7145  0.5116 -2.6259
   74MOL   H54240108   5.227   7.226   0.434  0.1312  0.2734 -0.5499
   75MOL     C140109   0.491   0.942   1.104  0.3322 -0.4446  0.0207
   75MOL     C240110   0.549   0.799   1.073 -0.8833  0.4303  0.0125
   75MOL     C340111   0.465   0.692   1.120  0.6264  0.1311  0.3457
   75MOL     C440112   0.501   0.553   1.065 -0.3747 -0.4159 -0.6143
   75MOL     C540113   0.635   0.493   1.113  0.2621  0.5323 -0.3129
   75MOL     O640114   0.664   0.376   1.031  0.0458  0.5825  0.3433
   75MOL     C740115   0.770   0.288   1.064 -0.6391 -0.1945  0.0838
   75MOL     O840116   0.858   0.319   1.139  0.2842  0.9006 -0.2256
   75MOL     C940117   0.776   0.151   0.990  0.7654  0.3060 -0.3205
   75MOL    C1040118   0.891   0.057   1.036 -0.1673 -0.3920  0.6813
   75MOL    C1140119   0.774   0.160   0.835 -0.1010 -0.1139 -0.1835
   75MOL    H1240120   0.499   0.973   1.208 -0.5134 -0.1982  0.0147
   75MOL    H1340121   0.386   0.948   1.072  0.4382 -0.4089 -0.3242
   75MOL    H1440122   0.534   1.023   1.045 -0.6411  1.8974  2.4283
   75MOL    H1540123   0.585   0.788   0.971  0.8229 -4.3971  1.0088
   75MOL    H1640124   0.642   0.781   1.127  0.1902  0.7504 -1.7042
   75MOL    H1740125   0.467   0.688   1.229 -2.8383 -1.7876  0.4251
   75MOL    H1840126   0.361   0.711   1.094  0.4092  0.0788  1.1567
   75MOL    H1940127   0.502   0.558   0.957  0.9770 -1.5265 -0.6532
   75MOL    H2040128   0.422   0.479   1.081 -0.5975 -0.4750 -1.9489
   75MOL    H2140129   0.716   0.565   1.105 -1.0678  2.0146 -0.5355
   75MOL    H2240130   0.632   0.470   1.220  0.3279 -1.1888 -0.6596
   75MOL    H2340131   0.987   0.102   1.008  0.4627 -1.1309  1.6141
   75MOL    H2440132   0.893   7.770   0.995  0.1833 -1.0050  2.1722
   75MOL    H2540133   0.897   0.044   1.144  2.3753  0.0152  0.6289
   75MOL    H2640134   0.872   0.140   0.792  1.2490 -0.4826  2.9047
   75MOL    H2740135   0.772   0.268   0.821  1.6241  0.2159  1.7226
   75MOL    H2840136   0.693   0.091   1.028  1.3877 -1.6686 -1.9632
   75MOL    C2940137   0.200   7.451   0.942 -0.2313  0.7948  0.4925
   75MOL    C3040138   0.136   7.585   0.906  0.2389 -0.9140 -0.1546
   75MOL    C3140139   0.246   7.687   0.885 -0.5894 -0.0275  0.4157
   75MOL    C3240140   0.189   0.007   0.840 -0.3378  0.4901 -0.1017
   75MOL    C3340141   0.302   0.115   0.854  0.1535  0.3993 -0.0756
   75MOL    O3440142   0.425   0.068   0.827  0.3895 -0.2543  0.5793
   75MOL    C3540143   0.524   0.156   0.797 -0.1514  0.1606  0.5071
   75MOL    O3640144   0.507   0.281   0.796 -0.0555  0.0315 -0.1007
   75MOL    C3740145   0.659   0.095   0.753  0.0354 -0.2990  0.0765
   75MOL    C3840146   0.661   7.754   0.782 -0.0245 -0.1131 -0.0057
   75MOL    C3940147   0.702   0.118   0.595 -0.4578  0.3999 -0.4748
   75MOL    H4040148   0.128   7.377   0.976  1.8913 -1.6622 -0.1516
   75MOL    H4140149   0.251   7.414   0.853 -1.7536  0.5236 -0.2893
   75MOL    H4240150   0.276   7.459   1.020 -0.6828 -0.4555  1.0794
   75MOL    H4340151   0.062   7.607   0.984 -0.0538 -1.3070 -0.3187
   75MOL    H4440152   0.077   7.567   0.816  0.5623  0.3439 -0.6299
   75MOL    H4540153   0.322   7.644   0.819 -0.3851  0.2430  0.4767
   75MOL    H4640154   0.295   7.696   0.982 -2.1474  3.7603  0.9051
   75MOL    H4740155   0.135   0.013   0.745  0.1223  1.8532 -0.2956
   75MOL    H4840156   0.102   0.029   0.902 -1.1364  1.0319 -1.3901
   75MOL    H4940157   0.300   0.142   0.960 -2.9069 -0.7316  0.1835
   75MOL    H5040158   0.272   0.203   0.798  2.1726  0.8406 -0.5203
   75MOL    H5140159   0.637   7.739   0.887 -1.3399 -0.7336 -0.3894
   75MOL    H5240160   0.761   7.710   0.775 -0.7498 -1.5121 -2.1075
   75MOL    H5340161   0.585   7.703   0.723 -0.3205 -1.0851  1.2254
   75MOL    H5440162   0.809   0.099   0.597 -0.6704 -0.7527  0.6200
   75MOL    H5540163   0.695   0.226   0.583 -1.3226  0.5947  1.4703
   75MOL    C5640164   7.729   0.489   0.611 -0.5729  0.0840 -0.2517
   75MOL    C5740165   0.069   0.467   0.602  0.4841 -0.4359 -1.0246
   75MOL    C5840166   0.115   0.354   0.518 -1.0004  0.5068  0.7726
   75MOL    C5940167   0.267   0.321   0.527 -0.6987 -0.0600 -0.3056
   75MOL    C6040168   0.290   0.176   0.490  0.3697  0.3021  0.4737
   75MOL    O6140169   0.431   0.161   0.461  0.1715 -0.0521  0.1475
   75MOL    C6240170   0.487   0.044   0.489 -0.2093 -0.3292  0.4546
   75MOL    O6340171   0.425   7.758   0.529 -0.2829  0.0054 -0.8805
   75MOL    C6440172   0.638   0.054   0.463  0.1923  0.7330  0.6179
   75MOL    C6540173   0.697   7.732   0.444 -0.0586  0.9151  0.5648
   75MOL    C6640174   0.670   0.153   0.335 -0.2285 -0.2812 -0.3951
   75MOL    H6740175   7.704   0.585   0.657  2.2581  1.5826 -1.6977
   75MOL    H6840176   7.686   0.411   0.673 -0.9412 -0.0679 -0.6925
   75MOL    H6940177   7.695   0.496   0.507  0.7941 -1.4204 -0.8172
   75MOL    H7040178   0.138   0.547   0.577  0.9781 -0.4168  0.3675
   75MOL    H7140179   0.088   0.436   0.705 -0.0345  1.9599 -0.1922
   75MOL    H7240180   0.060   0.265   0.548 -0.5384  0.8465  2.6883
   75MOL    H7340181   0.087   0.379   0.416 -0.5322 -1.7517  0.0791
   75MOL    H7440182   0.306   0.352   0.624 -4.6959  3.5303  0.2917
   75MOL    H7540183   0.309   0.381   0.446  1.1019 -0.2192  0.4871
   75MOL    H7640184   0.265   0.126   0.584  0.7896  0.0204  0.4358
   75MOL    H7740185   0.224   0.142   0.410  1.1954 -0.8338  0.2577
   75MOL    H7840186   0.800   7.724   0.411 -0.2161  1.6467 -0.1246
   75MOL    H7940187   0.632   7.668   0.385 -0.9847  1.5392  0.8932
   75MOL    H8040188   0.706   7.674   0.536  1.4300 -2.4074 -1.5892
   75MOL    H8140189   0.778   0.168   0.340  0.0296 -2.5203  1.3238
   75MOL    H8240190   0.624   0.251   0.351 -2.0116 -0.8910 -1.6819
   75MOL    C8340191   0.230   7.272   7.808 -0.1976 -0.2438  0.2464
   75MOL    C8440192   0.240   7.307   0.142  0.4206  0.2792  0.2594
   75MOL    C8540193   0.211   7.455   0.178 -0.3743  0.4221  0.2965
   75MOL    C8640194   0.339   7.538   0.170 -0.1196  0.8762  0.4517
   75MOL    C8740195   0.325   7.680   0.199  0.8538 -1.5374 -0.0111
   75MOL    O8840196   0.457   7.737   0.199  0.0780  0.4339 -0.0364
   75MOL    C8940197   0.475   0.059   0.174  0.1637 -0.1966  0.0179
   75MOL    O9040198   0.390   0.134   0.132  0.5452 -0.0145  0.1962
   75MOL    C9140199   0.624   0.116   0.191 -0.5475 -0.7187 -0.6140
   75MOL    C9240200   0.621   0.252   0.108 -0.4120  0.4710 -0.6525
   75MOL    C9340201   0.727   0.010   0.137 -0.0800  0.9596  0.1682
   75MOL    H9440202   0.249   7.164   7.810  2.6708  0.2018 -0.4932
   75MOL    H9540203   0.132   7.302   7.771 -0.3972  0.3352  1.2377
   75MOL    H9640204   0.322   7.298   7.755 -0.4458  3.1487  1.4069
   75MOL    H9740205   0.340   7.274   0.168  1.1315  1.3672 -0.9846
   75MOL    H9840206   0.163   7.249   0.191  0.8290 -1.6385 -1.2919
   75MOL    H9940207   0.163   7.470   0.274 -0.6355  0.5375  0.1483
   75MOL   H10040208   0.132   7.491   0.112  0.3259  0.7462 -0.3725
   75MOL   H10140209   0.387   7.526   0.072  2.1106  0.5380  1.5587
   75MOL   H10240210   0.406   7.494   0.244 -0.6274  1.1189  1.0583
   75MOL   H10340211   0.283   7.704   0.297  0.6223 -0.2668 -0.4112
   75MOL   H10440212   0.254   7.726   0.130  2.0862 -0.6393 -0.7011
   75MOL   H10540213   0.556   0.330   0.147  2.2408  2.2209  0.4314
   75MOL   H10640214   0.598   0.219   0.007  1.4814  0.3812 -1.0646
   75MOL   H10740215   0.717   0.302   0.095  0.2791 -0.7675 -0.3182
   75MOL   H10840216   0.823   0.050   0.168  1.7742 -1.1143 -2.6760
   75MOL   H10940217   0.715   7.735   0.199 -1.6561  0.4768 -0.8060
   75MOL   C11040218   1.325   0.197   7.387  0.4367  1.1871  0.1270
   75MOL   C11140219   1.226   0.085   7.415 -0.0429 -0.4164  0.0110
   75MOL   C11240220   1.100   0.150   7.487 -0.1057  0.0022  0.2328
   75MOL   C11340221   1.116   0.182   7.638  0.1118  0.0605  0.4754
   75MOL   C11440222   0.987   0.226   7.711 -0.1957 -0.2319 -0.1427
   75MOL   O11540223   0.931   0.113   7.772 -0.2416 -0.0569 -0.7352
   75MOL   C11640224   0.819   0.071   7.720 -0.1790 -0.0097  0.4000
   75MOL   O11740225   0.768   0.108   7.615 -0.0567  0.3940 -0.0034
   75MOL   C11840226   0.745   7.767   7.800  0.0326 -0.1702  0.3126
   75MOL   C11940227   0.602   7.737   7.746  0.1874 -0.8806  0.1033
   75MOL   C12040228   0.829   7.641   7.803 -0.1154  0.3649 -0.1342
   75MOL   H12140229   1.274   0.277   7.333  1.1861  1.7297  0.2152
   75MOL   H12240230   1.372   0.230   7.479  0.0127 -0.1003  0.8138
   75MOL   H12340231   1.406   0.155   7.326  0.7581 -1.6357  2.4134
   75MOL   H12440232   1.201   0.039   7.320 -2.4433 -0.2532  0.5224
   75MOL   H12540233   1.270   0.004   7.474 -1.2264 -0.8041  0.3836
   75MOL   H12640234   1.052   0.233   7.435  0.6617 -1.0132 -2.1619
   75MOL   H12740235   1.017   0.080   7.473 -0.4713  0.6501 -0.9222
   75MOL   H12840236   1.193   0.259   7.633  0.1894  0.0557  1.5289
   75MOL   H12940237   1.159   0.096   7.691  4.3381  1.5518 -0.2993
   75MOL   H13040238   1.011   0.291   7.795 -1.2008 -2.0150  1.5818
   75MOL   H13140239   0.929   0.284   7.640  0.1535 -0.1020 -0.3231
   75MOL   H13240240   0.557   0.020   7.724 -0.7568 -1.3908 -0.2077
   75MOL   H13340241   0.607   7.673   7.658  2.2994  0.2628 -0.6638
   75MOL   H13440242   0.556   7.676   0.009 -0.4069  0.9415  1.2323
   75MOL   H13540243   0.918   7.680   0.039 -1.3267  3.8149 -0.5100
   75MOL   H13640244   0.791   7.579   0.070 -2.5647  1.9896  0.0138
   75MOL   C13740245   0.520   6.835   7.541  0.5020  0.4504  0.0766
   75MOL   C13840246   0.629   6.943   7.560 -0.5193  0.4241  0.2170
   75MOL   C13940247   0.565   7.070   7.627  0.6532 -0.1622 -0.1541
   75MOL   C14040248   0.665   7.167   7.667  0.2276 -0.2529 -0.4427
   75MOL   C14140249   0.606   7.287   7.736  0.2865 -0.2760  0.9765
   75MOL   O14240250   0.710   7.373   7.749  0.9781  0.2938  0.0412
   75MOL   C14340251   0.744   7.461   7.648  0.0014  0.8901 -0.8697
   75MOL   O14440252   0.685   7.475   7.541  0.4346 -0.2519 -0.3457
   75MOL   C14540253   0.868   7.548   7.687 -0.0297  0.9288 -0.2849
   75MOL   C14640254   0.920   7.620   7.554  0.3413 -0.0188  0.1952
   75MOL   C14740255   0.977   7.457   7.751  0.7022  0.1597 -0.5792
   75MOL   H14840256   0.571   6.738   7.541 -0.5757 -0.1240  0.1259
   75MOL   H14940257   0.456   6.851   7.454  1.8635 -1.5923 -1.3718
   75MOL   H15040258   0.464   6.843   7.633 -0.3740  0.4682 -0.4543
   75MOL   H15140259   0.669   6.976   7.464 -1.7502 -1.1014 -0.8405
   75MOL   H15240260   0.720   6.906   7.607  0.2892  1.4742 -0.4850
   75MOL   H15340261   0.507   7.118   7.548 -1.3064 -1.8346  0.2218
   75MOL   H15440262   0.494   7.058   7.709  1.2455  1.3815  0.6048
   75MOL   H15540263   0.733   7.116   7.735  0.3894 -0.3471 -0.6764
   75MOL   H15640264   0.720   7.188   7.575 -0.4056 -0.4437 -0.8665
   75MOL   H15740265   0.558   7.268   0.018 -1.0969 -0.2466  0.3140
   75MOL   H15840266   0.534   7.339   7.672 -2.3521 -1.2517  3.0473
   75MOL   H15940267   1.009   7.680   7.575 -0.2046  0.1625  1.9870
   75MOL   H16040268   0.843   7.693   7.531 -0.4976 -0.3533  1.8835
   75MOL   H16140269   0.950   7.565   7.464 -1.1757 -0.9636  0.2513
   75MOL   H16240270   1.052   7.521   7.797  0.3836 -1.7212  2.6706
   75MOL   H16340271   0.925   7.403   0.016  3.8034 -0.1151  1.3657
   75MOL   C16440272   1.568   7.124   7.233 -0.9990  0.3747  0.5980
   75MOL   C16540273   1.470   7.084   7.343  0.2408  0.1499  0.3578
   75MOL   C16640274   1.511   7.118   7.485  0.5882  0.9477  0.1788
   75MOL   C16740275   1.522   7.269   7.517  0.1096 -0.2044 -0.0129
   75MOL   C16840276   1.393   7.356   7.469 -0.3840  0.2603  0.3732
   75MOL   O16940277   1.281   7.311   7.549  0.5723  0.0556  0.9839
   75MOL   C17040278   1.192   7.410   7.606 -0.2247  0.3466 -0.7700
   75MOL   O17140279   1.210   7.530   7.597 -0.0215 -0.1823 -0.0263
   75MOL   C17240280   1.065   7.349   7.674  0.1041 -0.1895 -0.0396
   75MOL   C17340281   0.987   7.279   7.565 -0.1336 -0.6360  0.8317
   75MOL   C17440282   1.098   7.228   7.767 -0.1478 -0.3720 -0.1227
   75MOL   H17540283   1.659   7.068   7.252  0.5539  2.2746 -1.0197
   75MOL   H17640284   1.588   7.231   7.229  0.8208  0.0216 -0.3005
   75MOL   H17740285   1.518   7.092   7.142 -0.3543 -1.9135  1.0378
   75MOL   H17840286   1.457   6.976   7.339 -1.8207  0.4417 -1.1586
   75MOL   H17940287   1.373   7.129   7.325 -0.8826 -1.7268  1.5582
   75MOL   H18040288   1.433   7.072   7.547  0.7071 -1.0655 -1.1219
   75MOL   H18140289   1.602   7.067   7.515  0.3044 -1.2085 -2.4252
   75MOL   H18240290   1.611   7.299   7.463 -0.5937 -1.4733 -1.9097
   75MOL   H18340291   1.548   7.286   7.622  0.3305  0.8476 -0.2311
   75MOL   H18440292   1.369   7.340   7.363 -0.7067  0.7306  0.3761
   75MOL   H18540293   1.416   7.462   7.478 -2.2937  0.6396  0.9303
   75MOL   H18640294   0.936   7.358   7.509  1.0832 -0.4693 -0.0435
   75MOL   H18740295   0.913   7.206   7.599 -2.9890  1.6033 -0.2994
   75MOL   H18840296   1.051   7.229   7.494  0.2857 -0.2880  0.9612
   75MOL   H18940297   1.002   7.183   7.794 -0.1538 -1.1080 -1.3524
   75MOL   H19040298   1.153   7.154   7.708  0.3272  1.1102 -1.5590
   75MOL   C19140299   1.131   7.645   0.834  0.2185 -0.1703 -0.4249
   75MOL   C19240300   1.199   7.584   0.707 -0.2414  0.2484  0.0847
   75MOL   C19340301   1.097   7.558   0.603  0.3651 -0.5360 -0.5101
   75MOL   C19440302   1.159   7.517   0.470  0.4525  0.2555  0.7600
   75MOL   C19540303   1.050   7.493   0.356 -0.4879  0.1125  0.1880
   75MOL   O19640304   1.114   7.435   0.239 -0.6420  0.1733 -0.2383
   75MOL   C19740305   1.086   7.305   0.203  0.3837 -0.1082 -0.4334
   75MOL   O19840306   0.988   7.240   0.246 -0.0586  0.0269 -0.0093
   75MOL   C19940307   1.173   7.243   0.096  0.8673  0.3407  0.0131
   75MOL   C20040308   1.301   7.331   0.065 -0.8475  0.3268  0.2970
   75MOL   C20140309   1.213   7.093   0.140 -0.1987 -0.1603  0.0743
   75MOL   H20240310   1.057   7.719   0.804 -1.1449 -1.9890 -1.6808
   75MOL   H20340311   1.072   7.575   0.894  0.1690 -0.4105 -0.7486
   75MOL   H20440312   1.204   7.695   0.897 -1.7818 -0.2823  2.0674
   75MOL   H20540313   1.275   7.511   0.735  0.0984  0.7428  0.4615
   75MOL   H20640314   1.260   7.668   0.676 -0.8272  0.8469  0.5402
   75MOL   H20740315   1.042   7.651   0.587  1.6385  0.1819 -0.7244
   75MOL   H20840316   1.014   7.493   0.631  1.0614 -0.8716  0.7819
   75MOL   H20940317   1.250   7.569   0.439  0.3819 -1.2865 -2.3009
   75MOL   H21040318   1.205   7.420   0.488  2.8843  1.5551  1.7490
   75MOL   H21140319   0.959   7.438   0.384 -0.6362  0.1902 -0.1409
   75MOL   H21240320   1.014   7.592   0.327 -0.6208  0.1655  0.5279
   75MOL   H21340321   1.273   7.429   0.026 -1.5742  0.1427  0.3451
   75MOL   H21440322   1.364   7.276   7.809 -0.7071  0.9747 -0.0889
   75MOL   H21540323   1.366   7.358   0.148  0.7159 -0.7593 -0.5497
   75MOL   H21640324   1.282   7.062   0.062  0.6169 -0.2185  0.8177
   75MOL   H21740325   1.135   7.020   0.117 -0.3204  0.0235 -0.0967
   75MOL   C21840326   0.889   6.507   0.769 -0.2021 -0.4502  0.8117
   75MOL   C21940327   0.969   6.550   0.652  0.0090  0.5556  0.6463
   75MOL   C22040328   0.959   6.700   0.629 -0.1279 -0.3193 -0.4120
   75MOL   C22140329   1.025   6.751   0.498 -0.2330  0.4297 -0.0952
   75MOL   C22240330   1.002   6.899   0.476 -1.1794  0.8091 -0.5980
   75MOL   O22340331   1.098   6.944   0.376  0.0676 -0.2413  0.5043
   75MOL   C22440332   1.176   7.052   0.391 -0.3276  0.0057  0.2351
   75MOL   O22540333   1.170   7.118   0.488 -0.0711 -0.3932  0.0899
   75MOL   C22640334   1.288   7.062   0.283  0.5355  0.0517  0.0249
   75MOL   C22740335   1.383   7.178   0.329 -0.5700 -0.2551  0.2817
   75MOL   C22840336   1.366   6.925   0.290  0.4946 -0.0975  0.1294
   75MOL   H22940337   0.916   6.544   0.868 -1.0989  3.2624 -0.2435
   75MOL   H23040338   0.782   6.530   0.771 -0.1868 -0.3748  0.7604
   75MOL   H23140339   0.883   6.399   0.771  2.7607 -0.7940 -3.1241
   75MOL   H23240340   0.930   6.505   0.560  0.7964  1.6693 -0.2618
   75MOL   H23340341   1.069   6.507   0.651  0.0882  0.7384  0.9428
   75MOL   H23440342   1.012   6.741   0.715  1.2347 -1.8769 -0.5034
   75MOL   H23540343   0.852   6.718   0.639 -0.8750 -4.3589 -0.3189
   75MOL   H23640344   1.130   6.725   0.503 -0.0457  1.2944  0.3573
   75MOL   H23740345   0.992   6.684   0.418  0.6264 -0.8460  0.5915
   75MOL   H23840346   1.027   6.951   0.569  0.5040  0.0833 -0.6208
   75MOL   H23940347   0.899   6.915   0.445 -0.9335 -0.9339 -2.3849
   75MOL   H24040348   1.469   7.189   0.263  0.8055  0.9630  2.2342
   75MOL   H24140349   1.431   7.160   0.425 -1.2499 -0.3842  0.6003
   75MOL   H24240350   1.341   7.278   0.338  0.1166  0.0818 -0.2961
   75MOL   H24340351   1.293   6.861   0.240 -0.8389 -0.0829  2.0252
   75MOL   H24440352   1.358   6.894   0.394 -1.3217 -1.6995 -0.4531
   75MOL   C24540353   2.317   6.962   0.293 -0.2560  0.6393 -0.3027
   75MOL   C24640354   2.202   7.065   0.281  0.8989 -0.2066  0.1391
   75MOL   C24740355   2.060   7.022   0.330 -0.7230 -0.2089 -0.5303
   75MOL   C24840356   1.947   7.129   0.322 -1.2558 -0.4089  0.5532
   75MOL   C24940357   1.820   7.085   0.390  0.8324  0.0379  0.1648
   75MOL   O25040358   1.735   7.012   0.299 -0.1497  0.0589  0.4894
   75MOL   C25140359   1.612   6.967   0.351  0.0396  0.1681 -0.2445
   75MOL   O25240360   1.584   6.976   0.473 -0.1937 -0.1841  0.0421
   75MOL   C25340361   1.511   6.903   0.246 -0.3435 -0.1511 -0.3274
   75MOL   C25440362   1.526   6.971   0.109 -0.2135  0.0764  0.4439
   75MOL   C25540363   1.530   6.742   0.230 -0.3269  0.0162 -0.1482
   75MOL   H25640364   2.315   6.886   0.215  1.2474 -0.3976  0.6358
   75MOL   H25740365   2.417   7.007   0.284  0.1325 -0.1375  0.1151
   75MOL   H25840366   2.309   6.911   0.388 -0.5759  1.1039 -0.0791
   75MOL   H25940367   2.232   7.147   0.346  2.4449  1.1018 -2.1291
   75MOL   H26040368   2.206   7.108   0.181  0.5007 -0.1838  0.1321
   75MOL   H26140369   2.063   6.980   0.430  2.1379 -3.0912 -1.7365
   75MOL   H26240370   2.034   6.934   0.272 -0.5181  0.9409 -2.4407
   75MOL   H26340371   1.983   7.220   0.371  1.5669 -1.0862 -0.1955
   75MOL   H26440372   1.926   7.161   0.220 -2.2813 -1.5094  0.4148
   75MOL   H26540373   1.846   7.038   0.485 -0.6256 -3.4191 -1.0866
   75MOL   H26640374   1.762   7.173   0.416 -1.1032 -1.4094  0.8268
   75MOL   H26740375   1.620   6.941   0.062  0.0192 -3.0539  2.7768
   75MOL   H26840376   1.444   6.933   0.048  0.0830 -3.2148  1.9997
   75MOL   H26940377   1.533   7.080   0.110  0.7110  0.0554 -1.0543
   75MOL   H27040378   1.492   6.695   0.321 -1.1656 -1.9327 -1.4870
   75MOL   H27140379   1.459   6.707   0.156  0.3559 -0.8908 -0.3796
   75MOL   C27240380   2.208   6.630   0.864  0.4362  0.0035  0.6757
   75MOL   C27340381   2.147   6.634   0.726  0.5372 -0.6253 -0.1728
   75MOL   C27440382   2.011   6.700   0.721 -0.0081  0.3597 -0.5906
   75MOL   C27540383   1.967   6.708   0.571 -0.3087 -0.0177 -0.7741
   75MOL   C27640384   1.822   6.706   0.548 -0.2526  0.0263  0.2550
   75MOL   O27740385   1.792   6.728   0.408 -0.2937 -0.6800  0.5224
   75MOL   C27840386   1.734   6.629   0.341 -0.0051  0.4619  0.1799
   75MOL   O27940387   1.746   6.510   0.375 -0.2025  0.0144 -0.4318
   75MOL   C28040388   1.666   6.666   0.205 -0.1519 -0.8025  0.5151
   75MOL   C28140389   1.613   6.530   0.147 -0.0276  0.3459  0.0928
   75MOL   C28240390   1.771   6.736   0.107 -0.5666  0.2991  0.1486
   75MOL   H28340391   2.199   6.725   0.917  1.7609  0.5727 -0.1025
   75MOL   H28440392   2.165   6.557   0.932  0.6094  0.9775  1.8295
   75MOL   H28540393   2.314   6.609   0.848  0.6642  0.1641  1.9698
   75MOL   H28640394   2.223   6.659   0.652 -0.2700  3.2064  0.1668
   75MOL   H28740395   2.137   6.529   0.700 -2.0398 -0.5143  0.2325
   75MOL   H28840396   1.935   6.655   0.785 -1.1095 -0.2668 -2.3128
   75MOL   H28940397   2.023   6.801   0.760 -0.5445 -0.2021  1.1151
   75MOL   H29040398   2.018   6.792   0.524 -0.1273  0.0519 -0.4492
   75MOL   H29140399   1.992   6.619   0.513  2.1069  1.6253 -2.3215
   75MOL   H29240400   1.776   6.783   0.611  1.4524  1.6708 -0.4425
   75MOL   H29340401   1.791   6.609   0.585  0.8011 -0.2199  0.5164
   75MOL   H29440402   1.578   6.544   0.045  1.1668 -1.2591 -0.5510
   75MOL   H29540403   1.696   6.460   0.135 -0.1034  0.3601 -0.5588
   75MOL   H29640404   1.530   6.486   0.201 -0.4990 -0.5404 -1.3232
   75MOL   H29740405   1.721   6.770   0.017 -1.7226  1.0254  1.0452
   75MOL   H29840406   1.789   6.831   0.158 -2.2432  0.9623 -0.4741
   75MOL   C29940407   1.940   7.180   7.325  0.0791  0.1743 -1.0161
   75MOL   C30040408   2.080   7.154   7.361  0.5384 -0.0106 -0.0175
   75MOL   C30140409   2.096   7.128   7.512  0.3691 -0.3246  0.8641
   75MOL   C30240410   2.028   7.006   7.570 -0.4009 -0.2413  0.3873
   75MOL   C30340411   2.007   7.012   7.718 -0.3998 -0.1979 -0.7215
   75MOL   O30440412   1.930   6.901   7.771 -0.1188  0.4976  0.0585
   75MOL   C30540413   2.000   6.804   0.030  0.3446  0.2301  0.7864
   75MOL   O30640414   2.116   6.810   0.067 -0.2383 -0.1167  0.2678
   75MOL   C30740415   1.916   6.682   0.066  1.3302 -0.5458 -0.0579
   75MOL   C30840416   1.989   6.603   0.179  0.7471  0.4133  0.0839
   75MOL   C30940417   1.896   6.594   7.752  0.1636 -0.4619  0.0121
   75MOL   H31040418   1.865   7.103   7.340 -1.0839  1.3831 -0.5711
   75MOL   H31140419   1.943   7.195   7.217 -1.9997 -0.8338 -1.2409
   75MOL   H31240420   1.891   7.261   7.378 -0.8773  1.2656 -3.4661
   75MOL   H31340421   2.139   7.240   7.331  0.2897  0.8735  1.9901
   75MOL   H31440422   2.104   7.069   7.297  1.8646  1.3221 -1.3126
   75MOL   H31540423   2.062   7.217   7.564 -1.2773 -1.2423  1.3850
   75MOL   H31640424   2.202   7.132   7.536 -0.0369  2.6322  2.3544
   75MOL   H31740425   2.087   6.922   7.535  2.5269  1.6433  0.6435
   75MOL   H31840426   1.925   6.989   7.538  0.5446 -1.2971 -2.1997
   75MOL   H31940427   2.094   7.031   7.781 -0.3164 -0.4385 -0.7627
   75MOL   H32040428   1.949   7.102   7.735 -1.2647 -0.8769 -0.0447
   75MOL   H32140429   2.085   6.566   0.143  0.0194 -0.8020 -0.6685
   75MOL   H32240430   2.017   6.650   0.273  0.1605  0.8935  0.0191
   75MOL   H32340431   1.931   6.513   0.199  3.0396 -1.7282 -2.4559
   75MOL   H32440432   1.847   6.662   7.682  0.4045 -0.2959  0.0061
   75MOL   H32540433   1.808   6.534   7.776 -0.3621 -0.2194 -1.2117
   75MOL   C32640434   1.427   6.057   7.762  0.5550 -0.0444  0.5034
   75MOL   C32740435   1.546   6.059   0.048  0.1225  0.1402  0.5805
   75MOL   C32840436   1.669   6.153   0.005 -0.4285 -0.4152 -0.3647
   75MOL   C32940437   1.768   6.148   0.118 -0.6136  0.4317  0.1522
   75MOL   C33040438   1.904   6.191   0.066  0.8228  0.2870  0.0122
   75MOL   O33140439   1.904   6.321   7.813  0.2628  0.1289  0.4041
   75MOL   C33240440   2.019   6.374   7.756  0.2466  0.1504  0.9556
   75MOL   O33340441   2.136   6.332   7.776 -0.4834  0.0603  0.0829
   75MOL   C33440442   1.997   6.498   7.674 -0.1824 -0.1620  0.3571
   75MOL   C33540443   1.919   6.449   7.545  0.0756  0.1508 -0.0881
   75MOL   C33640444   2.129   6.570   7.637  0.2160 -0.5420 -0.1147
   75MOL   H33740445   1.398   6.149   7.713  3.4856  0.7801  0.2361
   75MOL   H33840446   1.339   6.009   7.806  0.2186 -0.1057 -0.2391
   75MOL   H33940447   1.453   5.985   7.684 -0.5533  0.1417 -0.0442
   75MOL   H34040448   1.567   5.955   0.075  1.4315 -0.4756 -2.6380
   75MOL   H34140449   1.507   6.101   0.141  0.2623  2.1750 -0.2504
   75MOL   H34240450   1.644   6.249   7.773 -0.8797 -0.5717 -0.4530
   75MOL   H34340451   1.714   6.107   7.731 -0.6096  0.1761 -0.7667
   75MOL   H34440452   1.777   6.043   0.146 -2.7000  0.1893  0.0027
   75MOL   H34540453   1.742   6.222   0.194  0.3150  1.2071 -0.2796
   75MOL   H34640454   1.933   6.128   7.795 -1.9988  0.0707 -0.8469
   75MOL   H34740455   1.981   6.201   0.143  1.0086 -0.9525 -0.0120
   75MOL   H34840456   1.976   6.369   7.498  0.0991 -0.2987  0.6927
   75MOL   H34940457   1.912   6.538   7.484  0.9596  0.2146 -0.1158
   75MOL   H35040458   1.816   6.422   7.569  0.4981  0.7443  2.6255
   75MOL   H35140459   2.176   6.577   7.735 -1.5049  2.1440  0.5820
   75MOL   H35240460   2.089   6.670   7.622  1.1280 -0.0354  0.7744
   75MOL   C35340461   1.677   6.673   7.397 -0.7841  0.3393  0.0480
   75MOL   C35440462   1.724   6.689   7.246 -0.0839 -0.6885 -0.5529
   75MOL   C35540463   1.870   6.662   7.227 -0.4764  0.6023  0.1838
   75MOL   C35640464   1.951   6.787   7.255  0.2192  0.1214 -0.3388
   75MOL   C35740465   2.102   6.758   7.252  0.2532 -0.5778  0.2475
   75MOL   O35840466   2.147   6.707   7.371  0.3889  0.3300 -0.2833
   75MOL   C35940467   2.176   6.573   7.386 -0.2723 -0.1137 -0.0129
   75MOL   O36040468   2.154   6.480   7.313 -0.4574 -0.8145 -0.1340
   75MOL   C36140469   2.232   6.541   7.527 -0.5035  0.2125  0.2811
   75MOL   C36240470   2.279   6.391   7.538 -0.1049 -0.0444 -0.5156
   75MOL   C36340471   2.346   6.647   7.569  0.2460  0.1408  0.4375
   75MOL   H36440472   1.583   6.725   7.415 -0.3742  1.3953 -0.7666
   75MOL   H36540473   1.746   6.712   7.472  0.5596 -2.0615  0.1162
   75MOL   H36640474   1.672   6.565   7.408 -1.1669  0.1378 -1.8806
   75MOL   H36740475   1.670   6.616   7.188 -2.8065  0.7870  0.0518
   75MOL   H36840476   1.688   6.786   7.211  0.9805 -0.4024 -0.8889
   75MOL   H36940477   1.881   6.640   7.120 -1.5131 -0.1907  0.2201
   75MOL   H37040478   1.907   6.571   7.274  1.1148  1.5848  0.8712
   75MOL   H37140479   1.926   6.834   7.350  1.9151  1.4772 -0.5297
   75MOL   H37240480   1.926   6.863   7.181  1.8622  1.0091 -0.0127
   75MOL   H37340481   2.107   6.681   7.176 -2.3686 -1.8557  1.3126
   75MOL   H37440482   2.159   6.849   7.231 -1.2882  0.5003  0.6121
   75MOL   H37540483   2.336   6.352   7.454  0.2846  1.1989 -0.8390
   75MOL   H37640484   2.339   6.372   7.626  0.0862 -1.7044 -1.0003
   75MOL   H37740485   2.199   6.317   7.539 -1.1390  1.0280  2.0178
   75MOL   H37840486   2.290   6.740   7.584 -2.2875 -1.7701  3.3427
   75MOL   H37940487   2.361   6.631   7.676 -0.2503 -1.1441  0.3207
   75MOL   C38040488   2.798   6.055   0.003  0.3061 -0.0790 -0.1266
   75MOL   C38140489   2.893   6.130   7.727  0.2268  0.1277 -0.1719
   75MOL   C38240490   2.823   6.186   7.600 -0.2646 -0.1634  0.0477
   75MOL   C38340491   2.740   6.309   7.632 -0.5407 -1.3281 -0.1913
   75MOL   C38440492   2.647   6.347   7.514  0.4897 -0.0038 -0.0353
   75MOL   O38540493   2.582   6.471   7.545  0.0497  0.1252 -0.2467
   75MOL   C38640494   2.534   6.544   7.440 -0.9246 -0.6624 -1.2319
   75MOL   O38740495   2.534   6.514   7.325 -0.3608  0.0424 -0.5595
   75MOL   C38840496   2.472   6.681   7.485  0.7371 -0.3444  0.0048
   75MOL   C38940497   2.434   6.762   7.358  0.4325 -0.2543 -0.6245
   75MOL   C39040498   2.575   6.755   7.583 -0.0897 -0.8630 -0.0583
   75MOL   H39140499   2.858   5.977   0.050 -0.5045 -0.3834  0.4257
   75MOL   H39240500   2.753   6.123   0.076  2.6671 -0.3681  1.6757
   75MOL   H39340501   2.718   6.003   7.765  1.5698  0.1705 -2.4039
   75MOL   H39440502   2.963   6.058   7.686 -0.3692 -0.2461 -0.5382
   75MOL   H39540503   2.943   6.204   7.791 -0.1963  0.0893  0.2105
   75MOL   H39640504   2.897   6.205   7.523  0.5207 -0.3781  0.7484
   75MOL   H39740505   2.751   6.112   7.563 -3.1960  1.6760  1.8069
   75MOL   H39840506   2.679   6.295   7.721  2.6257 -0.8294  2.1792
   75MOL   H39940507   2.805   6.392   7.663  0.9558 -2.7115  0.4340
   75MOL   H40040508   2.561   6.282   7.502 -0.2987  0.9743  0.2804
   75MOL   H40140509   2.708   6.353   7.423  1.1569  0.6205  0.4460
   75MOL   H40240510   2.520   6.805   7.308  0.6687  2.0236  1.6036
   75MOL   H40340511   2.351   6.832   7.371 -0.9489 -2.2423  1.6624
   75MOL   H40440512   2.398   6.694   7.281  0.7342  0.6694 -1.5941
   75MOL   H40540513   2.669   6.760   7.527  0.8757  2.0024  1.7064
   75MOL   H40640514   2.599   6.700   7.673  1.1544 -0.4832 -0.1462
   75MOL   C40740515   2.894   6.646   7.174 -0.3830  0.5696 -0.0717
   75MOL   C40840516   2.922   6.800   7.153 -0.0556 -0.4833  0.4253
   75MOL   C40940517   2.794   6.880   7.174 -0.3482 -0.1948  0.0324
   75MOL   C41040518   2.815   7.017   7.240 -0.2777  0.2459  0.3204
   75MOL   C41140519   2.690   7.056   7.319 -0.8940 -0.1311  0.3744
   75MOL   O41240520   2.670   6.985   7.440 -0.1304 -0.5122  0.4441
   75MOL   C41340521   2.564   7.004   7.519  0.2807  0.1529  0.0332
   75MOL   O41440522   2.469   7.084   7.504 -0.6822  0.3393  0.1102
   75MOL   C41540523   2.560   6.899   7.635 -0.2606 -0.4542 -0.0861
   75MOL   C41640524   2.428   6.915   7.719  0.1806 -0.2717 -0.3111
   75MOL   C41740525   2.670   6.920   7.751 -0.3423  0.5958 -0.2885
   75MOL   H41840526   2.986   6.589   7.180 -1.4733 -1.2019  0.2041
   75MOL   H41940527   2.843   6.619   7.267  1.7552 -2.6603  0.2362
   75MOL   H42040528   2.841   6.599   7.091 -2.0648  0.0026  1.3033
   75MOL   H42140529   2.970   6.815   7.057  1.5731  1.5589  1.5010
   75MOL   H42240530   2.999   6.829   7.226  1.2668  1.1385 -1.5546
   75MOL   H42340531   2.740   6.894   7.080 -2.3342  1.5701  1.3791
   75MOL   H42440532   2.723   6.817   7.228 -0.5109 -0.1184 -0.0903
   75MOL   H42540533   2.828   7.092   7.162 -1.3604  0.5080  0.3888
   75MOL   H42640534   2.904   7.017   7.303 -1.1016 -0.7288  1.4998
   75MOL   H42740535   2.684   7.163   7.338 -0.2367 -0.3521  1.8761
   75MOL   H42840536   2.604   7.040   7.254 -0.3488 -1.9826  0.0728
   75MOL   H42940537   2.417   6.826   7.780 -0.3300 -0.9570 -1.3845
   75MOL   H43040538   2.331   6.930   7.671  0.0438 -0.0960  0.0232
   75MOL   H43140539   2.431   7.009   7.775  0.1013  0.4112 -1.4294
   75MOL   H43240540   2.664   6.832   0.001 -1.8259 -0.1393 -1.4188
   75MOL   H43340541   2.632   6.998   0.003  0.3963 -0.2117  1.0928
   75MOL   C43440542   3.406   7.044   7.652  0.4614 -0.6323  0.8611
   75MOL   C43540543   3.391   7.089   7.508  0.5289 -0.3374 -1.1091
   75MOL   C43640544   3.241   7.112   7.479  0.3523 -0.4091 -0.5462
   75MOL   C43740545   3.177   7.226   7.553 -0.8286 -0.1556 -0.2412
   75MOL   C43840546   3.021   7.210   7.557  0.4183  0.3053 -0.4093
   75MOL   O43940547   2.982   7.098   7.623 -0.2567  0.4808  0.2271
   75MOL   C44040548   2.857   7.083   7.661  0.4680  0.4808  0.4616
   75MOL   O44140549   2.771   7.174   7.657  0.2991 -0.2499  0.7373
   75MOL   C44240550   2.823   6.943   7.726 -0.4117 -0.5932  0.9843
   75MOL   C44340551   2.888   6.836   7.636  0.3128  0.1135  0.2626
   75MOL   C44440552   2.903   6.933   0.052  0.3292 -0.1887 -0.1673
   75MOL   H44540553   3.336   6.964   7.674  1.2192 -1.9736 -1.3810
   75MOL   H44640554   3.505   7.002   7.667  0.9445  0.6974  1.4712
   75MOL   H44740555   3.398   7.130   7.718 -0.7424 -1.4985  1.8590
   75MOL   H44840556   3.445   7.180   7.481  0.6005 -0.2901 -0.8026
   75MOL   H44940557   3.418   7.001   7.450  0.0823 -1.1449 -0.0895
   75MOL   H45040558   3.228   7.127   7.372 -0.4919  0.3992 -0.3335
   75MOL   H45140559   3.180   7.022   7.492  0.8388 -0.9906 -2.1484
   75MOL   H45240560   3.188   7.319   7.497 -1.7147  0.1643  0.1098
   75MOL   H45340561   3.216   7.232   7.655 -0.2358  1.8399 -0.5683
   75MOL   H45440562   2.974   7.215   7.459 -0.7736 -1.9843  0.0033
   75MOL   H45540563   2.978   7.301   7.600 -0.6456  0.1090 -1.0358
   75MOL   H45640564   2.872   6.734   7.670 -4.3738 -0.2492 -2.6169
   75MOL   H45740565   2.850   6.845   7.535 -0.0234  0.4468  0.4185
   75MOL   H45840566   2.995   6.858   7.639  0.5509 -0.8225 -1.3548
   75MOL   H45940567   3.001   6.971   0.021 -0.6176  3.1458  0.7748
   75MOL   H46040568   2.913   6.826   0.075  0.2242 -0.4104 -1.1129
   75MOL   C46140569   2.683   7.092   0.915 -0.3974  0.0941 -1.1427
   75MOL   C46240570   2.756   7.139   0.787  0.1676 -0.1493  0.3303
   75MOL   C46340571   2.776   7.029   0.678  0.6190 -0.1713 -0.6790
   75MOL   C46440572   2.644   6.985   0.618 -0.8558 -0.0243  0.1487
   75MOL   C46540573   2.665   6.903   0.495 -0.2994  0.2798  0.1122
   75MOL   O46640574   2.730   6.986   0.386  0.3625  0.7662  0.1861
   75MOL   C46740575   2.769   6.922   0.271  0.7628 -0.3609  0.2364
   75MOL   O46840576   2.729   6.807   0.238  0.0883 -0.1338  0.1366
   75MOL   C46940577   2.862   7.008   0.188  0.6124  0.8110 -0.4330
   75MOL   C47040578   2.803   7.151   0.162  0.4460 -0.7867  0.8631
   75MOL   C47140579   2.998   7.024   0.272  0.8145 -0.0229 -0.2087
   75MOL   H47240580   2.582   7.056   0.895 -1.2937  2.2116 -0.5036
   75MOL   H47340581   2.675   7.169   0.992  1.3747  0.6356 -1.4876
   75MOL   H47440582   2.751   7.020   0.959 -1.4584 -0.0724  0.2443
   75MOL   H47540583   2.851   7.185   0.812 -0.3182  0.3516  1.3308
   75MOL   H47640584   2.690   7.218   0.750  0.2408  0.4061  1.3663
   75MOL   H47740585   2.840   6.953   0.721 -0.2493  1.3609  3.5780
   75MOL   H47840586   2.848   7.070   0.607  2.0021 -2.7114 -0.7891
   75MOL   H47940587   2.606   7.083   0.589  1.8351  0.1893 -2.9890
   75MOL   H48040588   2.570   6.940   0.684  0.5115 -2.2602  0.2007
   75MOL   H48140589   2.733   6.822   0.520  1.2411  1.0412 -1.5055
   75MOL   H48240590   2.572   6.863   0.454 -0.6780  0.9794  0.2711
   75MOL   H48340591   2.884   7.211   0.120  1.2356 -2.7910 -0.5536
   75MOL   H48440592   2.771   7.204   0.251 -1.2637  1.5147 -1.0526
   75MOL   H48540593   2.723   7.162   0.089  1.5549  0.2426 -0.2257
   75MOL   H48640594   2.962   7.081   0.358 -1.2230 -0.7229 -0.5774
   75MOL   H48740595   3.057   7.095   0.214 -0.5909  0.5155 -0.9981
   75MOL   C48840596   3.366   7.498   0.724 -0.1882 -0.0452  0.1368
   75MOL   C48940597   3.301   7.475   0.594 -0.3174 -0.3849 -0.4405
   75MOL   C49040598   3.178   7.387   0.601 -0.7507 -0.0484  0.2068
   75MOL   C49140599   3.204   7.243   0.647 -0.2982 -0.3331  0.2222
   75MOL   C49240600   3.277   7.151   0.543  0.2186  0.2588  0.0093
   75MOL   O49340601   3.169   7.082   0.477 -0.0955 -0.2516  0.0446
   75MOL   C49440602   3.204   6.990   0.381 -0.0328  0.1625  0.2163
   75MOL   O49540603   3.319   6.970   0.361  0.2552  0.0363  0.4073
   75MOL   C49640604   3.095   6.910   0.319  0.6125  0.2005 -0.2848
   75MOL   C49740605   3.150   6.813   0.206 -0.1231  0.2128  0.1235
   75MOL   C49840606   3.027   6.824   0.433  0.5853  0.0659 -0.1707
   75MOL   H49940607   3.406   7.408   0.771  0.3245 -0.4983 -1.1486
   75MOL   H50040608   3.454   7.562   0.715  0.9271 -1.5693 -0.0589
   75MOL   H50140609   3.303   7.545   0.800 -0.3344  0.2897 -0.1876
   75MOL   H50240610   3.369   7.433   0.520 -0.8435  0.4029 -1.3839
   75MOL   H50340611   3.271   7.566   0.543 -2.8753 -0.2596  1.2357
   75MOL   H50440612   3.114   7.449   0.663 -0.0052  2.0822 -1.1074
   75MOL   H50540613   3.137   7.378   0.501  2.1666  4.2813 -1.5375
   75MOL   H50640614   3.117   7.192   0.688 -1.2359  1.1226  0.0615
   75MOL   H50740615   3.262   7.238   0.740  1.2989 -1.7818 -0.8092
   75MOL   H50840616   3.326   7.214   0.468 -0.4399  0.5025 -0.2226
   75MOL   H50940617   3.347   7.076   0.580 -0.3309  0.6052  1.7819
   75MOL   H51040618   3.170   6.857   0.108  1.1738  0.2368  0.4009
   75MOL   H51140619   3.072   6.741   0.178 -0.9475  1.5296 -1.0269
   75MOL   H51240620   3.240   6.757   0.233  0.4517 -0.2290 -2.5624
   75MOL   H51340621   2.949   6.769   0.380  0.4597  0.2880 -0.2190
   75MOL   H51440622   2.978   6.895   0.499 -0.9710 -0.0630 -1.1573
   75MOL   C51540623   3.127   6.683   1.235 -0.0906 -0.5680 -0.2653
   75MOL   C51640624   3.045   6.809   1.229  1.0189 -0.8292  0.5387
   75MOL   C51740625   3.107   6.897   1.114 -0.1625 -0.1499 -0.6451
   75MOL   C51840626   3.094   6.827   0.968 -0.0886 -0.1491  0.4905
   75MOL   C51940627   3.128   6.922   0.851 -0.2374  0.3601  0.1741
   75MOL   O52040628   3.087   6.860   0.725  0.1629  0.0716  0.8667
   75MOL   C52140629   3.168   6.793   0.646  0.0909  0.8365 -0.4113
   75MOL   O52240630   3.294   6.796   0.656 -0.6524 -0.1437 -0.2470
   75MOL   C52340631   3.104   6.718   0.530  0.3309 -0.4263  0.1822
   75MOL   C52440632   3.206   6.620   0.475 -1.0571  0.3793  0.0733
   75MOL   C52540633   2.999   6.618   0.589  0.0026  0.2155  0.2853
   75MOL   H52640634   3.085   6.612   1.307 -1.5841 -1.6383 -2.1501
   75MOL   H52740635   3.131   6.635   1.137  1.0752 -1.8892  0.4139
   75MOL   H52840636   3.230   6.700   1.268 -1.0162 -0.2011  2.6016
   75MOL   H52940637   2.939   6.788   1.210  1.6660 -1.3746 -2.9144
   75MOL   H53040638   3.053   6.866   1.321 -0.9349 -1.0291  0.8584
   75MOL   H53140639   3.046   6.986   1.102  0.6848  0.5133 -0.0714
   75MOL   H53240640   3.211   6.924   1.130 -0.2300 -1.6540  2.7205
   75MOL   H53340641   2.988   6.812   0.946 -0.0733  0.4895 -0.0216
   75MOL   H53440642   3.153   6.736   0.960 -1.1130 -0.9135  1.5116
   75MOL   H53540643   3.085   7.022   0.856  0.1208  0.5438 -0.3808
   75MOL   H53640644   3.236   6.936   0.849  0.0348 -1.3143  1.8340
   75MOL   H53740645   3.286   6.674   0.425 -1.3597 -0.0073 -0.8376
   75MOL   H53840646   3.165   6.562   0.393 -0.8784 -0.5979  0.6743
   75MOL   H53940647   3.251   6.556   0.551  1.0981  0.5076 -1.0556
   75MOL   H54040648   2.936   6.682   0.650  1.2610  2.2711 -0.5275
   75MOL   H54140649   3.039   6.543   0.658 -3.3294 -2.8314 -0.9278
   75MOL   H54240650   2.939   6.567   0.514 -0.0633 -0.8218  1.0196
   76MOL     C140651   4.494   0.812   0.459 -0.0034 -0.1845  0.3152
   76MOL     C240652   4.486   0.872   0.317  0.0098  0.6383 -0.1649
   76MOL     C340653   4.610   0.846   0.229 -0.1674  0.2819 -0.3528
   76MOL     C440654   4.601   0.919   0.088 -0.0012  0.0114 -0.2141
   76MOL     C540655   4.522   0.848   7.790 -0.2917  0.4994  0.4868
   76MOL     O640656   4.593   0.724   7.771  0.6395  0.5262  0.5048
   76MOL     C740657   4.558   0.645   7.663 -0.0214 -0.3713  0.6408
   76MOL     O840658   4.482   0.676   7.577  0.0528 -0.0676 -0.2900
   76MOL     C940659   4.636   0.511   7.655  0.1676 -0.3419  0.4350
   76MOL    C1040660   4.605   0.429   7.783  0.1166 -0.4762 -0.1164
   76MOL    C1140661   4.781   0.548   7.622 -0.7882  0.4009  0.0450
   76MOL    H1240662   4.577   0.862   0.510 -0.0684  0.5140 -0.2568
   76MOL    H1340663   4.507   0.705   0.442  0.0456 -0.1540  0.1574
   76MOL    H1440664   4.400   0.828   0.512 -0.0684 -0.6615  0.3512
   76MOL    H1540665   4.397   0.846   0.259  0.3588  0.3209 -0.5609
   76MOL    H1640666   4.463   0.978   0.322 -2.3165  0.2956 -2.4922
   76MOL    H1740667   4.698   0.873   0.286 -0.1414 -0.5742  0.0298
   76MOL    H1840668   4.618   0.742   0.198  0.3755  0.6619 -1.5156
   76MOL    H1940669   4.706   0.942   0.074 -0.1149  0.8684  0.2800
   76MOL    H2040670   4.551   1.015   0.101  1.2587  0.3557  2.3058
   76MOL    H2140671   4.416   0.829   7.808  0.0104 -1.5449  0.2522
   76MOL    H2240672   4.530   0.901   7.695  1.3109 -1.6678 -0.6596
   76MOL    H2340673   4.597   0.321   7.770 -1.3768 -0.1483 -2.0843
   76MOL    H2440674   4.503   0.461   7.806  0.1186  0.3289 -1.2245
   76MOL    H2540675   4.655   0.475   0.055 -0.2474  0.4939 -0.4179
   76MOL    H2640676   4.824   0.609   7.701 -0.6365  0.3989 -0.0370
   76MOL    H2740677   4.776   0.620   7.541 -0.7411  0.9415  0.5230
   76MOL    H2840678   4.598   0.447   7.575  0.0450  0.5846 -0.2539
   76MOL    C2940679   5.341   0.207   7.122 -0.4246  0.7436 -0.1921
   76MOL    C3040680   5.271   0.082   7.168  0.0995  0.3275  0.4234
   76MOL    C3140681   5.156   0.108   7.263  0.5972  0.1173 -0.0403
   76MOL    C3240682   5.057   0.208   7.209 -0.0903  0.0286  0.3272
   76MOL    C3340683   4.921   0.206   7.286 -0.8231  0.0948 -0.0463
   76MOL    O3440684   4.934   0.270   7.413  0.3765  0.3648  0.7322
   76MOL    C3540685   4.858   0.377   7.448  0.6649 -0.6298 -0.3299
   76MOL    O3640686   4.769   0.423   7.379  0.6059 -0.7266 -0.4536
   76MOL    C3740687   4.890   0.443   7.585 -0.2684  0.4289  0.0258
   76MOL    C3840688   4.893   0.317   7.681  0.5273  0.0558  0.2139
   76MOL    C3940689   5.039   0.499   7.584  0.1483  0.7121 -0.0599
   76MOL    H4040690   5.288   0.271   7.050  0.2536  1.0292 -0.4419
   76MOL    H4140691   5.372   0.270   7.205 -1.6101  0.5074  0.4354
   76MOL    H4240692   5.441   0.179   7.090  0.0280  1.6793  0.3896
   76MOL    H4340693   5.346   0.020   7.217  0.4445 -0.4497 -1.0551
   76MOL    H4440694   5.244   0.042   7.070  1.9175  0.9376 -0.3681
   76MOL    H4540695   5.194   0.136   7.361  0.3615 -0.3958  0.2027
   76MOL    H4640696   5.108   0.011   7.277  0.8540 -0.4795 -3.0725
   76MOL    H4740697   5.102   0.306   7.196  0.8483 -0.4075  0.2244
   76MOL    H4840698   5.022   0.186   7.108 -0.8201  2.1388  0.0937
   76MOL    H4940699   4.897   0.105   7.319  0.2258 -0.2713 -0.3728
   76MOL    H5040700   4.836   0.242   7.228 -1.4953  2.0392  2.0712
   76MOL    H5140701   4.910   0.369   7.775  0.6670  2.1784 -0.9436
   76MOL    H5240702   4.980   0.255   7.661  1.0668  0.4897  1.2293
   76MOL    H5340703   4.801   0.259   7.678  0.7657 -0.3183  0.2120
   76MOL    H5440704   5.101   0.420   7.542 -0.8776 -0.9917  1.5532
   76MOL    H5540705   5.057   0.508   7.691 -1.2819  2.4925  0.0599
   76MOL    C5640706   4.753   1.033   7.216 -0.6906 -0.2686 -0.0401
   76MOL    C5740707   4.762   1.073   7.365  1.0630 -0.8441  0.6057
   76MOL    C5840708   4.738   0.947   7.453 -0.0974 -0.8845  0.5490
   76MOL    C5940709   4.801   0.985   7.586 -0.7710 -0.3731  0.0443
   76MOL    C6040710   4.956   0.994   7.596  0.4142 -0.3996  0.1558
   76MOL    O6140711   5.004   0.881   7.531 -0.4656  0.0296  0.4559
   76MOL    C6240712   5.019   0.760   7.598 -1.0828 -0.3248 -0.1391
   76MOL    O6340713   5.002   0.751   7.717  0.3122  0.6464  0.3195
   76MOL    C6440714   5.075   0.640   7.515  0.0254  0.2554  0.2746
   76MOL    C6540715   5.022   0.645   7.365 -0.0777  0.3554  0.6178
   76MOL    C6640716   5.235   0.650   7.503 -0.5901  0.2992 -0.4509
   76MOL    H6740717   4.821   0.949   7.199  2.5753  2.4280 -0.7415
   76MOL    H6840718   4.803   1.105   7.151 -0.7414  2.4248  2.8004
   76MOL    H6940719   4.652   1.014   7.181 -1.3784  0.1501  1.6798
   76MOL    H7040720   4.860   1.120   7.367  0.3664  0.6200  1.1652
   76MOL    H7140721   4.691   1.152   7.390  1.2513 -0.0477 -1.3001
   76MOL    H7240722   4.633   0.919   7.455  0.1675 -2.1620 -2.0527
   76MOL    H7340723   4.787   0.862   7.406 -0.3216 -0.5368 -0.3139
   76MOL    H7440724   4.774   0.914   7.665  2.5344 -0.3885  1.2616
   76MOL    H7540725   4.758   1.075   7.629 -0.1356  0.4050 -0.9136
   76MOL    H7640726   4.998   1.084   7.553 -1.3703 -0.0179 -0.8280
   76MOL    H7740727   4.981   0.981   7.702  1.6345 -1.6993 -0.2684
   76MOL    H7840728   5.061   0.560   7.310 -0.6763  1.3923 -1.4434
   76MOL    H7940729   5.061   0.735   7.317 -0.2159  0.1785  0.1808
   76MOL    H8040730   4.915   0.667   7.359  0.2726  1.4871 -2.3680
   76MOL    H8140731   5.252   0.751   7.465  0.4299  0.1604 -0.3728
   76MOL    H8240732   5.257   0.568   7.434  0.3627 -0.5870  0.8724
   76MOL    C8340733   5.392   1.402   7.458 -0.7169 -0.2375 -0.0849
   76MOL    C8440734   5.427   1.283   7.552 -0.1110 -0.7768  0.4012
   76MOL    C8540735   5.315   1.193   7.598 -0.2998  0.2041  0.2718
   76MOL    C8640736   5.360   1.109   7.714 -0.2251 -0.8872 -0.2704
   76MOL    C8740737   5.269   0.989   7.750  0.3270  0.3027  0.3762
   76MOL    O8840738   5.304   0.868   7.684  0.1478 -0.2095 -0.2338
   76MOL    C8940739   5.311   0.745   7.731 -0.0346 -0.1641  0.5317
   76MOL    O9040740   5.318   0.722   0.036  0.1482 -0.0984 -0.1975
   76MOL    C9140741   5.342   0.643   7.620  0.4094 -0.8105 -0.2559
   76MOL    C9240742   5.335   0.496   7.683 -0.6214 -0.9645  0.0566
   76MOL    C9340743   5.491   0.672   7.582  0.1677  0.0210  0.0795
   76MOL    H9440744   5.312   1.462   7.501  1.7919  2.1822  1.4274
   76MOL    H9540745   5.478   1.462   7.428 -0.8794  0.9310  1.6824
   76MOL    H9640746   5.352   1.367   7.363  0.5786  0.1051 -0.7633
   76MOL    H9740747   5.478   1.323   7.640 -2.0917  0.8162  0.8500
   76MOL    H9840748   5.507   1.223   7.508 -0.1063  0.5896 -1.4992
   76MOL    H9940749   5.294   1.135   7.509 -0.2410 -1.7938  1.5395
   76MOL   H10040750   5.219   1.238   7.626 -1.6333 -1.0115 -2.1785
   76MOL   H10140751   5.363   1.180   7.797 -0.4225  0.7603 -1.6519
   76MOL   H10240752   5.456   1.061   7.698  0.1012 -0.6405  0.8613
   76MOL   H10340753   5.171   1.016   7.710  0.0364 -0.9365  0.2518
   76MOL   H10440754   5.258   0.980   0.044 -2.8395 -1.4680 -0.0359
   76MOL   H10540755   5.263   0.481   7.764 -0.7283  0.1203  0.1647
   76MOL   H10640756   5.432   0.476   7.727 -0.3128  1.3832  0.5093
   76MOL   H10740757   5.324   0.415   7.611  2.0790 -0.9015 -0.4635
   76MOL   H10840758   5.509   0.779   7.569  0.2428 -0.0505 -0.4144
   76MOL   H10940759   5.547   0.642   7.671  2.3656  0.8612 -0.9736
   76MOL   C11040760   5.110   1.213   7.255  0.5050 -1.1990  0.5685
   76MOL   C11140761   5.142   1.125   7.132 -0.3760 -0.0837  0.4015
   76MOL   C11240762   5.284   1.059   7.125  0.0762  0.6227 -0.0490
   76MOL   C11340763   5.308   0.944   7.227 -0.0951  0.4321 -0.3983
   76MOL   C11440764   5.448   0.884   7.198  0.1984  0.2587  0.0129
   76MOL   O11540765   5.501   0.811   7.310  0.6637  0.3681 -0.0642
   76MOL   C11640766   5.498   0.678   7.324 -0.2868 -0.7853  0.0794
   76MOL   O11740767   5.456   0.605   7.234  0.1467  0.1378  0.3546
   76MOL   C11840768   5.563   0.620   7.450 -0.0382 -0.3346  0.8735
   76MOL   C11940769   5.561   0.467   7.447 -0.2032  1.0577  0.1136
   76MOL   C12040770   5.710   0.678   7.466  0.2976  0.1725  0.1803
   76MOL   H12140771   5.124   1.180   7.359  0.6784  0.5935  1.1292
   76MOL   H12240772   5.152   1.314   7.255  1.5309 -1.6167  1.0745
   76MOL   H12340773   5.009   1.255   7.254  1.2581  0.7271  2.2794
   76MOL   H12440774   5.064   1.050   7.116 -0.4793  0.2407 -0.6927
   76MOL   H12540775   5.132   1.192   7.046  0.1812  0.2489  0.5960
   76MOL   H12640776   5.280   1.014   7.026  0.9502 -0.4950  0.4047
   76MOL   H12740777   5.364   1.133   7.132 -0.5983  1.3108  0.4152
   76MOL   H12840778   5.219   0.883   7.240  0.5875 -0.5584 -0.3137
   76MOL   H12940779   5.323   0.988   7.326 -0.8585  1.1888 -0.6102
   76MOL   H13040780   5.446   0.830   7.103 -1.1340  3.0184 -1.5952
   76MOL   H13140781   5.522   0.959   7.169  0.2871  0.3842  0.5663
   76MOL   H13240782   5.462   0.424   7.452  0.3474 -0.2061  0.2409
   76MOL   H13340783   5.608   0.426   7.358  2.9022  1.8411  1.3145
   76MOL   H13440784   5.615   0.420   7.530  1.3886  0.3856 -1.2757
   76MOL   H13540785   5.708   0.787   7.463  3.2398  0.3546  2.3954
   76MOL   H13640786   5.738   0.655   7.569 -2.0383 -2.2460  0.3139
   76MOL   C13740787   5.815   7.669   7.662 -0.0361 -0.1966 -0.2196
   76MOL   C13840788   5.759   7.812   7.675 -0.4289  0.1837 -0.0541
   76MOL   C13940789   5.878   0.096   7.675 -0.2549  0.3452 -0.0680
   76MOL   C14040790   5.818   0.232   7.621 -0.5828 -0.9182  0.1632
   76MOL   C14140791   5.912   0.347   7.609 -0.2439 -0.3270  0.1561
   76MOL   O14240792   5.862   0.460   7.545  0.7427 -0.6720  0.8998
   76MOL   C14340793   5.876   0.485   7.410 -0.0144  0.1213  0.8544
   76MOL   O14440794   5.905   0.395   7.327  0.0337  0.1923 -0.2294
   76MOL   C14540795   5.832   0.626   7.376 -0.3971  0.0950 -0.5450
   76MOL   C14640796   5.806   0.641   7.227  0.1453 -0.5669 -0.1552
   76MOL   C14740797   5.960   0.716   7.419 -0.6280 -0.2930 -0.5429
   76MOL   H14840798   5.856   7.652   7.563  1.4939  1.0282  0.1854
   76MOL   H14940799   5.730   7.601   7.667 -0.9242  0.8785 -0.6619
   76MOL   H15040800   5.899   7.646   7.728 -2.0602 -2.6563  1.6264
   76MOL   H15140801   5.697   0.001   7.765 -0.3224  1.5346 -0.0224
   76MOL   H15240802   5.688   0.001   7.593 -0.9870 -0.9397  0.3724
   76MOL   H15340803   5.918   0.099   7.777  1.8433 -0.7495 -0.8287
   76MOL   H15440804   5.958   0.062   7.610  2.5777  2.2778  2.2476
   76MOL   H15540805   5.772   0.209   7.524 -2.9728 -2.3617  1.5704
   76MOL   H15640806   5.740   0.272   7.685 -1.1873  0.9001 -1.6624
   76MOL   H15740807   6.006   0.314   7.564  0.1753 -0.0734  0.8452
   76MOL   H15840808   5.935   0.383   7.709  1.7084  0.1981 -0.4474
   76MOL   H15940809   5.896   0.616   7.170 -0.1015  1.1099 -1.3114
   76MOL   H16040810   5.770   0.740   7.199  0.7023  0.4190  2.4904
   76MOL   H16140811   5.738   0.561   7.198 -0.3845 -0.6178  1.2114
   76MOL   H16240812   5.927   0.810   7.465  1.8523 -0.3697  1.5060
   76MOL   H16340813   6.020   0.675   7.500 -0.6854  1.2148  0.2887
   76MOL   C16440814   5.768   1.430   7.319 -0.3967  0.0045  0.0710
   76MOL   C16540815   5.687   1.371   7.208  0.2662  0.4911 -0.0261
   76MOL   C16640816   5.769   1.257   7.136 -0.4957 -1.3709 -0.3339
   76MOL   C16740817   5.804   1.141   7.230 -0.0998  0.2805 -0.1388
   76MOL   C16840818   5.894   1.035   7.154 -0.1315 -0.1776 -0.6201
   76MOL   O16940819   5.948   0.946   7.255  0.1773 -0.0324 -0.5426
   76MOL   C17040820   6.023   0.848   7.215 -0.0962  0.3609 -0.5186
   76MOL   O17140821   6.054   0.825   7.098 -0.5260 -0.1235  0.1902
   76MOL   C17240822   6.079   0.758   7.330  0.2785 -0.6714  0.6381
   76MOL   C17340823   6.156   0.634   7.278  0.5057  0.0936 -0.1000
   76MOL   C17440824   6.176   0.843   7.414 -1.2155  0.4184  0.6524
   76MOL   H17540825   5.747   1.537   7.324  1.7020  0.4539 -0.1015
   76MOL   H17640826   5.876   1.416   7.308 -0.7138 -0.9879 -2.0020
   76MOL   H17740827   5.746   1.376   7.411 -0.3076  0.4679  0.3658
   76MOL   H17840828   5.657   1.456   7.147  0.2547  0.2006 -0.4224
   76MOL   H17940829   5.596   1.340   7.259  0.5991 -0.3820  0.0433
   76MOL   H18040830   5.699   1.229   7.057 -0.2891 -1.6926 -0.4060
   76MOL   H18140831   5.856   1.300   7.087 -1.4574  0.0905 -0.7769
   76MOL   H18240832   5.715   1.084   7.258 -0.5368  0.4803 -1.0918
   76MOL   H18340833   5.847   1.164   7.327  2.5380 -1.3828 -0.8614
   76MOL   H18440834   5.978   1.097   7.121 -0.0440  0.9909  1.6479
   76MOL   H18540835   5.857   0.981   7.067 -3.5259  2.2253 -0.7571
   76MOL   H18640836   6.154   0.558   7.356 -0.3399  0.6963  0.4611
   76MOL   H18740837   6.264   0.646   7.270  0.4728  1.5146  1.3489
   76MOL   H18840838   6.119   0.598   7.182 -0.4217  3.2323 -0.9591
   76MOL   H18940839   6.115   0.905   7.480 -0.8011 -0.1747  1.6017
   76MOL   H19040840   6.212   0.765   7.482 -2.8599 -1.0210 -0.0917
   76MOL   C19140841   6.698   1.073   6.817  0.2944  0.0547 -0.6511
   76MOL   C19240842   6.701   0.915   6.834 -0.9348 -0.8765  0.3300
   76MOL   C19340843   6.613   0.867   6.942 -0.3158  0.5058 -0.5759
   76MOL   C19440844   6.461   0.907   6.924  0.4705 -1.0904 -0.2015
   76MOL   C19540845   6.373   0.836   7.015 -0.0154  0.6883 -0.5493
   76MOL   O19640846   6.332   0.903   7.129 -0.4120 -0.2729  0.1606
   76MOL   C19740847   6.386   0.878   7.247 -0.1151 -0.1101  0.7884
   76MOL   O19840848   6.488   0.811   7.253 -0.8159 -0.2392 -0.0741
   76MOL   C19940849   6.305   0.939   7.366 -0.1238  0.1511 -0.0354
   76MOL   C20040850   6.403   0.933   7.491  0.3621  0.0009 -0.0912
   76MOL   C20140851   6.240   1.081   7.339 -0.0745  0.1768  0.0141
   76MOL   H20240852   6.723   1.125   6.910 -2.8238 -0.9669  0.8061
   76MOL   H20340853   6.771   1.116   6.749 -1.4515 -1.0974 -3.3346
   76MOL   H20440854   6.604   1.122   6.792 -0.8547 -0.3710  2.5132
   76MOL   H20540855   6.803   0.884   6.860 -1.5495 -2.6229  0.7355
   76MOL   H20640856   6.680   0.854   6.747  0.9916 -2.7545  1.1298
   76MOL   H20740857   6.651   0.889   7.042 -0.0230 -2.9661  0.1583
   76MOL   H20840858   6.615   0.758   6.941 -1.4610  0.4716  0.0197
   76MOL   H20940859   6.443   1.015   6.930  1.8056 -0.9629  2.4240
   76MOL   H21040860   6.435   0.867   6.826  1.3636 -2.4712  0.1141
   76MOL   H21140861   6.273   0.828   6.972 -0.7878  0.1024  1.2901
   76MOL   H21240862   6.412   0.738   7.042 -2.0086  0.4977  1.8083
   76MOL   H21340863   6.440   0.833   7.514 -2.0281 -0.5301  1.6196
   76MOL   H21440864   6.370   0.981   7.582 -0.6704 -0.2085 -0.3447
   76MOL   H21540865   6.501   0.970   7.460  0.5071 -1.1957 -1.1594
   76MOL   H21640866   6.200   1.105   7.438  0.6308  1.0253  0.0920
   76MOL   H21740867   6.151   1.074   7.275  1.0739 -0.0778 -1.5902
   76MOL   C21840868   5.834   1.275   6.593  0.6602  0.1293  0.4465
   76MOL   C21940869   5.891   1.325   6.717 -0.1566  0.0982 -0.1063
   76MOL   C22040870   6.032   1.271   6.745  0.2641  0.3380  0.9607
   76MOL   C22140871   6.061   1.269   6.897 -0.1444  0.3320  0.9021
   76MOL   C22240872   6.202   1.220   6.932  0.2229  0.0286 -0.3377
   76MOL   O22340873   6.218   1.216   7.079  0.1990 -0.0709  0.3985
   76MOL   C22440874   6.332   1.216   7.140 -0.0642 -0.2586 -0.3541
   76MOL   O22540875   6.440   1.215   7.084  0.2306 -0.3328  0.5844
   76MOL   C22640876   6.322   1.211   7.293  0.6583  0.3140  0.7940
   76MOL   C22740877   6.470   1.211   7.346 -0.3427  0.6223  0.4371
   76MOL   C22840878   6.245   1.333   7.360  0.6863 -0.4791  0.1920
   76MOL   H22940879   5.883   1.309   6.502 -0.6381  1.1945  0.1388
   76MOL   H23040880   5.823   1.166   6.591  1.7029  0.0315 -1.2215
   76MOL   H23140881   5.731   1.307   6.577  0.2615 -1.6292 -0.6585
   76MOL   H23240882   5.820   1.321   6.799 -0.0411  0.7014  0.0263
   76MOL   H23340883   5.901   1.433   6.703 -1.2850  0.5072  2.0579
   76MOL   H23440884   6.092   1.342   6.689  0.6836  0.5780  1.7086
   76MOL   H23540885   6.032   1.170   6.703 -1.7235  1.1805 -1.2192
   76MOL   H23640886   6.029   1.361   6.946 -0.0287  2.2043 -2.3284
   76MOL   H23740887   5.988   1.200   6.940  1.6012 -1.5702  0.8991
   76MOL   H23840888   6.280   1.285   6.893  0.6658 -0.1287  0.2840
   76MOL   H23940889   6.238   1.120   6.909  1.5231  0.5079 -0.3970
   76MOL   H24040890   6.530   1.301   7.335  1.0405 -0.4327 -0.9574
   76MOL   H24140891   6.526   1.134   7.292  1.7007  1.7686  0.8551
   76MOL   H24240892   6.478   1.181   7.450 -0.9005  2.0101  0.8932
   76MOL   H24340893   6.238   1.327   7.469 -1.5738  1.2565  0.1768
   76MOL   H24440894   6.141   1.328   7.328  0.5991 -1.5900  0.5955
   76MOL   C24540895   6.745   1.700   0.168  0.4030 -0.4652  0.1860
   76MOL   C24640896   6.621   1.724   0.083  0.5069  0.1170  0.5541
   76MOL   C24740897   6.530   1.595   0.086  0.0819  0.1828  0.0009
   76MOL   C24840898   6.427   1.590   7.782 -0.2302  0.0325  0.0879
   76MOL   C24940899   6.490   1.559   7.648 -0.3243 -0.2615  0.9062
   76MOL   O25040900   6.387   1.518   7.556 -0.0982 -0.4475  0.4777
   76MOL   C25140901   6.410   1.528   7.425  0.5875 -0.3648  0.2533
   76MOL   O25240902   6.517   1.561   7.379 -0.3881 -0.3224 -0.2360
   76MOL   C25340903   6.283   1.486   7.335 -0.6257 -0.2841 -0.3047
   76MOL   C25440904   6.163   1.565   7.404 -0.4355  0.0203  0.3267
   76MOL   C25540905   6.300   1.524   7.179  0.6312 -0.0350  0.9036
   76MOL   H25640906   6.828   1.760   0.132 -1.4969  2.0626 -0.1498
   76MOL   H25740907   6.738   1.709   0.276 -2.4573 -3.5977  0.3492
   76MOL   H25840908   6.787   1.601   0.150 -0.4395 -1.0412  1.2969
   76MOL   H25940909   6.562   1.808   0.120  0.3345  0.0853  0.3524
   76MOL   H26040910   6.661   1.748   7.798  0.6034  0.7256  0.7355
   76MOL   H26140911   6.492   1.572   0.185  1.9172 -1.5937  0.3190
   76MOL   H26240912   6.586   1.502   0.074 -3.5216 -2.1629  0.3700
   76MOL   H26340913   6.359   1.510   7.813 -2.6189  1.4869 -1.2403
   76MOL   H26440914   6.370   1.682   7.790  0.9769  0.8434 -0.4438
   76MOL   H26540915   6.535   1.650   7.607 -1.8567 -0.0616 -0.3870
   76MOL   H26640916   6.565   1.481   7.636  0.9392  1.0503  0.1189
   76MOL   H26740917   6.063   1.556   7.362  1.3407 -2.0456 -3.7651
   76MOL   H26840918   6.141   1.523   7.502  0.3029 -2.3844 -0.5019
   76MOL   H26940919   6.190   1.664   7.439 -1.0081 -0.8827  3.4234
   76MOL   H27040920   6.400   1.483   7.167  0.8811  0.7718  0.1954
   76MOL   H27140921   6.227   1.462   7.125 -0.0513  0.4150  1.2953
   76MOL   C27240922   5.599   2.007   6.819 -0.1509 -0.2561 -0.5344
   76MOL   C27340923   5.740   1.963   6.848 -0.3399 -0.6128  0.4832
   76MOL   C27440924   5.751   1.858   6.956  0.7592 -0.0303 -0.1678
   76MOL   C27540925   5.891   1.808   6.971 -0.0884 -0.8334  1.1012
   76MOL   C27640926   5.910   1.686   7.070 -0.3917 -0.0761  0.0674
   76MOL   O27740927   6.050   1.639   7.077  0.4297 -0.2962 -0.2736
   76MOL   C27840928   6.147   1.715   7.135 -0.4072 -0.3261 -0.4853
   76MOL   O27940929   6.122   1.812   7.208 -0.0294 -0.2258 -0.4884
   76MOL   C28040930   6.292   1.668   7.116 -0.4806  0.8179  0.5806
   76MOL   C28140931   6.385   1.761   7.194 -0.2524 -0.1339  0.5079
   76MOL   C28240932   6.348   1.651   6.969 -0.2919 -0.5558 -0.5494
   76MOL   H28340933   5.532   1.929   6.782 -0.0712 -0.3514 -0.4764
   76MOL   H28440934   5.551   2.046   6.908 -1.4195 -1.8092 -0.4963
   76MOL   H28540935   5.596   2.084   6.742 -0.8303  0.6533  0.3983
   76MOL   H28640936   5.777   1.925   6.753 -2.3328  2.1477 -1.4855
   76MOL   H28740937   5.806   2.046   6.873 -0.4055 -0.3531 -0.2111
   76MOL   H28840938   5.729   1.901   7.053  0.1874 -0.2101 -0.2193
   76MOL   H28940939   5.685   1.777   6.923 -2.2658  2.8061 -1.4064
   76MOL   H29040940   5.920   1.767   6.874  2.0104  2.0694  0.4336
   76MOL   H29140941   5.955   1.893   6.996 -2.2765  0.5473  2.1936
   76MOL   H29240942   5.844   1.609   7.030 -1.1809 -1.0250  3.0606
   76MOL   H29340943   5.878   1.727   7.166 -3.8160 -0.2469 -0.9231
   76MOL   H29440944   6.489   1.736   7.177  0.3006  2.0575  0.5140
   76MOL   H29540945   6.380   1.869   7.180 -1.7832 -0.3527 -0.7782
   76MOL   H29640946   6.354   1.747   7.298 -0.4912 -1.3179  0.2902
   76MOL   H29740947   6.456   1.641   6.973 -0.0333  2.2567  0.7069
   76MOL   H29840948   6.317   1.553   6.935  0.3928  0.0844 -3.1638
   76MOL   C29940949   5.772   2.018   6.358 -0.0990  0.1522 -0.3046
   76MOL   C30040950   5.863   1.910   6.295 -0.0677 -0.0374  0.2924
   76MOL   C30140951   5.890   1.799   6.394 -0.1289 -0.0176  0.5225
   76MOL   C30240952   5.984   1.841   6.507  0.5033  0.7124  0.3919
   76MOL   C30340953   6.019   1.727   6.607 -0.2518  0.0911 -0.0368
   76MOL   O30440954   6.142   1.765   6.677  0.3676  0.9013  0.0854
   76MOL   C30540955   6.172   1.696   6.782 -0.1132  0.4001 -0.6114
   76MOL   O30640956   6.102   1.600   6.814  0.5808  0.0989 -0.7581
   76MOL   C30740957   6.304   1.750   6.851 -0.1318 -0.2082 -0.9022
   76MOL   C30840958   6.291   1.898   6.892  0.4532 -0.0529  0.1833
   76MOL   C30940959   6.422   1.752   6.745 -0.2671  0.0942  0.2465
   76MOL   H31040960   5.760   2.088   6.275 -0.4572 -1.2648 -1.4753
   76MOL   H31140961   5.806   2.064   6.451 -2.1169  0.5998  0.2495
   76MOL   H31240962   5.683   1.960   6.381 -0.9131  1.4770 -0.0441
   76MOL   H31340963   5.960   1.940   6.257  0.6408 -1.5959  0.8108
   76MOL   H31440964   5.823   1.869   6.202  0.6429  1.7168 -0.8097
   76MOL   H31540965   5.937   1.714   6.344 -0.9529  0.7967 -1.6996
   76MOL   H31640966   5.796   1.760   6.434 -0.8488  1.1946  0.0414
   76MOL   H31740967   5.934   1.909   6.576  0.5596 -1.5583  2.7317
   76MOL   H31840968   6.075   1.886   6.468  1.1578  0.0434  1.1247
   76MOL   H31940969   5.932   1.706   6.669  0.6195 -2.0167  0.5350
   76MOL   H32040970   6.041   1.630   6.562  2.0385  0.9193 -0.7724
   76MOL   H32140971   6.193   1.900   6.940  0.0706  1.0835 -0.6284
   76MOL   H32240972   6.371   1.930   6.958  0.4909  0.4858 -0.1198
   76MOL   H32340973   6.271   1.965   6.809 -2.7996 -0.8198  0.2680
   76MOL   H32440974   6.507   1.801   6.793 -0.9105 -0.0736  1.5607
   76MOL   H32540975   6.387   1.830   6.678 -0.6078  1.1470  1.6202
   76MOL   C32640976   7.090   1.522   6.865 -0.3287  0.5210  0.8863
   76MOL   C32740977   6.977   1.447   6.924 -0.6649  0.3267  0.0937
   76MOL   C32840978   6.869   1.538   6.969  0.6727 -0.2685 -0.2728
   76MOL   C32940979   6.742   1.475   7.021  0.5671 -0.7947  0.5714
   76MOL   C33040980   6.655   1.433   6.907  0.1697  0.8530 -0.1809
   76MOL   O33140981   6.597   1.536   6.824  0.0309  0.6982 -0.1405
   76MOL   C33240982   6.510   1.509   6.732  0.3053 -0.8294  0.2799
   76MOL   O33340983   6.477   1.389   6.717 -0.1063 -0.8271  0.1555
   76MOL   C33440984   6.472   1.636   6.650 -0.1356  1.0962  0.2841
   76MOL   C33540985   6.365   1.599   6.548  0.1598  0.4309 -0.1466
   76MOL   C33640986   6.605   1.688   6.574 -0.7879 -0.0303  0.4069
   76MOL   H33740987   7.171   1.458   6.830  0.3483  0.3269  2.7650
   76MOL   H33840988   7.147   1.579   6.939 -0.6285 -0.2854  1.7451
   76MOL   H33940989   7.069   1.584   6.777  0.6355 -1.3119 -0.6759
   76MOL   H34040990   7.018   1.406   7.016  0.9920  0.3580 -0.6094
   76MOL   H34140991   6.943   1.364   6.862 -0.8338  0.0516  0.5513
   76MOL   H34240992   6.850   1.606   6.886 -0.2232  0.4309  0.5012
   76MOL   H34340993   6.911   1.598   7.049  1.9274 -1.7740  0.2302
   76MOL   H34440994   6.682   1.543   7.082 -1.5221  0.8563 -3.1791
   76MOL   H34540995   6.757   1.391   7.089 -0.9124 -1.0379  0.5956
   76MOL   H34640996   6.572   1.375   6.946  0.5377  1.3960  1.4358
   76MOL   H34740997   6.717   1.371   6.842  0.0577  0.1634  0.3672
   76MOL   H34840998   6.326   1.678   6.483 -3.5015 -0.1461  1.2109
   76MOL   H34940999   6.283   1.540   6.589  0.1388 -0.8062 -1.9104
   76MOL   H35041000   6.417   1.541   6.472 -1.0719 -0.1851 -0.5477
   76MOL   H35141001   6.686   1.701   6.647 -1.6904  0.2148  1.3736
   76MOL   H35241002   6.573   1.791   6.558  0.5434  0.6862  2.1203
   76MOL   C35341003   6.072   2.187   6.211 -0.0549  0.0809 -0.0977
   76MOL   C35441004   6.185   2.115   6.287  0.1786  0.0027  0.4305
   76MOL   C35541005   6.258   2.005   6.216  0.3787  0.4903  0.2001
   76MOL   C35641006   6.366   1.931   6.296 -0.3587 -0.4546 -0.2068
   76MOL   C35741007   6.483   1.865   6.220  0.2635 -0.6631 -0.6466
   76MOL   O35841008   6.574   1.814   6.310 -0.2578 -0.5167  0.0123
   76MOL   C35941009   6.591   1.675   6.318  0.3584 -0.4263  0.1878
   76MOL   O36041010   6.525   1.587   6.252 -0.4195  0.7924 -0.5459
   76MOL   C36141011   6.676   1.629   6.443 -0.2375  0.0410  0.9598
   76MOL   C36241012   6.699   1.478   6.456  0.6541  0.5785 -0.2734
   76MOL   C36341013   6.813   1.693   6.443 -0.0311 -0.1343  0.2476
   76MOL   H36441014   6.121   2.242   6.131  0.4991 -0.9104 -0.4431
   76MOL   H36541015   6.016   2.261   6.269  0.1174 -0.7928  1.1951
   76MOL   H36641016   5.998   2.118   6.170 -1.6574  1.1085  0.9813
   76MOL   H36741017   6.248   2.196   6.324 -0.2380  0.3860  0.3167
   76MOL   H36841018   6.138   2.064   6.372  0.3280 -0.7261  0.0782
   76MOL   H36941019   6.307   2.047   6.128 -1.1467 -0.5379 -1.1757
   76MOL   H37041020   6.179   1.935   6.189 -0.8077  2.5373 -1.7627
   76MOL   H37141021   6.318   1.861   6.364 -2.6683 -0.5095 -1.8271
   76MOL   H37241022   6.422   2.006   6.353  0.3961 -1.8191  0.8871
   76MOL   H37341023   6.427   1.789   6.165  0.5288 -2.3206  1.3393
   76MOL   H37441024   6.540   1.931   6.155  2.2312 -2.4710 -0.8244
   76MOL   H37541025   6.619   1.416   6.496  2.8425 -0.9826  1.8834
   76MOL   H37641026   6.720   1.424   6.364 -0.5720  0.9220 -0.7617
   76MOL   H37741027   6.780   1.455   6.526 -1.7162 -1.2149  1.9797
   76MOL   H37841028   6.803   1.801   6.440 -2.5606 -0.3256  0.6929
   76MOL   H37941029   6.865   1.674   6.537  0.0911  1.4308  0.5055
   76MOL   C38041030   7.036   2.024   6.860  0.3508 -0.5221 -0.0442
   76MOL   C38141031   7.134   2.041   6.739 -0.2966  0.2196 -0.0021
   76MOL   C38241032   7.162   1.921   6.647  0.1027 -0.1963 -0.3905
   76MOL   C38341033   7.208   1.960   6.506  0.1996 -0.2993  0.2816
   76MOL   C38441034   7.242   1.845   6.413  0.4549  0.4821  0.6567
   76MOL   O38541035   7.131   1.744   6.414  0.1341  0.2774 -0.3098
   76MOL   C38641036   7.023   1.762   6.345  0.0176 -0.1407 -0.3816
   76MOL   O38741037   7.000   1.861   6.278 -0.6471 -0.0890 -0.1221
   76MOL   C38841038   6.924   1.644   6.338 -0.4498 -0.8028 -0.4514
   76MOL   C38941039   6.992   1.516   6.391  0.8447 -0.7372  0.3987
   76MOL   C39041040   6.864   1.622   6.193 -0.1492 -0.5922 -0.5175
   76MOL   H39141041   7.069   1.948   6.931  0.7581 -1.0386 -0.7732
   76MOL   H39241042   7.020   2.123   6.904 -1.2279 -0.0128 -1.7043
   76MOL   H39341043   6.941   1.992   6.817  1.6988 -2.2459 -1.8243
   76MOL   H39441044   7.227   2.061   6.793 -0.5350  0.7157  0.2299
   76MOL   H39541045   7.105   2.129   6.682  0.3190 -0.6837 -1.7319
   76MOL   H39641046   7.240   1.852   6.681  0.2105 -0.5209 -1.2910
   76MOL   H39741047   7.073   1.858   6.639  0.3845 -0.4014 -2.0829
   76MOL   H39841048   7.125   2.014   6.461 -0.0686 -0.1582  0.9370
   76MOL   H39941049   7.293   2.028   6.509 -1.3297  1.7134 -0.4591
   76MOL   H40041050   7.320   1.791   6.467  1.0734  0.9213  0.2137
   76MOL   H40141051   7.270   1.890   6.318 -0.0584  0.4163  0.4735
   76MOL   H40241052   6.947   1.433   6.337 -0.5514  0.4338 -0.2781
   76MOL   H40341053   6.988   1.499   6.499  0.9845  1.1685  0.7312
   76MOL   H40441054   7.099   1.504   6.376  0.5935 -2.2623 -0.2142
   76MOL   H40541055   6.820   1.718   6.166  0.9745  0.5032  1.4334
   76MOL   H40641056   6.784   1.548   6.200  2.2316 -3.2527 -0.4183
   76MOL   C40741057   6.356   1.148   6.128  0.5570  0.5197  0.4968
   76MOL   C40841058   6.486   1.083   6.077 -0.4433 -1.2254 -0.3499
   76MOL   C40941059   6.611   1.155   6.127  0.1354  0.2707  0.7697
   76MOL   C41041060   6.746   1.118   6.059  0.0321 -0.0216 -0.3030
   76MOL   C41141061   6.864   1.202   6.120 -0.2912 -0.4156  0.0643
   76MOL   O41241062   6.850   1.341   6.082  1.0353  0.1543  0.6837
   76MOL   C41341063   6.963   1.414   6.090 -0.1509 -0.0898  0.3100
   76MOL   O41441064   7.071   1.367   6.121  0.4065 -0.4846 -0.4977
   76MOL   C41541065   6.948   1.571   6.071  0.1156  0.1574  0.5341
   76MOL   C41641066   6.855   1.598   5.947  0.2783  0.4207 -0.2935
   76MOL   C41741067   7.087   1.645   6.057  0.0478 -0.1599 -0.5444
   76MOL   H41841068   6.378   1.198   6.222 -2.4159  2.6102  0.1708
   76MOL   H41941069   6.316   1.225   6.061  1.4565  1.3205  0.8706
   76MOL   H42041070   6.279   1.082   6.168  1.5229 -1.3221 -0.6494
   76MOL   H42141071   6.492   1.070   5.969  0.4104 -0.4784 -0.3978
   76MOL   H42241072   6.503   0.980   6.107 -1.4934 -1.0164  0.9842
   76MOL   H42341073   6.605   1.262   6.112  1.6354 -0.0853 -2.9540
   76MOL   H42441074   6.630   1.141   6.233  0.3689  1.6508  0.9189
   76MOL   H42541075   6.752   1.126   5.950 -1.4972 -0.2362 -0.4189
   76MOL   H42641076   6.762   1.015   6.092 -2.9503 -0.2326  0.6249
   76MOL   H42741077   6.876   1.206   6.229 -0.1989  0.5405  0.0237
   76MOL   H42841078   6.960   1.163   6.089 -0.4088  0.2298 -1.1565
   76MOL   H42941079   6.901   1.566   5.853  0.9070 -1.7712  0.7373
   76MOL   H43041080   6.835   1.705   5.938 -1.0512  0.3913  1.9498
   76MOL   H43141081   6.753   1.560   5.960 -0.5577  2.8462  0.6205
   76MOL   H43241082   7.146   1.591   6.130  0.3349 -2.8217 -2.6885
   76MOL   H43341083   7.084   1.748   6.093 -0.1695  0.3107 -1.8922
   76MOL   C43441084   7.396   2.287   5.760  0.1944 -0.3151 -0.0676
   76MOL   C43541085   7.257   2.257   5.816 -0.1733  0.1060  0.0270
   76MOL   C43641086   7.193   2.128   5.770  0.0025 -0.3755 -0.1974
   76MOL   C43741087   7.051   2.102   5.823 -0.2242  0.0840  0.0204
   76MOL   C43841088   7.002   1.960   5.785  0.1084 -0.2702 -0.2540
   76MOL   O43941089   7.065   1.865   5.871  0.1625 -0.2473  0.4942
   76MOL   C44041090   7.102   1.743   5.825 -0.7010  0.0933  0.1707
   76MOL   O44141091   7.081   1.702   5.707  0.0925  0.2852  0.4987
   76MOL   C44241092   7.173   1.650   5.922  0.3495  0.9186 -0.3797
   76MOL   C44341093   7.197   1.510   5.861 -0.3649 -0.1224  0.2203
   76MOL   C44441094   7.315   1.701   5.967  0.2088 -0.3394 -0.1503
   76MOL   H44541095   7.475   2.231   5.810 -0.4022  0.4020  1.7211
   76MOL   H44641096   7.405   2.268   5.653  1.4021  0.0707 -0.0377
   76MOL   H44741097   7.428   2.390   5.772 -0.9397  0.4192 -2.9211
   76MOL   H44841098   7.255   2.255   5.925 -0.9103 -0.2580  0.0098
   76MOL   H44941099   7.196   2.341   5.782  0.7251  0.1141 -1.5947
   76MOL   H45041100   7.189   2.120   5.661 -0.6779 -1.8756 -0.0716
   76MOL   H45141101   7.251   2.045   5.812 -0.0877  0.0961  0.8635
   76MOL   H45241102   6.982   2.168   5.771  1.5982  2.5749  0.6456
   76MOL   H45341103   7.051   2.132   5.928 -2.4936  0.0086  0.0601
   76MOL   H45441104   7.017   1.942   5.678 -1.4458 -0.4201 -0.4573
   76MOL   H45541105   6.898   1.941   5.811 -0.2823  0.8681 -0.9414
   76MOL   H45641106   7.239   1.437   5.929 -1.1072 -1.0943 -0.3483
   76MOL   H45741107   7.109   1.460   5.819 -1.2694  1.5828  0.0489
   76MOL   H45841108   7.256   1.524   5.771 -3.0521 -1.5603 -1.8497
   76MOL   H45941109   7.345   1.654   6.060  1.5425  1.2359  0.2523
   76MOL   H46041110   7.282   1.799   6.002  2.6915  0.8750 -1.0776
   76MOL   C46141111   0.054   1.550   6.374  0.0552 -0.2094  0.1544
   76MOL   C46241112   0.063   1.703   6.341  0.5908 -0.3432 -0.1804
   76MOL   C46341113   7.735   1.758   6.292 -0.3260 -0.0311 -0.2427
   76MOL   C46441114   7.744   1.869   6.184  0.3298 -0.1038  0.3726
   76MOL   C46541115   7.606   1.930   6.142 -0.0709 -0.4838 -0.4003
   76MOL   O46641116   7.549   1.817   6.063 -0.2809  0.4014 -0.5046
   76MOL   C46741117   7.525   1.834   5.930  0.1288  0.5309  0.5033
   76MOL   O46841118   7.535   1.938   5.867 -0.3794 -0.4401 -0.1538
   76MOL   C46941119   7.446   1.711   5.876  0.6400 -0.6318 -0.6632
   76MOL   C47041120   7.409   1.745   5.737 -0.0120  0.1773  0.4012
   76MOL   C47141121   7.525   1.570   5.884 -0.7334  0.4580  0.1910
   76MOL   H47241122   7.794   1.543   6.455  1.1042 -1.6284  1.0146
   76MOL   H47341123   0.150   1.516   6.412 -0.2629 -0.4404  0.7677
   76MOL   H47441124   0.011   1.496   6.290  0.8358 -0.6380  0.0294
   76MOL   H47541125   0.140   1.717   6.264  2.4280  2.1820  2.0128
   76MOL   H47641126   0.095   1.757   6.430  0.1860  1.3767 -1.0440
   76MOL   H47741127   7.700   1.796   6.388 -0.4575  4.4265 -1.9340
   76MOL   H47841128   7.665   1.681   6.259 -1.3614  1.2771 -1.1472
   76MOL   H47941129   7.795   1.825   6.098 -0.3759 -1.8086  0.8126
   76MOL   H48041130   7.810   1.953   6.205 -0.4075  0.2561  1.2729
   76MOL   H48141131   7.545   1.959   6.227  0.6101 -1.4835  0.4446
   76MOL   H48241132   7.608   2.019   6.080 -3.3135 -1.9120 -2.6870
   76MOL   H48341133   7.343   1.832   5.746  0.7805  0.8684 -0.3236
   76MOL   H48441134   7.352   1.670   5.683  0.0382 -1.8476  3.0584
   76MOL   H48541135   7.489   1.775   5.670 -2.4783  0.5968 -2.4882
   76MOL   H48641136   7.456   1.487   5.866 -0.2731 -0.1457  1.1905
   76MOL   H48741137   7.541   1.556   5.991 -3.1837  0.2325  0.5682
   76MOL   C48841138   7.806   1.071   5.290  0.4004 -0.6329 -0.3580
   76MOL   C48941139   0.041   1.147   5.416  0.0904 -0.1141 -0.0520
   76MOL   C49041140   7.746   1.193   5.504 -0.2850 -0.0571  0.2151
   76MOL   C49141141   7.625   1.270   5.430  0.8099 -0.2262 -0.0897
   76MOL   C49241142   7.510   1.309   5.530 -0.1050  0.2519  0.0960
   76MOL   O49341143   7.559   1.369   5.653  0.2802  0.2340 -0.0580
   76MOL   C49441144   7.597   1.495   5.659 -0.4767  0.2519 -0.1708
   76MOL   O49541145   7.587   1.572   5.566  0.0749 -0.0169 -0.1391
   76MOL   C49641146   7.651   1.531   5.797 -0.7020  0.2349 -0.1117
   76MOL   C49741147   7.719   1.410   5.864 -0.0522  0.6348 -0.0474
   76MOL   C49841148   7.756   1.651   5.787  0.0413  0.0563  0.1879
   76MOL   H49941149   7.723   1.109   5.231 -0.1071 -1.0552  0.0820
   76MOL   H50041150   0.076   1.074   5.221  1.3003  1.2719  0.7717
   76MOL   H50141151   7.782   0.970   5.321 -1.4265 -0.6604 -1.7701
   76MOL   H50241152   0.110   1.230   5.401 -0.1308 -0.1201 -1.1384
   76MOL   H50341153   0.101   1.075   5.470  0.2430  0.0232 -0.0387
   76MOL   H50441154   7.704   1.107   5.556  0.7600 -1.3169 -0.9542
   76MOL   H50541155   7.788   1.261   5.578  0.0131  1.3567 -1.2034
   76MOL   H50641156   7.583   1.196   5.362  1.3734 -2.6135  2.1032
   76MOL   H50741157   7.672   1.354   5.379  2.8786 -0.6175  1.0831
   76MOL   H50841158   7.449   1.388   5.485 -0.6099 -0.5486 -0.6445
   76MOL   H50941159   7.445   1.222   5.534  0.3418 -0.0294  1.3752
   76MOL   H51041160   7.640   1.344   5.899 -0.0526  1.4315  1.5135
   76MOL   H51141161   7.784   1.443   5.945  1.5727  1.1037 -1.4994
   76MOL   H51241162   7.788   1.366   5.791  1.0998  0.4119  1.1579
   76MOL   H51341163   7.757   1.699   5.885 -1.1546  0.4679  0.0034
   76MOL   H51441164   7.707   1.725   5.724  0.8960  0.6927  0.2667
   76MOL   C51541165   0.218   2.029   5.088  0.0045  0.1560  0.1775
   76MOL   C51641166   0.102   1.926   5.099  0.6829 -0.2294  0.0596
   76MOL   C51741167   0.104   1.862   5.238  0.0329 -0.1328  0.1445
   76MOL   C51841168   7.807   1.753   5.258  0.0165  0.8194 -0.0580
   76MOL   C51941169   0.032   1.633   5.358 -0.2694  0.6399  0.2884
   76MOL   O52041170   0.058   1.681   5.493 -0.1276 -0.5595  0.2581
   76MOL   C52141171   0.096   1.593   5.585  0.2602  0.2328  0.4725
   76MOL   O52241172   0.135   1.475   5.563  0.4908 -0.4029 -0.6687
   76MOL   C52341173   0.087   1.642   5.733 -0.0367  1.0932 -0.1142
   76MOL   C52441174   0.181   1.562   5.825 -0.6699 -0.1955 -0.6257
   76MOL   C52541175   0.141   1.788   5.744 -0.3259 -0.1644 -0.1726
   76MOL   H52641176   0.316   1.987   5.064  0.0198  0.4131 -0.1985
   76MOL   H52741177   0.207   2.095   5.003 -2.7138  0.0861  0.4329
   76MOL   H52841178   0.218   2.091   5.178 -0.9610 -0.9554  0.9549
   76MOL   H52941179   0.008   1.972   5.068  1.5153 -0.0661 -2.3230
   76MOL   H53041180   0.111   1.846   5.026 -2.2072  0.2034 -0.8184
   76MOL   H53141181   0.200   1.820   5.266  0.2104  1.0744  1.3962
   76MOL   H53241182   0.087   1.942   5.311  0.5407  0.8689 -0.8199
   76MOL   H53341183   7.785   1.705   5.163 -1.3103  0.6717  0.3139
   76MOL   H53441184   7.721   1.796   5.309  1.4204  2.8091  0.7291
   76MOL   H53541185   7.766   1.560   5.367  0.6677 -0.1209  2.7117
   76MOL   H53641186   0.125   1.587   5.327 -0.0103  0.3789  1.4533
   76MOL   H53741187   0.156   1.592   5.927 -0.0629  0.9761 -0.8085
   76MOL   H53841188   0.286   1.588   5.810 -1.3085  1.4492 -2.2986
   76MOL   H53941189   0.177   1.453   5.824  0.1191 -0.2386 -0.0254
   76MOL   H54041190   0.135   1.825   5.846 -0.9186 -1.2572  0.1915
   76MOL   H54141191   0.080   1.860   5.688  0.7160  2.6861  2.2078
   76MOL   H54241192   0.243   1.779   5.707  0.4303  0.2686  1.7983
   77MOL     C141193   7.794   3.436   4.114 -0.6696 -0.2990  0.5945
   77MOL     C241194   7.789   3.430   4.270 -0.2726  0.4211  0.0006
   77MOL     C341195   7.717   3.307   4.331 -0.0946 -0.0626  0.4217
   77MOL     C441196   7.708   3.310   4.480  0.1378 -0.3775  0.3481
   77MOL     C541197   7.624   3.193   4.531  0.2419 -0.2783 -0.2532
   77MOL     O641198   7.630   3.184   4.668  0.7714  0.5884 -0.7262
   77MOL     C741199   7.531   3.234   4.738  0.4755 -0.1360 -0.0915
   77MOL     O841200   7.449   3.322   4.701 -0.3270 -0.3400  0.4844
   77MOL     C941201   7.525   3.171   4.879 -0.3413 -0.0882 -0.1253
   77MOL    C1041202   7.643   3.207   4.967 -0.2604 -0.1529 -1.1510
   77MOL    C1141203   7.488   3.015   4.875 -0.1847 -0.3955 -0.3864
   77MOL    H1241204   0.054   3.512   4.088 -2.4679  1.0031 -0.8379
   77MOL    H1341205   7.703   3.472   4.065 -1.4412 -1.9219  0.8100
   77MOL    H1441206   0.004   3.339   4.070  0.5880  1.3498 -2.4980
   77MOL    H1541207   0.079   3.433   4.301 -0.7545  0.1408  1.6685
   77MOL    H1641208   7.750   3.519   4.320  0.2581  0.8619 -0.3551
   77MOL    H1741209   7.614   3.306   4.294  0.4148 -0.5698 -1.0346
   77MOL    H1841210   7.762   3.213   4.300  1.8724  0.6308  1.1542
   77MOL    H1941211   7.671   3.407   4.514 -1.7688 -1.7411  2.3351
   77MOL    H2041212   7.804   3.299   4.531  0.9509  2.7276 -0.4226
   77MOL    H2141213   7.520   3.192   4.496  0.2630  0.8661 -0.3846
   77MOL    H2241214   7.678   3.106   4.494  2.2662  0.9424 -0.2514
   77MOL    H2341215   7.721   3.132   4.957 -0.4191 -0.6281  0.9113
   77MOL    H2441216   7.612   3.195   5.071 -2.6887  1.6466 -1.6327
   77MOL    H2541217   7.690   3.301   4.939  1.0361 -0.3549  0.2557
   77MOL    H2641218   7.515   2.978   4.974 -2.1740 -2.3393 -0.5341
   77MOL    H2741219   7.561   2.964   4.813 -0.8752 -1.9928  0.0931
   77MOL    H2841220   7.443   3.213   4.938 -0.5220  0.9286 -1.0756
   77MOL    C2941221   7.269   2.457   5.453  0.4244 -0.5621  0.0386
   77MOL    C3041222   7.200   2.445   5.315 -0.1796 -0.3886  0.3178
   77MOL    C3141223   7.283   2.476   5.193 -0.2335 -0.3748  0.4474
   77MOL    C3241224   7.285   2.621   5.162 -0.7762  0.1116  0.2010
   77MOL    C3341225   7.334   2.648   5.021 -0.1617  0.2434  0.8248
   77MOL    O3441226   7.356   2.791   4.987 -0.1896 -0.0815  0.1178
   77MOL    C3541227   7.346   2.828   4.863  0.0955 -0.2188 -0.1970
   77MOL    O3641228   7.329   2.752   4.766  0.2677  0.1736 -0.1545
   77MOL    C3741229   7.341   2.980   4.842  0.3439 -0.0324  0.4789
   77MOL    C3841230   7.310   3.006   4.693 -0.0279  0.0700 -0.0033
   77MOL    C3941231   7.234   3.058   4.935  0.4562  0.1516 -0.1418
   77MOL    H4041232   7.218   2.387   5.520 -0.0684  1.1629  1.4943
   77MOL    H4141233   7.373   2.426   5.461  0.6081 -0.2144 -0.9374
   77MOL    H4241234   7.268   2.560   5.489  0.5581 -1.3262  2.3332
   77MOL    H4341235   7.107   2.502   5.318 -0.3725 -0.6012 -1.3513
   77MOL    H4441236   7.166   2.344   5.292  1.3575 -0.6578 -0.8420
   77MOL    H4541237   7.244   2.432   5.101  2.0263  2.5853 -2.0324
   77MOL    H4641238   7.384   2.438   5.207 -0.2380 -0.2493  0.8211
   77MOL    H4741239   7.185   2.663   5.164 -0.7061  0.4145 -1.5462
   77MOL    H4841240   7.338   2.670   5.244  0.1977  2.4835 -1.7657
   77MOL    H4941241   7.256   2.608   4.956  1.9906  0.6790 -2.1392
   77MOL    H5041242   7.436   2.613   5.006 -0.8106 -1.1595 -0.4485
   77MOL    H5141243   7.400   2.974   4.640 -0.3002  1.2612 -1.2231
   77MOL    H5241244   7.294   3.112   4.676 -2.3173 -0.2614 -0.0689
   77MOL    H5341245   7.239   2.941   4.642  1.3150 -0.3936 -1.3705
   77MOL    H5441246   7.251   3.165   4.925  0.7954  0.1696  0.6241
   77MOL    H5541247   7.255   3.041   5.040  1.1946  0.3527 -0.2522
   77MOL    C5641248   7.045   2.543   4.337  0.3823 -0.2888 -0.0919
   77MOL    C5741249   6.913   2.519   4.410 -0.6082 -0.6307  0.4809
   77MOL    C5841250   6.926   2.564   4.561  0.3449  0.1299 -0.2062
   77MOL    C5941251   6.975   2.712   4.590  0.5426 -0.0788 -0.0508
   77MOL    C6041252   6.982   2.736   4.738  0.5106 -0.1531  0.0859
   77MOL    O6141253   7.003   2.876   4.771 -0.3461 -0.4640 -0.0185
   77MOL    C6241254   7.043   2.907   4.892 -0.2536 -0.2882  0.1342
   77MOL    O6341255   7.056   2.828   4.989 -0.2104  0.2339 -0.2566
   77MOL    C6441256   7.077   3.052   4.915  0.1218 -0.1197 -0.0117
   77MOL    C6541257   7.027   3.152   4.803 -0.2998 -0.4089 -0.2495
   77MOL    C6641258   7.021   3.105   5.052 -0.2940  0.0973  0.5276
   77MOL    H6741259   7.013   2.503   4.241 -0.1359  1.1845 -0.5395
   77MOL    H6841260   7.125   2.477   4.370  4.1502  3.0824 -2.1528
   77MOL    H6941261   7.072   2.646   4.317  0.1085 -0.0323  0.8559
   77MOL    H7041262   6.839   2.572   4.351 -1.5538 -2.9576 -0.5218
   77MOL    H7141263   6.879   2.416   4.393 -0.0812 -0.5408 -1.2425
   77MOL    H7241264   6.828   2.548   4.605 -0.1726  2.9446 -0.2433
   77MOL    H7341265   6.997   2.497   4.609  0.9602  1.4637  0.8024
   77MOL    H7441266   6.902   2.770   4.533 -0.4762  0.1847  1.4867
   77MOL    H7541267   7.076   2.731   4.555  0.1811 -0.2064 -1.1782
   77MOL    H7641268   6.891   2.703   4.789 -1.1879  2.1427 -1.3794
   77MOL    H7741269   7.060   2.672   4.780 -0.6294 -0.0357  2.4917
   77MOL    H7841270   6.949   3.113   4.737 -0.9871 -0.9301  0.8688
   77MOL    H7941271   7.109   3.176   4.734 -0.5172  1.0858 -0.0036
   77MOL    H8041272   6.997   3.249   4.842  0.2815  0.0535 -0.9326
   77MOL    H8141273   7.073   3.199   5.073  2.2733 -1.3742  0.8835
   77MOL    H8241274   7.059   3.038   5.129  2.3899  1.8154  0.7612
   77MOL    C8341275   6.970   3.160   5.946  0.4926 -0.5469 -0.0624
   77MOL    C8441276   6.973   3.109   5.802 -0.1866  0.8749  0.4372
   77MOL    C8541277   6.942   3.210   5.693 -0.1315 -0.1951 -0.1382
   77MOL    C8641278   6.958   3.153   5.559 -0.8477  0.0286 -0.1581
   77MOL    C8741279   6.917   3.251   5.443 -0.4422 -0.2704  0.2634
   77MOL    O8841280   6.928   3.176   5.322  0.1014 -0.3680 -0.0758
   77MOL    C8941281   6.854   3.217   5.216 -0.1757 -0.5020 -0.4691
   77MOL    O9041282   6.781   3.317   5.211  0.5027  0.4038 -0.3928
   77MOL    C9141283   6.866   3.120   5.093 -0.2028  0.4941 -0.5147
   77MOL    C9241284   6.782   3.194   4.982 -0.3787 -0.2956 -0.1902
   77MOL    C9341285   6.811   2.967   5.113 -0.1089  0.1273 -0.0245
   77MOL    H9441286   7.000   3.086   6.020  0.0273 -0.3996  0.2792
   77MOL    H9541287   7.021   3.256   5.950 -0.7775  0.2367 -1.9934
   77MOL    H9641288   6.870   3.192   5.976 -0.0083 -0.8998 -1.3442
   77MOL    H9741289   6.907   3.024   5.784  1.5121 -0.5077  0.6131
   77MOL    H9841290   7.070   3.076   5.764 -0.7315 -0.7400  0.3906
   77MOL    H9941291   7.007   3.297   5.705  0.2614 -0.7811  2.4124
   77MOL   H10041292   6.842   3.253   5.697  0.0743  0.3259 -0.5589
   77MOL   H10141293   6.901   3.060   5.553  0.0286 -0.7169  2.5836
   77MOL   H10241294   7.058   3.114   5.540 -1.1604 -1.2807  0.7851
   77MOL   H10341295   7.012   3.303   5.431 -1.4529  1.2231 -1.4877
   77MOL   H10441296   6.838   3.324   5.462 -0.7048 -0.6008  0.4283
   77MOL   H10541297   6.813   3.294   4.953  0.3142 -0.2037  0.8436
   77MOL   H10641298   6.677   3.199   5.013 -0.4961  1.2577 -0.7873
   77MOL   H10741299   6.785   3.128   4.895 -1.4203  0.9938 -1.2314
   77MOL   H10841300   6.807   2.920   5.015  0.2099 -0.5321  0.2767
   77MOL   H10941301   6.888   2.912   5.167  0.2065 -1.0180 -1.6344
   77MOL   C11041302   6.136   2.948   5.388 -0.0891  0.0553  0.2085
   77MOL   C11141303   6.110   3.099   5.365  0.2617  0.0502  0.0821
   77MOL   C11241304   6.225   3.181   5.298  0.0889 -0.8052 -0.5398
   77MOL   C11341305   6.276   3.138   5.159  0.4571 -0.1120  0.3335
   77MOL   C11441306   6.422   3.184   5.113  0.2756 -0.4914  0.0943
   77MOL   O11541307   6.515   3.100   5.176 -0.0749 -0.0389 -0.6360
   77MOL   C11641308   6.554   2.986   5.119 -0.0017  0.0031  0.8117
   77MOL   O11741309   6.514   2.949   5.007  0.0838 -0.2522 -0.2162
   77MOL   C11841310   6.673   2.922   5.183 -0.3060  0.2863  0.1742
   77MOL   C11941311   6.682   2.952   5.328  0.1029  0.2420 -0.0586
   77MOL   C12041312   6.667   2.768   5.167 -0.2968 -0.2355  0.4436
   77MOL   H12141313   6.136   2.889   5.296 -0.6882  0.1928  0.1160
   77MOL   H12241314   6.230   2.930   5.441  0.2970  2.9261  0.5557
   77MOL   H12341315   6.065   2.893   5.450  0.0276  1.1806  1.3662
   77MOL   H12441316   6.027   3.109   5.294 -0.8634  0.6425  1.4605
   77MOL   H12541317   6.073   3.139   5.459  0.4634  1.2968 -0.3648
   77MOL   H12641318   6.190   3.284   5.286 -0.6294 -1.2091 -2.0023
   77MOL   H12741319   6.307   3.189   5.370 -0.1574  0.2510 -0.3664
   77MOL   H12841320   6.206   3.163   5.079  0.9225 -1.8599 -0.6442
   77MOL   H12941321   6.268   3.029   5.160  0.1030 -0.0920 -0.4396
   77MOL   H13041322   6.434   3.176   5.005 -0.1039 -3.2861  0.2190
   77MOL   H13141323   6.423   3.292   5.131 -1.1215 -0.2581 -1.1096
   77MOL   H13241324   6.780   2.916   5.360 -0.1555  1.3847  2.1310
   77MOL   H13341325   6.681   3.057   5.358  1.5781 -0.1237  1.3838
   77MOL   H13441326   6.605   2.904   5.387  1.7246 -0.4587  1.5449
   77MOL   H13541327   6.676   2.742   5.062  0.5087  0.3221  0.3704
   77MOL   H13641328   6.760   2.733   5.211 -0.6736 -0.0316  1.4153
   77MOL   C13741329   6.914   2.076   5.339 -0.0486  0.4618 -1.2497
   77MOL   C13841330   6.925   2.200   5.427  0.1399  0.2969  0.0698
   77MOL   C13941331   6.802   2.301   5.414  0.5629 -0.7007 -0.7137
   77MOL   C14041332   6.833   2.425   5.504 -0.0234 -0.3464  0.0462
   77MOL   C14141333   6.713   2.521   5.530  1.0049  0.2904 -0.1974
   77MOL   O14241334   6.673   2.567   5.399 -0.0901  0.1301 -0.0153
   77MOL   C14341335   6.572   2.646   5.378  0.0033 -0.6359 -0.4920
   77MOL   O14441336   6.506   2.693   5.469  0.4098 -0.4623  0.0342
   77MOL   C14541337   6.547   2.676   5.225 -0.3059  0.0162  0.0530
   77MOL   C14641338   6.399   2.727   5.209 -0.4212 -0.0613  0.3980
   77MOL   C14741339   6.563   2.545   5.145 -0.2054  0.1079 -0.2655
   77MOL   H14841340   6.972   1.989   5.368  0.5352  0.6374 -1.8727
   77MOL   H14941341   6.935   2.091   5.233 -0.4260  0.8249 -1.2764
   77MOL   H15041342   6.809   2.047   5.344 -0.7531  2.7347 -1.7151
   77MOL   H15141343   7.014   2.250   5.389  0.7138 -0.3492  0.5615
   77MOL   H15241344   6.938   2.166   5.530 -0.9480  1.0953  0.4895
   77MOL   H15341345   6.804   2.325   5.308  0.2838 -2.7537 -1.1924
   77MOL   H15441346   6.708   2.251   5.438  0.1520  1.4249  2.4964
   77MOL   H15541347   6.873   2.397   5.601 -0.0247  1.9584  0.7321
   77MOL   H15641348   6.919   2.479   5.465 -1.0431  2.2075  1.1754
   77MOL   H15741349   6.749   2.611   5.580 -1.1626  0.4893  1.0740
   77MOL   H15841350   6.633   2.492   5.598 -0.7932 -2.4863 -3.3613
   77MOL   H15941351   6.367   2.745   5.106 -2.0201 -1.2537  0.6657
   77MOL   H16041352   6.378   2.814   5.271  0.1346 -0.6565  1.4343
   77MOL   H16141353   6.334   2.649   5.249 -2.0492  1.2537  0.3726
   77MOL   H16241354   6.551   2.567   5.039 -1.2947  0.2992 -0.1021
   77MOL   H16341355   6.666   2.517   5.168 -0.1193  0.4614 -0.2061
   77MOL   C16441356   6.096   2.999   4.881  0.2211  0.4154 -0.1837
   77MOL   C16541357   6.031   2.873   4.925  0.1012  0.6052 -0.2529
   77MOL   C16641358   6.126   2.760   4.895 -0.3688 -0.1111 -0.7565
   77MOL   C16741359   6.092   2.620   4.953  0.4655  0.2925  0.3300
   77MOL   C16841360   6.200   2.505   4.918 -0.0953 -0.8876  0.0102
   77MOL   O16941361   6.319   2.505   4.995 -0.6360  0.1854  0.3219
   77MOL   C17041362   6.336   2.411   5.092  0.1809  0.3577  0.8147
   77MOL   O17141363   6.252   2.318   5.107 -0.2917 -0.0895 -0.7995
   77MOL   C17241364   6.476   2.416   5.166  0.2090  0.5177  0.0347
   77MOL   C17341365   6.437   2.387   5.306  0.0784 -0.8048  0.5697
   77MOL   C17441366   6.556   2.292   5.108 -0.3071 -0.5055  0.0311
   77MOL   H17541367   6.100   3.009   4.772  1.8739  1.9982 -0.0122
   77MOL   H17641368   6.194   3.010   4.927  0.0960  0.5458  0.0500
   77MOL   H17741369   6.039   3.079   4.928 -1.1741 -1.2892  1.1013
   77MOL   H17841370   5.936   2.861   4.872  1.4597 -2.3789 -2.1023
   77MOL   H17941371   6.012   2.868   5.032  0.0492 -0.1566 -0.2928
   77MOL   H18041372   6.122   2.758   4.786  0.7201 -1.1111 -0.7857
   77MOL   H18141373   6.229   2.785   4.920 -0.1975 -1.1830 -0.3456
   77MOL   H18241374   5.994   2.587   4.919  0.2761  0.5237  0.6554
   77MOL   H18341375   6.078   2.632   5.060  0.2263  2.2101  0.1044
   77MOL   H18441376   6.218   2.518   4.812 -1.9901 -1.3852 -0.3885
   77MOL   H18541377   6.157   2.405   4.919 -0.2094 -0.8356  0.8147
   77MOL   H18641378   6.521   2.369   5.374  2.0538 -1.4035 -1.9346
   77MOL   H18741379   6.383   2.293   5.315 -0.3038 -0.5436  1.0421
   77MOL   H18841380   6.369   2.465   5.340 -0.6014 -2.3017  2.8038
   77MOL   H18941381   6.635   2.260   5.176  0.1077  1.9337  0.7341
   77MOL   H19041382   6.481   2.213   5.122  0.9005 -1.7171 -0.2208
   77MOL   C19141383   7.154   1.946   4.936  0.0216  0.7357  0.6616
   77MOL   C19241384   7.150   2.096   4.898  0.5321 -0.0594 -0.2440
   77MOL   C19341385   7.031   2.179   4.954 -0.5665 -0.2521 -0.2463
   77MOL   C19441386   7.029   2.324   4.897 -0.8986  0.0823 -0.4233
   77MOL   C19541387   6.936   2.413   4.971 -0.7245 -0.5392  0.5652
   77MOL   O19641388   6.814   2.351   4.991  0.4920  0.0516 -0.2999
   77MOL   C19741389   6.708   2.364   4.913 -0.1449  0.0835 -0.4081
   77MOL   O19841390   6.697   2.449   4.827  0.7239  0.1670 -0.0753
   77MOL   C19941391   6.600   2.271   4.955 -0.5383  0.7152  0.1457
   77MOL   C20041392   6.482   2.282   4.853  0.3182  0.1766 -0.4361
   77MOL   C20141393   6.664   2.122   4.946  0.5704 -0.0944 -0.2048
   77MOL   H20241394   7.120   1.923   5.037  3.2035 -1.0217  1.4002
   77MOL   H20341395   7.093   1.882   4.871 -0.1313  2.0646 -0.5197
   77MOL   H20441396   7.254   1.903   4.933 -1.3067 -2.4700 -0.1285
   77MOL   H20541397   7.164   2.106   4.791  0.1310  0.0477 -0.2893
   77MOL   H20641398   7.241   2.139   4.941  0.1179  2.0559 -1.3831
   77MOL   H20741399   7.055   2.178   5.060  0.4331  0.2373 -0.4641
   77MOL   H20841400   6.947   2.110   4.943  0.0544 -1.5667  2.7924
   77MOL   H20941401   7.131   2.363   4.901 -1.1745  0.6606  0.9761
   77MOL   H21041402   7.001   2.318   4.791 -1.6518  2.9436 -0.4322
   77MOL   H21141403   6.980   2.449   5.064 -0.8933 -0.3838  0.5864
   77MOL   H21241404   6.914   2.504   4.915 -1.4596 -0.4483  0.9927
   77MOL   H21341405   6.512   2.238   4.758 -0.8306 -1.6467  0.0152
   77MOL   H21441406   6.463   2.386   4.826 -0.6677 -0.0954 -0.8171
   77MOL   H21541407   6.392   2.228   4.884 -0.1653  1.4563  0.4396
   77MOL   H21641408   6.756   2.130   5.003 -0.4395 -1.6335  1.7020
   77MOL   H21741409   6.704   2.112   4.845 -0.9178 -2.4142 -0.5907
   77MOL   C21841410   6.086   1.576   5.162  0.0775  0.3798  0.1937
   77MOL   C21941411   6.091   1.720   5.238  0.5053  0.2364 -0.1378
   77MOL   C22041412   6.178   1.828   5.164  0.2387  0.1763 -1.1723
   77MOL   C22141413   6.164   1.844   5.011  0.2355  0.3220  0.2428
   77MOL   C22241414   6.210   1.980   4.966 -0.3060  0.4180 -0.2552
   77MOL   O22341415   6.347   2.012   4.990  0.4326 -0.0040 -0.9389
   77MOL   C22441416   6.450   1.953   4.919 -0.1563 -0.3649 -0.6708
   77MOL   O22541417   6.436   1.890   4.815 -0.2813  0.0330 -0.1672
   77MOL   C22641418   6.590   1.976   4.982  0.0986  0.3560 -0.1649
   77MOL   C22741419   6.580   1.959   5.137  0.0646 -0.2201 -0.6256
   77MOL   C22841420   6.690   1.868   4.916  0.2158 -0.9239  0.3613
   77MOL   H22941421   6.188   1.538   5.152 -0.9911 -1.9862 -2.2354
   77MOL   H23041422   6.031   1.507   5.225  1.4156 -0.0342  0.9355
   77MOL   H23141423   6.049   1.587   5.060  2.2026 -1.7666 -0.8429
   77MOL   H23241424   6.131   1.717   5.339 -1.7411 -2.4245  0.7257
   77MOL   H23341425   5.988   1.751   5.222  0.6022 -0.1919 -1.6350
   77MOL   H23441426   6.280   1.798   5.188 -0.1136  0.9103  1.3647
   77MOL   H23541427   6.159   1.922   5.216 -2.8809 -1.2704  0.3721
   77MOL   H23641428   6.220   1.766   4.959  0.5332 -0.3046  1.4688
   77MOL   H23741429   6.058   1.834   4.986  0.7261  0.0687 -1.8123
   77MOL   H23841430   6.148   2.059   5.009  0.9016 -0.0441  2.4598
   77MOL   H23941431   6.194   1.981   4.858 -1.5214  0.0631 -0.0855
   77MOL   H24041432   6.509   1.887   5.176  0.2925 -0.5771 -0.8614
   77MOL   H24141433   6.558   2.053   5.188 -0.2294 -0.7039  0.1310
   77MOL   H24241434   6.676   1.928   5.179  0.7026  1.9686 -0.4126
   77MOL   H24341435   6.791   1.908   4.922  0.7055 -2.3711  2.2321
   77MOL   H24441436   6.667   1.860   4.810  0.2375 -0.6044  0.3316
   77MOL   C24541437   6.472   1.753   4.430  0.3913 -0.0025 -0.0350
   77MOL   C24641438   6.616   1.726   4.380 -0.0279  0.2060 -0.5182
   77MOL   C24741439   6.710   1.679   4.503 -0.8749  0.2733 -0.2475
   77MOL   C24841440   6.691   1.530   4.537 -0.0714  0.6066 -0.3580
   77MOL   C24941441   6.767   1.484   4.672  0.1074 -0.4777 -0.3315
   77MOL   O25041442   6.714   1.560   4.779  0.2261  0.2982 -0.1250
   77MOL   C25141443   6.782   1.647   4.854  0.2680 -0.1649  0.2841
   77MOL   O25241444   6.899   1.683   4.833  0.2138 -0.0305  0.4302
   77MOL   C25341445   6.699   1.713   4.964 -0.0178 -0.7224  0.1555
   77MOL   C25441446   6.555   1.653   4.967  0.4206 -0.4326 -0.3502
   77MOL   C25541447   6.772   1.692   5.098  0.1176 -0.2149 -0.1829
   77MOL   H25641448   6.422   1.665   4.470  0.6998  0.3889  1.2474
   77MOL   H25741449   6.470   1.819   4.517 -0.4579  0.6410 -0.5223
   77MOL   H25841450   6.410   1.797   4.352  1.4029  0.7742 -0.4160
   77MOL   H25941451   6.614   1.650   4.301  2.8010 -0.7565  0.3141
   77MOL   H26041452   6.646   1.819   4.333 -2.5104  0.7968 -1.0331
   77MOL   H26141453   6.693   1.741   4.591  0.8158 -0.0019  0.3060
   77MOL   H26241454   6.814   1.678   4.470 -1.1366 -1.5576 -1.0579
   77MOL   H26341455   6.584   1.509   4.540  0.1429 -0.4456  1.1096
   77MOL   H26441456   6.719   1.471   4.450  1.6132  0.8500 -0.0171
   77MOL   H26541457   6.745   1.380   4.697 -1.0342 -0.0480  0.5239
   77MOL   H26641458   6.875   1.497   4.681  0.0884 -1.4987  1.7468
   77MOL   H26741459   6.555   1.546   4.983 -0.9252 -0.5011 -0.7371
   77MOL   H26841460   6.495   1.692   5.049  0.2942 -0.6793 -0.3254
   77MOL   H26941461   6.509   1.664   4.869  3.1108  1.9709 -1.4380
   77MOL   H27041462   6.848   1.770   5.097 -0.0899 -0.0216 -0.5622
   77MOL   H27141463   6.707   1.728   5.178 -0.2542  0.4585 -0.7879
   77MOL   C27241464   6.971   1.060   5.620 -0.3175 -0.8099 -0.2124
   77MOL   C27341465   6.946   1.209   5.636  0.3483 -0.6856  1.4190
   77MOL   C27441466   6.794   1.242   5.612  0.7359 -0.2783  0.5083
   77MOL   C27541467   6.756   1.393   5.610 -0.0825  0.5953 -0.7426
   77MOL   C27641468   6.831   1.498   5.530 -0.2880 -0.2357 -0.3877
   77MOL   O27741469   6.836   1.472   5.388 -0.2467  0.1933 -0.3211
   77MOL   C27841470   6.867   1.576   5.304 -0.1451  0.1890 -0.9040
   77MOL   O27941471   6.913   1.684   5.345 -0.0815 -0.1332  0.2205
   77MOL   C28041472   6.835   1.549   5.152 -0.6486 -0.0284  0.0075
   77MOL   C28141473   6.731   1.444   5.137  0.2416  0.0981  0.3684
   77MOL   C28241474   6.965   1.504   5.078 -0.2872  0.2797 -0.1448
   77MOL   H28341475   6.966   1.029   5.515  2.5057  0.6773 -0.8440
   77MOL   H28441476   7.073   1.031   5.644  0.1701 -1.4300 -2.8561
   77MOL   H28541477   6.914   1.011   5.699 -1.2804  0.8478  0.1464
   77MOL   H28641478   6.984   1.234   5.735  1.3224 -3.6034  1.8477
   77MOL   H28741479   7.002   1.259   5.557 -2.4900 -1.0502 -0.9184
   77MOL   H28841480   6.776   1.196   5.515  1.0257  1.7993 -0.5389
   77MOL   H28941481   6.736   1.187   5.687 -0.8505 -0.4421 -0.7948
   77MOL   H29041482   6.651   1.399   5.582 -0.0161 -1.5432 -1.5478
   77MOL   H29141483   6.741   1.427   5.713 -1.7378 -0.3285 -0.6570
   77MOL   H29241484   6.935   1.499   5.564 -0.1159  2.7165 -0.8323
   77MOL   H29341485   6.802   1.600   5.554  1.2702  0.2795 -0.6237
   77MOL   H29441486   6.721   1.402   5.037  1.4888  0.1372  0.2275
   77MOL   H29541487   6.741   1.357   5.202 -0.2831  0.0852  0.4359
   77MOL   H29641488   6.634   1.487   5.163  0.5348 -0.2712  2.1370
   77MOL   H29741489   6.932   1.462   4.983 -0.6607 -0.4074  0.2865
   77MOL   H29841490   7.012   1.601   5.064 -0.7618  0.6815  1.0023
   77MOL   C29941491   7.423   2.068   5.396  0.3984  0.7631  0.3846
   77MOL   C30041492   7.336   1.999   5.289  0.1956 -0.2617  0.0503
   77MOL   C30141493   7.342   1.846   5.280  1.1459 -0.3598 -0.0544
   77MOL   C30241494   7.261   1.773   5.385 -0.5697 -0.1889 -0.0100
   77MOL   C30341495   7.266   1.616   5.370  0.2453  0.4986 -0.0260
   77MOL   O30441496   7.183   1.568   5.261  0.3083 -0.2770 -0.7816
   77MOL   C30541497   7.143   1.441   5.261 -0.0507  0.5371 -1.7076
   77MOL   O30641498   7.157   1.360   5.357 -0.1866  0.4170  0.1717
   77MOL   C30741499   7.069   1.398   5.129 -0.8824  0.4339 -0.3859
   77MOL   C30841500   6.997   1.261   5.162 -0.5132  0.0498  0.2713
   77MOL   C30941501   7.173   1.378   5.010 -0.4878 -0.2803 -0.4872
   77MOL   H31041502   7.526   2.034   5.400 -0.1516 -0.9708  0.5271
   77MOL   H31141503   7.368   2.062   5.491 -0.9625  0.5905 -0.4028
   77MOL   H31241504   7.426   2.175   5.375  3.1552  0.6427  0.0585
   77MOL   H31341505   7.359   2.034   5.189  0.8627  1.6901  0.8436
   77MOL   H31441506   7.232   2.032   5.291  0.6336  1.1420  1.6980
   77MOL   H31541507   7.448   1.823   5.289  0.9433 -0.8831  1.0045
   77MOL   H31641508   7.313   1.813   5.180 -0.2485  1.1763 -0.1834
   77MOL   H31741509   7.158   1.807   5.396 -0.5751 -0.1756 -0.1038
   77MOL   H31841510   7.309   1.787   5.483 -3.0562 -2.0174  1.5150
   77MOL   H31941511   7.362   1.570   5.348 -0.0927 -0.1160 -0.2292
   77MOL   H32041512   7.235   1.575   5.466  0.7866  1.0493  0.3861
   77MOL   H32141513   6.948   1.212   5.077  0.8537 -0.7281 -0.0862
   77MOL   H32241514   7.073   1.199   5.209  0.0258  1.4042  1.2213
   77MOL   H32341515   6.922   1.284   5.237 -0.3761  0.9110  0.1579
   77MOL   H32441516   7.161   1.461   4.941  0.0083  0.4357  0.2860
   77MOL   H32541517   7.120   1.310   4.943  1.1695 -1.6727 -0.4215
   77MOL   C32641518   7.510   2.057   4.810  0.7098 -0.7632  0.4348
   77MOL   C32741519   7.622   1.956   4.808 -0.0388  0.3408 -0.0040
   77MOL   C32841520   7.624   1.859   4.930  0.5904 -0.4767  0.9884
   77MOL   C32941521   7.513   1.749   4.931 -0.7384  0.3870 -0.3324
   77MOL   C33041522   7.528   1.639   5.028  1.0761  0.3552  0.1366
   77MOL   O33141523   7.427   1.544   4.998 -0.5771  0.1287 -0.8077
   77MOL   C33241524   7.415   1.434   5.079  0.2895 -0.0922  0.4199
   77MOL   O33341525   7.476   1.412   5.178  0.5593 -0.1255 -0.3460
   77MOL   C33441526   7.321   1.322   5.018 -0.4851 -0.5057  0.3178
   77MOL   C33541527   7.337   1.193   5.096 -0.1456  0.4537 -0.3261
   77MOL   C33641528   7.354   1.291   4.866 -0.2998  0.2393  0.0018
   77MOL   H33741529   7.411   2.016   4.790  0.5954  0.7328 -2.3471
   77MOL   H33841530   7.510   2.131   4.730 -1.5328  0.1956  1.2729
   77MOL   H33941531   7.500   2.097   4.911  1.3481 -0.4142  0.3647
   77MOL   H34041532   7.718   2.006   4.798 -0.0891 -0.0349 -2.8103
   77MOL   H34141533   7.617   1.902   4.714  1.8763  0.3454 -0.1184
   77MOL   H34241534   7.613   1.906   5.028 -0.9668  1.6135 -0.1396
   77MOL   H34341535   7.717   1.802   4.938  0.6307 -0.3127  1.8073
   77MOL   H34441536   7.507   1.696   4.836  2.4175 -1.8173  0.5867
   77MOL   H34541537   7.414   1.791   4.950 -0.1473  1.3109  0.7676
   77MOL   H34641538   7.517   1.669   5.132 -3.5223 -1.4383  0.3085
   77MOL   H34741539   7.622   1.584   5.017  0.9790  0.1225  0.4360
   77MOL   H34841540   7.311   1.214   5.200  0.4072 -2.2224  0.3765
   77MOL   H34941541   7.441   1.163   5.084 -0.8922 -1.0485 -3.4312
   77MOL   H35041542   7.281   1.102   5.077  0.4979  0.4105 -2.0246
   77MOL   H35141543   7.348   1.387   4.815 -0.0267  0.7242  0.8571
   77MOL   H35241544   7.267   1.244   4.820 -0.5379  0.2427  0.4399
   77MOL   C35341545   7.036   0.807   4.478  0.7079 -0.0296  0.6405
   77MOL   C35441546   7.120   0.788   4.608 -0.1587 -0.7324 -0.0926
   77MOL   C35541547   7.115   0.900   4.713 -0.4102  1.0333  0.7901
   77MOL   C35641548   7.182   0.872   4.842 -0.1803  0.2580  0.2754
   77MOL   C35741549   7.337   0.874   4.835  0.7730 -0.0648  0.8588
   77MOL   O35841550   7.360   1.016   4.811  0.1801 -0.5405  0.0410
   77MOL   C35941551   7.473   1.068   4.846 -0.0176  0.1444  0.0205
   77MOL   O36041552   7.574   1.008   4.900 -0.2342 -0.4769 -0.0538
   77MOL   C36141553   7.482   1.217   4.810 -0.3433  0.1513  0.2116
   77MOL   C36241554   7.617   1.287   4.865  0.3502  0.3049  0.6915
   77MOL   C36341555   7.469   1.245   4.655 -0.1475 -0.0096  0.6943
   77MOL   H36441556   6.937   0.847   4.497  0.6238 -0.1443  0.4482
   77MOL   H36541557   7.043   0.707   4.437 -1.3556 -0.2528  0.7697
   77MOL   H36641558   7.072   0.875   4.401 -1.4741 -1.6123 -1.8498
   77MOL   H36741559   7.082   0.702   4.662  2.8395 -1.5671  0.7815
   77MOL   H36841560   7.221   0.757   4.580 -0.1672 -1.6880  0.8966
   77MOL   H36941561   7.009   0.916   4.730  0.0763  2.2018  2.9006
   77MOL   H37041562   7.140   1.000   4.677 -1.0820  1.2024  0.7815
   77MOL   H37141563   7.146   0.775   4.876 -2.5376  0.8091 -0.5211
   77MOL   H37241564   7.149   0.940   4.921  1.4912  1.8900 -0.3831
   77MOL   H37341565   7.364   0.823   4.928 -2.0364 -1.3481  1.0271
   77MOL   H37441566   7.382   0.812   4.757  1.4087  0.0105  1.1622
   77MOL   H37541567   7.622   1.396   4.861 -1.4060  0.3756  0.2200
   77MOL   H37641568   7.623   1.267   4.972 -1.9017 -3.8160  0.1296
   77MOL   H37741569   7.700   1.234   4.818 -0.1064 -0.6457  0.9419
   77MOL   H37841570   7.366   1.233   4.620  0.8430 -1.9391 -1.6953
   77MOL   H37941571   7.490   1.350   4.634  1.4470 -0.8007 -1.8022
   77MOL   C38041572   7.280   1.760   4.662  0.4726 -0.1050 -0.2519
   77MOL   C38141573   7.238   1.679   4.541  0.3348 -0.1495  0.3031
   77MOL   C38241574   7.331   1.572   4.501 -0.4715 -0.2201  0.1432
   77MOL   C38341575   7.310   1.525   4.356 -0.3370  0.2670  0.2700
   77MOL   C38441576   7.407   1.420   4.294  0.1781  0.2548 -0.4512
   77MOL   O38541577   7.439   1.320   4.390 -0.2994 -0.1457 -0.3208
   77MOL   C38641578   7.568   1.271   4.423 -0.2315  0.0543  0.0527
   77MOL   O38741579   7.673   1.305   4.368  0.1436 -0.0578 -0.3702
   77MOL   C38841580   7.556   1.172   4.542 -0.2516  0.0650  0.1554
   77MOL   C38941581   7.702   1.130   4.585  0.7311 -0.0595 -0.0539
   77MOL   C39041582   7.482   1.048   4.495  0.0489  0.1133 -0.5643
   77MOL   H39141583   7.278   1.697   4.751  0.7592  1.1863  0.6867
   77MOL   H39241584   7.386   1.787   4.655 -0.0719  1.9229 -0.9157
   77MOL   H39341585   7.221   1.850   4.680  0.3448 -0.2117 -0.1413
   77MOL   H39441586   7.232   1.761   4.469  0.8214  0.4310  0.9109
   77MOL   H39541587   7.137   1.644   4.562 -0.3424  0.3255 -1.9951
   77MOL   H39641588   7.432   1.603   4.528 -0.6060 -0.5926  1.1112
   77MOL   H39741589   7.310   1.493   4.574  1.2682  0.1071  1.0149
   77MOL   H39841590   7.209   1.485   4.343 -0.3406 -0.7960  3.0743
   77MOL   H39941591   7.305   1.617   4.297 -0.4136  0.6329  0.8352
   77MOL   H40041592   7.499   1.475   4.273 -0.8614  1.9609 -0.6606
   77MOL   H40141593   7.374   1.395   4.193  0.9096  0.8732 -0.8524
   77MOL   H40241594   7.700   1.057   4.666  1.0096 -1.2084 -1.0703
   77MOL   H40341595   7.760   1.212   4.626  0.6367  1.3814 -2.7054
   77MOL   H40441596   7.777   1.096   4.514 -0.1826  1.2907 -1.7071
   77MOL   H40541597   7.391   1.082   4.444  0.6724  2.0771 -0.4102
   77MOL   H40641598   7.445   0.997   4.584 -0.2221  0.1368 -0.6600
   77MOL   C40741599   7.226   0.415   4.715  0.3800 -0.1071 -0.1507
   77MOL   C40841600   7.385   0.416   4.693  0.1201  0.5830 -0.4103
   77MOL   C40941601   7.436   0.552   4.718  0.4270 -0.2477 -0.1894
   77MOL   C41041602   7.572   0.557   4.649 -0.5347  0.9412 -0.0545
   77MOL   C41141603   7.638   0.691   4.675  0.4992  0.8102 -0.2214
   77MOL   O41241604   7.588   0.795   4.598  0.0916  0.3494 -0.3031
   77MOL   C41341605   7.646   0.835   4.488  0.5672 -0.0370  0.5549
   77MOL   O41441606   7.751   0.792   4.441  0.4248 -0.0095  0.0257
   77MOL   C41541607   7.554   0.932   4.407  0.1393 -0.1839  0.2679
   77MOL   C41641608   7.437   0.843   4.360  0.0279 -0.4150 -0.5250
   77MOL   C41741609   7.622   0.993   4.279  0.0900 -0.1151 -0.5542
   77MOL   H41841610   7.174   0.324   4.685 -1.2519  0.3042  1.2923
   77MOL   H41941611   7.217   0.427   4.823  2.4051  1.3174 -0.1046
   77MOL   H42041612   7.179   0.494   4.657 -0.4380 -0.0806  0.5388
   77MOL   H42141613   7.408   0.379   4.593  1.2378  0.8322 -0.2627
   77MOL   H42241614   7.432   0.346   4.762 -1.8334 -0.7077 -0.3596
   77MOL   H42341615   7.373   0.628   4.670  2.2080  0.9857 -0.6158
   77MOL   H42441616   7.437   0.562   4.826 -1.0879  0.4950 -0.2250
   77MOL   H42541617   7.568   0.542   4.541 -1.2244 -0.5443  0.1491
   77MOL   H42641618   7.635   0.476   4.686 -0.6590  1.1083  0.5291
   77MOL   H42741619   7.643   0.717   4.781 -0.6149 -0.8047  0.2564
   77MOL   H42841620   7.744   0.679   4.654  0.1555 -0.7232 -1.1776
   77MOL   H42941621   7.357   0.902   4.315  1.7089  1.6137 -0.9250
   77MOL   H43041622   7.392   0.790   4.444 -0.4526 -1.2620 -1.3080
   77MOL   H43141623   7.469   0.768   4.288 -1.0668 -0.2548 -1.1846
   77MOL   H43241624   7.717   1.036   4.312  0.1899 -0.9756  0.3085
   77MOL   H43341625   7.560   1.079   4.258  0.0186 -0.2208 -0.7823
   77MOL   C43441626   7.069   1.261   4.372 -0.0515 -0.1195  0.4639
   77MOL   C43541627   7.096   1.249   4.219 -0.3151 -0.4240  0.0783
   77MOL   C43641628   7.199   1.132   4.190  0.1424  0.1083 -0.6581
   77MOL   C43741629   7.217   1.130   4.039  0.2884 -0.1676 -0.2286
   77MOL   C43841630   7.311   1.010   3.992  0.3851 -0.2744  0.0213
   77MOL   O43941631   7.433   1.011   4.062 -0.8505  0.0464 -0.4235
   77MOL   C44041632   7.520   0.906   4.054 -0.0733 -0.4621  0.2799
   77MOL   O44141633   7.484   0.807   4.000  0.0358 -0.1612 -0.4921
   77MOL   C44241634   7.653   0.927   4.130 -0.4587  0.1483 -0.7599
   77MOL   C44341635   7.725   0.786   4.136  0.9830  0.4025  0.6028
   77MOL   C44441636   7.748   1.022   4.048  0.3657 -0.3712 -0.3003
   77MOL   H44541637   6.992   1.323   4.417 -2.2573 -0.9167 -2.0281
   77MOL   H44641638   7.063   1.163   4.419  1.4977 -1.2432 -1.5997
   77MOL   H44741639   7.158   1.294   4.425  1.6413 -1.9507 -1.1351
   77MOL   H44841640   7.000   1.224   4.173 -0.8922  0.5477  0.7303
   77MOL   H44941641   7.134   1.347   4.190 -0.6240  0.1561  1.6086
   77MOL   H45041642   7.298   1.146   4.233  0.1672 -0.6353 -0.4845
   77MOL   H45141643   7.156   1.035   4.211 -1.7892  0.8903 -0.9228
   77MOL   H45241644   7.272   1.222   4.020 -0.5068  0.1103 -1.2063
   77MOL   H45341645   7.131   1.125   3.973 -0.8066  0.0388  1.1717
   77MOL   H45441646   7.334   1.014   3.886  2.2736 -1.9244  0.3500
   77MOL   H45541647   7.259   0.916   4.010 -0.9339  0.2283 -1.0677
   77MOL   H45641648   0.013   0.782   4.175  0.8582  1.6475  1.0768
   77MOL   H45741649   7.671   0.723   4.207  0.2385  0.2099 -0.1305
   77MOL   H45841650   7.712   0.737   4.040  3.4934  0.2490  0.3153
   77MOL   H45941651   0.030   1.025   4.100 -0.2178 -2.8016  1.0276
   77MOL   H46041652   7.716   1.118   4.088  1.4356 -0.5500  1.0162
   77MOL   C46141653   7.352   1.641   4.027 -0.2580 -0.1035  0.1312
   77MOL   C46241654   7.385   1.643   3.872 -0.2898 -0.4263  0.0564
   77MOL   C46341655   7.407   1.506   3.808  0.5084  0.2189 -1.1235
   77MOL   C46441656   7.519   1.424   3.873 -0.1419  0.2055 -0.0316
   77MOL   C46541657   7.510   1.285   3.830  0.6865  0.0646 -0.1536
   77MOL   O46641658   7.642   1.223   3.861  0.5814  0.1888  0.2579
   77MOL   C46741659   7.658   1.093   3.828  0.5438  1.0552  1.2436
   77MOL   O46841660   7.580   1.031   3.751 -0.0221 -0.0024  0.1789
   77MOL   C46941661   7.780   1.028   3.895 -0.0740  0.0766 -0.2615
   77MOL   C47041662   7.811   0.887   3.837 -0.2132 -0.6544 -0.2657
   77MOL   C47141663   0.094   1.113   3.871  0.0295 -0.0030 -0.1803
   77MOL   H47241664   7.322   1.739   4.063 -0.6937  0.6461 -2.1962
   77MOL   H47341665   7.432   1.598   4.087  0.1224  1.7111  0.9547
   77MOL   H47441666   7.264   1.578   4.044  0.4016 -0.2542  3.3847
   77MOL   H47541667   7.467   1.711   3.848 -2.1536  1.1671 -1.9560
   77MOL   H47641668   7.303   1.683   3.814 -0.6000  0.8072  1.2981
   77MOL   H47741669   7.421   1.512   3.700  1.2894 -0.5041 -1.0670
   77MOL   H47841670   7.316   1.448   3.822  0.1199  1.0775 -0.0546
   77MOL   H47941671   7.511   1.418   3.982  0.6912 -0.7129 -0.0147
   77MOL   H48041672   7.616   1.456   3.837 -0.8904  1.6061 -0.8397
   77MOL   H48141673   7.428   1.233   3.879  0.0008 -0.9294 -2.2618
   77MOL   H48241674   7.513   1.282   3.721  2.0793 -2.1205 -0.0997
   77MOL   H48341675   0.086   0.842   3.880 -0.5070  0.6284  1.7543
   77MOL   H48441676   0.009   0.903   3.730  1.5703 -1.9404 -0.2726
   77MOL   H48541677   7.739   0.805   3.837 -0.1820 -0.6793 -0.8983
   77MOL   H48641678   0.181   1.058   3.905 -0.3890 -1.0767 -0.8286
   77MOL   H48741679   0.094   1.190   3.948 -0.4000  1.2680 -1.4152
   77MOL   C48841680   0.967   1.439   3.817  0.1613  0.0379  0.6172
   77MOL   C48941681   0.844   1.389   3.734  0.0428  0.4707  0.0555
   77MOL   C49041682   0.724   1.365   3.834  0.1371  0.2221 -0.1383
   77MOL   C49141683   0.603   1.287   3.778  0.2627 -0.0059  0.0153
   77MOL   C49241684   0.502   1.237   3.884  0.1752  0.2918 -1.1505
   77MOL   O49341685   0.385   1.186   3.832  0.5516  0.3354  0.0502
   77MOL   C49441686   0.277   1.267   3.795  0.2282  0.2623  0.0734
   77MOL   O49541687   0.281   1.393   3.809 -0.6251  0.1168 -0.2832
   77MOL   C49641688   0.144   1.192   3.742  0.0285  0.2308  0.3646
   77MOL   C49741689   0.050   1.302   3.695  0.5444 -0.0694  0.2242
   77MOL   C49841690   0.174   1.095   3.621  0.0102  0.3016 -0.2764
   77MOL   H49941691   0.991   1.368   3.896  0.7332 -1.6734 -1.0550
   77MOL   H50041692   1.059   1.448   3.758 -1.2931  1.2546 -1.5312
   77MOL   H50141693   0.944   1.532   3.868 -0.5621 -0.6873  1.6364
   77MOL   H50241694   0.872   1.294   3.688  1.0656  1.4406 -1.3612
   77MOL   H50341695   0.810   1.462   3.661 -0.7726 -0.9255 -0.9988
   77MOL   H50441696   0.765   1.309   3.918  1.1042  0.0051 -0.7418
   77MOL   H50541697   0.689   1.457   3.879  2.3782  1.3135 -0.5602
   77MOL   H50641698   0.641   1.192   3.740 -1.0599 -1.4555  2.1924
   77MOL   H50741699   0.560   1.326   3.686  1.5130 -1.2288 -1.1115
   77MOL   H50841700   0.557   1.181   3.960 -0.2133  0.9128 -0.4054
   77MOL   H50941701   0.473   1.323   3.945 -1.2652 -2.2005  1.7988
   77MOL   H51041702   0.104   1.371   3.630  1.8034  0.7696  2.1159
   77MOL   H51141703   0.029   1.359   3.786  2.0612 -1.4857  1.4883
   77MOL   H51241704   7.773   1.259   3.654 -0.9784  1.8249  1.5524
   77MOL   H51341705   0.084   1.037   3.603 -0.6145  1.7390 -1.8934
   77MOL   H51441706   0.239   1.018   3.664 -0.6380  1.1107  2.2660
   77MOL   C51541707   7.313   1.102   3.539  0.1631 -0.0391  0.1426
   77MOL   C51641708   7.338   1.240   3.470 -0.1961 -0.0720 -0.4207
   77MOL   C51741709   7.453   1.248   3.363 -0.1235  0.0416  0.1336
   77MOL   C51841710   7.593   1.243   3.423 -0.2314  0.2804 -0.4508
   77MOL   C51941711   7.708   1.250   3.325 -0.1194  0.1120  0.1667
   77MOL   O52041712   7.813   1.177   3.386  0.1614 -0.1172 -0.6053
   77MOL   C52141713   0.115   1.238   3.405  0.2831  0.4428  0.1539
   77MOL   O52241714   0.146   1.351   3.375  0.0102  0.3039 -0.3913
   77MOL   C52341715   0.215   1.146   3.476 -0.4603  0.0086  0.4508
   77MOL   C52441716   0.242   1.027   3.385 -0.6098  0.5161  0.3413
   77MOL   C52541717   0.348   1.227   3.491  0.1323  0.2423  0.1074
   77MOL   H52641718   7.236   1.110   3.615 -0.0662 -1.6317  0.1000
   77MOL   H52741719   7.283   1.027   3.466 -1.2139 -0.7977  1.4659
   77MOL   H52841720   7.407   1.066   3.583  0.8942  1.5844 -0.0415
   77MOL   H52941721   7.247   1.282   3.429 -0.3848  0.9668  1.0090
   77MOL   H53041722   7.365   1.317   3.543 -1.9228 -2.7696  3.2664
   77MOL   H53141723   7.435   1.180   3.280 -0.8719  2.2300 -1.5364
   77MOL   H53241724   7.435   1.347   3.322  0.2223  0.6801  1.4778
   77MOL   H53341725   7.587   1.141   3.461 -0.1941  0.1150 -0.8888
   77MOL   H53441726   7.601   1.314   3.505  1.2554  0.8096 -1.0291
   77MOL   H53541727   7.680   1.209   3.228 -3.6998  0.5431  0.9535
   77MOL   H53641728   7.731   1.353   3.298  2.0988 -0.6018 -0.7901
   77MOL   H53741729   0.213   1.052   3.283 -0.9209  2.4896  0.8989
   77MOL   H53841730   0.177   0.942   3.409 -1.1410  1.5274  2.5739
   77MOL   H53941731   0.347   0.999   3.377 -1.0780 -1.4791  0.9565
   77MOL   H54041732   0.338   1.316   3.553 -1.5463 -1.0967  1.8333
   77MOL   H54141733   0.372   1.252   3.388 -0.2882 -0.7933 -0.2465
   77MOL   H54241734   0.429   1.167   3.533 -1.4969 -2.2218 -0.1396
   78MOL     C141735   1.914   2.248   2.880  1.2927  0.6061  0.0508
   78MOL     C241736   1.789   2.280   2.800  0.6050 -0.1958 -0.1367
   78MOL     C341737   1.752   2.161   2.705  0.1833  0.1075  0.6680
   78MOL     C441738   1.853   2.136   2.596 -0.9007 -0.2134 -0.5057
   78MOL     C541739   1.822   2.013   2.511  0.0841  0.5271  0.1991
   78MOL     O641740   1.919   1.981   2.410  0.7242 -0.1971  0.2477
   78MOL     C741741   1.917   1.870   2.346  0.2546  1.2174 -0.3900
   78MOL     O841742   1.824   1.788   2.359  0.2561  0.4674 -0.4891
   78MOL     C941743   2.037   1.858   2.245 -0.3827  0.4835  0.7907
   78MOL    C1041744   2.020   1.944   2.119  0.6346 -0.1771 -0.0902
   78MOL    C1141745   2.050   1.708   2.188 -0.4959  0.1278  0.0908
   78MOL    H1241746   1.998   2.240   2.812 -0.6074 -0.2397 -2.2301
   78MOL    H1341747   1.897   2.150   2.925  1.2089  0.9869  0.8711
   78MOL    H1441748   1.938   2.312   2.966  1.6163  0.4720  0.0597
   78MOL    H1541749   1.708   2.300   2.870  0.8899  1.9634 -0.3946
   78MOL    H1641750   1.813   2.376   2.755  1.2160  0.3291  1.2725
   78MOL    H1741751   1.739   2.069   2.763 -1.5292  0.6565  1.1821
   78MOL    H1841752   1.662   2.192   2.653 -0.0979 -1.4989  0.1526
   78MOL    H1941753   1.949   2.118   2.646 -0.0946  0.0617 -1.9141
   78MOL    H2041754   1.860   2.223   2.531  2.2075  0.2821  0.3849
   78MOL    H2141755   1.813   1.926   2.575  1.0959  0.3548  0.1129
   78MOL    H2241756   1.722   2.030   2.471  1.0314 -0.1877 -2.5937
   78MOL    H2341757   2.023   2.050   2.143 -1.4009  0.2444 -1.5004
   78MOL    H2441758   1.925   1.935   2.066  0.0994 -2.9746  1.2334
   78MOL    H2541759   2.098   1.924   2.045  2.4014 -1.7176  2.1251
   78MOL    H2641760   2.000   1.694   2.093 -0.3504  0.9167 -0.1119
   78MOL    H2741761   1.993   1.637   2.248  0.6397 -0.2803  0.7004
   78MOL    H2841762   2.130   1.893   2.291  0.9039 -0.9949 -0.6256
   78MOL    C2941763   1.931   1.583   2.680  0.4076  0.6871  0.0550
   78MOL    C3041764   2.015   1.693   2.746 -0.7066  0.1000  0.0386
   78MOL    C3141765   2.132   1.747   2.667  0.8184  0.4561 -0.6247
   78MOL    C3241766   2.220   1.641   2.623 -0.5570 -0.1614  0.1375
   78MOL    C3341767   2.322   1.692   2.521  0.1815 -0.9960  0.5165
   78MOL    O3441768   2.260   1.705   2.392  0.3219 -0.3136  0.3848
   78MOL    C3541769   2.248   1.603   2.307 -0.2301  0.5211  0.1151
   78MOL    O3641770   2.288   1.487   2.341  0.1110  0.4414  0.1790
   78MOL    C3741771   2.187   1.637   2.169 -0.3139 -0.4919 -0.8129
   78MOL    C3841772   2.284   1.728   2.095  0.5551  0.4621 -0.2522
   78MOL    C3941773   2.173   1.503   2.091  0.5315 -0.5170 -0.4475
   78MOL    H4041774   1.980   1.488   2.658 -1.3165  0.3202 -2.3578
   78MOL    H4141775   1.847   1.557   2.745  1.1757 -1.0322  0.3903
   78MOL    H4241776   1.878   1.620   2.592 -1.0501 -0.3584  0.4587
   78MOL    H4341777   2.047   1.654   2.843  0.9507 -1.7332 -1.2010
   78MOL    H4441778   1.950   1.778   2.766 -0.5404  0.1762  0.2499
   78MOL    H4541779   2.191   1.823   2.719  0.1390  1.4086 -1.2270
   78MOL    H4641780   2.096   1.810   2.585 -1.0005  2.1367  1.3861
   78MOL    H4741781   2.278   1.605   2.709  0.4758 -2.2173 -1.3703
   78MOL    H4841782   2.167   1.556   2.578 -1.1265  0.4031 -0.2731
   78MOL    H4941783   2.408   1.626   2.511  0.5971 -0.2171 -1.1546
   78MOL    H5041784   2.348   1.796   2.542 -5.7862  0.7323  0.0637
   78MOL    H5141785   2.247   1.733   1.992 -0.5978 -1.1909  0.0720
   78MOL    H5241786   2.381   1.677   2.095  0.4638  0.2540  1.5127
   78MOL    H5341787   2.287   1.827   2.140 -0.7895 -0.3132  1.5636
   78MOL    H5441788   2.268   1.449   2.097  1.2644  0.7247 -0.8785
   78MOL    H5541789   2.176   1.537   1.988 -3.6650  1.4723 -0.0092
   78MOL    C5641790   2.720   1.327   1.914  0.6876 -0.3734  0.3592
   78MOL    C5741791   2.629   1.222   1.981  0.1445  0.0234  0.6287
   78MOL    C5841792   2.478   1.234   1.963  0.2500 -0.1322  0.0682
   78MOL    C5941793   2.418   1.112   2.029 -0.1662  0.6739 -0.0542
   78MOL    C6041794   2.273   1.102   2.006  1.0219  0.3199 -0.1660
   78MOL    O6141795   2.195   1.197   2.081 -0.1468 -0.8932  0.0028
   78MOL    C6241796   2.102   1.271   2.021 -0.2121 -0.2296 -0.0056
   78MOL    O6341797   2.061   1.251   1.905 -0.4494 -0.7383  0.6872
   78MOL    C6441798   2.057   1.394   2.100  0.3349  0.1513 -0.0041
   78MOL    C6541799   1.928   1.443   2.033  0.9049 -0.3243  0.7151
   78MOL    C6641800   2.031   1.357   2.254 -0.3152 -0.4401  0.0381
   78MOL    H6741801   2.726   1.422   1.967 -0.5675  0.3175 -0.7179
   78MOL    H6841802   2.687   1.342   1.811 -0.3957  0.0979  0.7688
   78MOL    H6941803   2.827   1.308   1.916  0.6935 -0.8175 -2.4525
   78MOL    H7041804   2.665   1.128   1.937  2.4209 -0.5125  3.4679
   78MOL    H7141805   2.658   1.217   2.086 -0.9946 -1.9475  0.8914
   78MOL    H7241806   2.440   1.324   2.011 -0.1671 -0.9551  1.3028
   78MOL    H7341807   2.442   1.233   1.860  3.1764 -1.4498 -0.9885
   78MOL    H7441808   2.451   1.121   2.132  1.3029  0.4596 -0.4874
   78MOL    H7541809   2.468   1.026   1.984  0.5760  1.8446 -1.5073
   78MOL    H7641810   2.253   1.113   1.900 -1.9468 -0.2796  0.2977
   78MOL    H7741811   2.242   1.007   2.048 -0.8581  0.7988 -0.4222
   78MOL    H7841812   1.852   1.367   2.017  0.8848  0.3488 -2.6192
   78MOL    H7941813   1.943   1.501   1.942  1.5554 -1.4473  0.1053
   78MOL    H8041814   1.885   1.512   2.106  0.5682  0.0253  0.1915
   78MOL    H8141815   2.014   1.446   2.313 -3.8915 -0.3100 -1.1125
   78MOL    H8241816   2.124   1.305   2.278  0.5006 -0.0502 -2.1342
   78MOL    C8341817   1.485   1.454   2.723 -0.6294 -0.2208  0.0768
   78MOL    C8441818   1.419   1.553   2.617 -0.4576 -0.1209  0.0344
   78MOL    C8541819   1.456   1.515   2.478 -0.1917  0.2005  0.5223
   78MOL    C8641820   1.586   1.576   2.438 -0.1087  0.1725  0.1838
   78MOL    C8741821   1.634   1.518   2.304 -0.8460 -0.7461 -0.5698
   78MOL    O8841822   1.752   1.446   2.328  0.4542  0.2811  0.0521
   78MOL    C8941823   1.771   1.322   2.273 -0.0608  0.7597 -0.0836
   78MOL    O9041824   1.680   1.267   2.207 -0.1983 -0.7086  0.0951
   78MOL    C9141825   1.912   1.263   2.296  0.2890 -0.6890  0.2995
   78MOL    C9241826   1.914   1.132   2.211 -0.0704  0.5452 -0.2005
   78MOL    C9341827   1.945   1.236   2.448  0.9222 -0.3716  0.5159
   78MOL    H9441828   1.454   1.351   2.705 -1.5722 -0.0668  0.7754
   78MOL    H9541829   1.593   1.455   2.730 -0.7140  0.0388  1.3850
   78MOL    H9641830   1.445   1.478   2.822  0.7332 -2.2784  1.1375
   78MOL    H9741831   1.437   1.657   2.643 -0.8110 -0.3187  1.1216
   78MOL    H9841832   1.311   1.540   2.614 -0.5833  0.4711  1.5292
   78MOL    H9941833   1.390   1.544   2.397  2.0034  0.2444 -1.3029
   78MOL   H10041834   1.470   1.407   2.472 -1.2026  0.1545 -1.0695
   78MOL   H10141835   1.664   1.562   2.513 -0.0668 -0.1193  0.0850
   78MOL   H10241836   1.564   1.683   2.434 -1.8598 -0.2466 -1.7717
   78MOL   H10341837   1.663   1.597   2.234  0.4159 -0.5879  0.1207
   78MOL   H10441838   1.559   1.460   2.249  0.1445 -2.0130 -0.6002
   78MOL   H10541839   1.896   1.150   2.105 -3.2049 -1.1123 -0.0086
   78MOL   H10641840   1.833   1.068   2.247 -0.2095 -0.9759 -3.0897
   78MOL   H10741841   2.012   1.085   2.225 -0.0981  0.3613 -0.6238
   78MOL   H10841842   2.049   1.204   2.450  0.7512 -1.2619 -2.2746
   78MOL   H10941843   1.963   1.334   2.491  0.4533 -0.7573  1.6022
   78MOL   C11041844   1.305   0.680   2.660 -0.6016 -0.1462  0.0789
   78MOL   C11141845   1.322   0.825   2.622  0.9454 -0.0974  0.1937
   78MOL   C11241846   1.471   0.864   2.603 -0.5462  0.1472 -0.3801
   78MOL   C11341847   1.544   0.801   2.478  0.6140  0.1189 -0.0783
   78MOL   C11441848   1.692   0.815   2.484  0.0039 -0.0336  0.1447
   78MOL   O11541849   1.727   0.951   2.483  0.0304 -0.6251 -0.1549
   78MOL   C11641850   1.848   0.998   2.506  0.2073  0.7210 -0.2345
   78MOL   O11741851   1.947   0.923   2.496 -0.1337 -0.2588  0.1987
   78MOL   C11841852   1.860   1.148   2.555 -0.4522 -0.0756 -0.0756
   78MOL   C11941853   1.725   1.217   2.572  0.1567  0.3316 -0.2678
   78MOL   C12041854   1.945   1.148   2.696 -0.1952  0.2567 -0.2213
   78MOL   H12141855   1.212   0.655   2.711 -1.2047 -0.9963 -1.3778
   78MOL   H12241856   1.311   0.611   2.576 -2.1141  1.1500 -1.1191
   78MOL   H12341857   1.376   0.664   2.741 -2.1507 -0.8255  1.3304
   78MOL   H12441858   1.257   0.854   2.539  1.3342 -0.5918 -0.2860
   78MOL   H12541859   1.283   0.887   2.703 -0.8436 -0.2374 -0.5211
   78MOL   H12641860   1.469   0.972   2.612  1.6423  0.3369 -1.8677
   78MOL   H12741861   1.530   0.843   2.693 -2.0667 -1.4160  0.2639
   78MOL   H12841862   1.512   0.850   2.386 -2.2967  1.5726  1.6384
   78MOL   H12941863   1.524   0.694   2.474  0.6898  0.1523 -1.7577
   78MOL   H13041864   1.737   0.774   2.574 -0.3091 -1.2213 -0.2281
   78MOL   H13141865   1.729   0.764   2.395 -1.7745  1.0881 -1.3057
   78MOL   H13241866   1.744   1.323   2.587  0.5224  0.2149  0.1061
   78MOL   H13341867   1.668   1.208   2.480 -1.2558 -0.0806  0.6266
   78MOL   H13441868   1.661   1.186   2.655 -1.8925  1.3777 -1.4277
   78MOL   H13541869   2.030   1.089   2.661  0.5041  1.8569 -1.2391
   78MOL   H13641870   1.983   1.249   2.702 -1.9587  0.9175  0.2926
   78MOL   C13741871   1.537   0.727   3.233 -0.2141 -0.0429  0.4201
   78MOL   C13841872   1.571   0.872   3.290 -0.7917 -0.1938 -0.0313
   78MOL   C13941873   1.598   0.969   3.172 -0.4289  0.1849 -0.1101
   78MOL   C14041874   1.643   1.114   3.221 -0.1013 -0.5952  0.3333
   78MOL   C14141875   1.676   1.214   3.113  0.1325 -0.0074  0.3440
   78MOL   O14241876   1.765   1.152   3.024 -0.7913  0.7273 -0.3354
   78MOL   C14341877   1.808   1.206   2.913  0.1501  0.4241  0.0864
   78MOL   O14441878   1.792   1.324   2.866  0.4968 -0.0346 -0.1267
   78MOL   C14541879   1.889   1.096   2.834  1.0945 -0.1210 -0.5234
   78MOL   C14641880   1.795   0.969   2.816  0.2248 -0.5296 -0.4066
   78MOL   C14741881   2.015   1.057   2.917  0.5333 -0.1326 -0.0492
   78MOL   H14841882   1.561   0.640   3.293  1.3751 -0.4962 -0.8447
   78MOL   H14941883   1.577   0.705   3.134  2.4293  1.8893  0.9888
   78MOL   H15041884   1.428   0.723   3.223 -0.2595  2.0788 -0.3410
   78MOL   H15141885   1.665   0.864   3.346 -0.0356 -0.1948 -1.2814
   78MOL   H15241886   1.490   0.905   3.355 -0.6326  1.3825 -0.6067
   78MOL   H15341887   1.673   0.934   3.100 -1.5839  1.1242 -1.7873
   78MOL   H15441888   1.501   0.983   3.124 -1.0935  1.6996  1.6419
   78MOL   H15541889   1.554   1.143   3.276  0.3720 -0.9842  1.3183
   78MOL   H15641890   1.711   1.113   3.306 -1.6441  0.3833  1.6181
   78MOL   H15741891   1.710   1.306   3.161  1.7172  0.2766 -1.2573
   78MOL   H15841892   1.578   1.223   3.066  0.4175 -0.9949 -0.4476
   78MOL   H15941893   1.692   0.986   2.785 -0.4042  1.8680  2.7183
   78MOL   H16041894   1.796   0.918   2.912 -0.3012  1.7154  0.8450
   78MOL   H16141895   1.851   0.906   2.746 -0.5457 -2.4426  0.6698
   78MOL   H16241896   1.985   0.994   3.001  3.0649 -0.7432  0.4298
   78MOL   H16341897   2.062   0.991   2.844  0.0439 -2.2540  1.4894
   78MOL   C16441898   2.311   0.935   2.358 -0.4986  0.3731 -0.6175
   78MOL   C16541899   2.390   1.060   2.402  0.5137  0.0225  0.6919
   78MOL   C16641900   2.359   1.085   2.550  0.1210  0.0109  0.1693
   78MOL   C16741901   2.389   1.231   2.592  0.2702  0.7904 -0.1540
   78MOL   C16841902   2.303   1.298   2.697 -0.1627  0.2026  0.7632
   78MOL   O16941903   2.255   1.211   2.801 -0.3811 -0.0887  0.4592
   78MOL   C17041904   2.181   1.263   2.897 -0.6197  0.7603 -0.3124
   78MOL   O17141905   2.151   1.381   2.895 -0.1998  0.2242 -0.8358
   78MOL   C17241906   2.115   1.154   2.991 -0.1624 -0.6096  0.1257
   78MOL   C17341907   2.226   1.051   3.036  0.1276 -0.0340 -0.1661
   78MOL   C17441908   2.041   1.222   3.113 -0.4114  0.5032 -0.7777
   78MOL   H17541909   2.335   0.846   2.417  2.6720  1.8897  0.5336
   78MOL   H17641910   2.348   0.921   2.256  0.4198  2.1168 -0.5503
   78MOL   H17741911   2.203   0.941   2.361 -0.6703 -2.6469  0.5600
   78MOL   H17841912   2.346   1.136   2.337  1.4338  0.0162  0.0611
   78MOL   H17941913   2.493   1.049   2.368  0.6479  1.1868  0.6742
   78MOL   H18041914   2.252   1.070   2.554  0.3919 -1.8568  1.4584
   78MOL   H18141915   2.404   1.017   2.622 -2.0434 -2.0990 -0.3894
   78MOL   H18241916   2.408   1.300   2.510  1.5161 -1.0221 -1.4099
   78MOL   H18341917   2.487   1.227   2.639  0.3399 -1.0998 -0.4242
   78MOL   H18441918   2.212   1.339   2.651 -1.0807 -0.6145  1.8302
   78MOL   H18541919   2.354   1.387   2.733 -0.3810  0.7036 -0.1471
   78MOL   H18641920   2.280   1.011   2.950  1.3252 -2.3677  1.6351
   78MOL   H18741921   2.180   0.965   3.085 -1.1231  0.9027  0.3385
   78MOL   H18841922   2.302   1.090   3.103  1.5896 -0.1598 -1.7208
   78MOL   H18941923   1.983   1.303   3.068 -2.6453 -1.0759 -0.8293
   78MOL   H19041924   1.962   1.150   3.136  0.0035  0.4233  0.4007
   78MOL   C19141925   2.235   1.917   3.405 -0.2563  0.1935  0.1560
   78MOL   C19241926   2.183   1.898   3.260 -0.1279 -0.5386 -0.2075
   78MOL   C19341927   2.167   1.754   3.206 -0.2509  0.7113  0.0160
   78MOL   C19441928   2.303   1.676   3.201 -0.4371  0.3909 -0.1273
   78MOL   C19541929   2.300   1.557   3.113  0.1667  0.5573 -0.3887
   78MOL   O19641930   2.194   1.472   3.160 -0.4459 -0.0643 -0.1869
   78MOL   C19741931   2.227   1.353   3.215  0.8448  0.0499 -0.7002
   78MOL   O19841932   2.339   1.310   3.240  0.4185 -0.2173  0.1144
   78MOL   C19941933   2.102   1.277   3.243 -0.2583  0.3348  0.3012
   78MOL   C20041934   2.122   1.146   3.322  0.2189 -0.3304 -0.1620
   78MOL   C20141935   1.989   1.361   3.317  0.1669  0.4330  0.2811
   78MOL   H20241936   2.213   2.018   3.441 -0.7201 -0.4233  1.6394
   78MOL   H20341937   2.206   1.842   3.479 -3.1596  2.2716  1.2258
   78MOL   H20441938   2.343   1.907   3.402 -0.3468 -1.0861  0.5918
   78MOL   H20541939   2.259   1.946   3.199  1.0488  0.7175  2.1783
   78MOL   H20641940   2.090   1.955   3.252  0.5155  1.4184  4.3541
   78MOL   H20741941   2.127   1.755   3.104 -0.9193  2.8135  0.2667
   78MOL   H20841942   2.098   1.697   3.268 -0.7256  0.9949 -0.2485
   78MOL   H20941943   2.382   1.740   3.161 -0.1483 -0.1344 -0.3979
   78MOL   H21041944   2.327   1.647   3.303 -0.2308  0.7433 -0.0724
   78MOL   H21141945   2.275   1.581   3.010  0.5842 -0.5814 -0.7642
   78MOL   H21241946   2.402   1.519   3.115  1.0635  2.9402  2.1410
   78MOL   H21341947   2.155   1.183   3.419 -1.9371  1.4449 -0.0717
   78MOL   H21441948   2.196   1.077   3.281 -2.0300 -1.9882 -1.5545
   78MOL   H21541949   2.030   1.088   3.317 -0.1087  0.3406 -4.1842
   78MOL   H21641950   1.894   1.307   3.314  0.2329  0.3399 -0.2743
   78MOL   H21741951   1.963   1.439   3.245 -0.0054  1.3529  1.3313
   78MOL   C21841952   1.288   1.712   3.488  0.5148 -0.3827 -0.1742
   78MOL   C21941953   1.325   1.567   3.465 -0.3929  0.6786 -0.0469
   78MOL   C22041954   1.473   1.536   3.485 -0.3014  0.0286 -0.4839
   78MOL   C22141955   1.559   1.590   3.369  0.7094 -0.1742 -0.1774
   78MOL   C22241956   1.697   1.632   3.415 -0.2238 -0.3807 -0.2739
   78MOL   O22341957   1.780   1.523   3.429 -0.4193  0.8006 -0.2433
   78MOL   C22441958   1.902   1.541   3.474  0.4547 -0.2555 -0.6493
   78MOL   O22541959   1.936   1.652   3.525 -0.6165 -0.1411  0.2544
   78MOL   C22641960   1.997   1.413   3.470 -0.6541  0.1291 -0.2617
   78MOL   C22741961   2.139   1.463   3.501 -0.2426 -0.0324 -0.3478
   78MOL   C22841962   1.933   1.304   3.561 -0.1820  0.6224  0.2926
   78MOL   H22941963   1.179   1.718   3.494  0.5449 -0.1405  0.1417
   78MOL   H23041964   1.337   1.750   3.578  0.6668 -1.5504  0.2478
   78MOL   H23141965   1.311   1.779   3.405  1.8538  2.2536  2.2366
   78MOL   H23241966   1.280   1.530   3.372 -0.8812 -2.4315  1.3792
   78MOL   H23341967   1.272   1.517   3.545 -0.9995  1.3102 -0.0468
   78MOL   H23441968   1.482   1.428   3.499  0.0639  0.0476 -0.5624
   78MOL   H23541969   1.510   1.567   3.583  0.5129 -0.3034 -0.6849
   78MOL   H23641970   1.559   1.532   3.277 -0.6340  0.7242 -0.7576
   78MOL   H23741971   1.508   1.683   3.344  1.4345  1.6204  4.4535
   78MOL   H23841972   1.682   1.674   3.515 -2.7256  3.3683 -2.1229
   78MOL   H23941973   1.738   1.711   3.352  1.6547 -1.3924 -0.3742
   78MOL   H24041974   2.148   1.513   3.598  0.3245  0.0751 -0.4527
   78MOL   H24141975   2.177   1.529   3.423  1.2899 -1.4272 -0.8065
   78MOL   H24241976   2.214   1.384   3.507 -0.5190 -0.3793 -1.3685
   78MOL   H24341977   1.955   1.207   3.516  0.1944  0.9299 -0.1829
   78MOL   H24441978   1.824   1.295   3.551 -0.0233  1.5335 -3.1066
   78MOL   C24541979   1.312   1.590   3.947 -0.2650  0.3436  0.0557
   78MOL   C24641980   1.440   1.647   4.020  0.3058 -0.1171  0.6352
   78MOL   C24741981   1.546   1.687   3.916  0.3271  0.1719  0.0794
   78MOL   C24841982   1.620   1.563   3.864 -0.1975 -0.6733 -0.1487
   78MOL   C24941983   1.755   1.603   3.814 -0.3506 -0.3313  0.5609
   78MOL   O25041984   1.806   1.472   3.776 -0.2989  0.0039  0.0324
   78MOL   C25141985   1.930   1.432   3.793 -0.3530 -0.2014 -0.6983
   78MOL   O25241986   2.017   1.489   3.860 -0.0588  0.1284 -0.2103
   78MOL   C25341987   1.958   1.299   3.718 -0.1525  0.3073 -0.1917
   78MOL   C25441988   2.108   1.251   3.750  0.4222  0.7123 -0.2775
   78MOL   C25541989   1.855   1.189   3.774  0.1312 -1.2704  0.5482
   78MOL   H25641990   1.286   1.650   3.860 -2.0686  0.4536  0.6671
   78MOL   H25741991   1.334   1.486   3.921 -0.9275 -0.0364  0.9806
   78MOL   H25841992   1.241   1.596   4.029 -0.7596 -0.4493 -0.3045
   78MOL   H25941993   1.413   1.736   4.075 -0.0327  0.2475 -0.1061
   78MOL   H26041994   1.478   1.577   4.094  0.5184  0.6036  1.2124
   78MOL   H26141995   1.608   1.756   3.973  0.1957  0.0311  0.3948
   78MOL   H26241996   1.503   1.730   3.826 -2.7833 -1.2875  0.8008
   78MOL   H26341997   1.644   1.504   3.953  0.9908  0.0137 -0.0072
   78MOL   H26441998   1.556   1.504   3.798 -0.2058  0.1012 -0.8348
   78MOL   H26541999   1.744   1.663   3.724  0.5098  0.3787  0.9155
   78MOL   H26642000   1.819   1.652   3.886  1.1005 -0.0628 -0.8735
   78MOL   H26742001   2.113   1.168   3.679 -1.4447 -0.1185  0.5239
   78MOL   H26842002   2.190   1.320   3.729 -1.8964  3.6848  0.2102
   78MOL   H26942003   2.103   1.220   3.854 -0.0293  1.3093 -0.1195
   78MOL   H27042004   1.754   1.222   3.747  0.6170  1.2883  1.7755
   78MOL   H27142005   1.868   1.102   3.710 -2.0029 -1.2023 -0.0326
   78MOL   C27242006   2.071   0.422   4.005 -0.5002 -0.4009  0.0684
   78MOL   C27342007   2.020   0.540   4.090 -0.0372  0.0781  0.3235
   78MOL   C27442008   2.076   0.678   4.045 -0.1720 -0.6268 -0.0353
   78MOL   C27542009   2.056   0.787   4.149  0.6395 -0.4560  0.7947
   78MOL   C27642010   2.106   0.922   4.110 -0.1606 -0.8111  0.4026
   78MOL   O27742011   1.994   0.999   4.073 -0.2749  0.3495  0.3881
   78MOL   C27842012   1.968   1.022   3.941  0.1148 -0.1767  0.1057
   78MOL   O27942013   2.028   0.969   3.849 -0.1896 -0.6015 -0.3546
   78MOL   C28042014   1.859   1.133   3.921 -0.0837  0.0070  0.5466
   78MOL   C28142015   1.891   1.243   4.024 -0.7455  0.4324  0.1438
   78MOL   C28242016   1.719   1.068   3.965 -0.3580 -0.1533 -0.5862
   78MOL   H28342017   2.074   0.436   3.897  0.1143 -0.3122  0.0985
   78MOL   H28442018   2.175   0.398   4.027 -0.7402 -0.0445  1.6735
   78MOL   H28542019   2.012   0.332   4.025 -1.4399 -0.2012 -1.7196
   78MOL   H28642020   1.911   0.543   4.094 -0.0360 -1.3961  1.3632
   78MOL   H28742021   2.057   0.522   4.190  1.0973 -1.1333 -0.3025
   78MOL   H28842022   2.179   0.667   4.012 -0.8321 -2.1852 -1.6575
   78MOL   H28942023   2.031   0.714   3.952  1.4219  0.7306 -0.2964
   78MOL   H29042024   1.950   0.796   4.174 -0.0156 -2.4239 -1.0959
   78MOL   H29142025   2.111   0.756   4.237 -2.5326 -2.7148  2.0628
   78MOL   H29242026   2.178   0.916   4.028 -0.9843  0.4034 -0.4209
   78MOL   H29342027   2.149   0.981   4.191  3.4902 -1.6531 -0.8253
   78MOL   H29442028   1.882   1.214   4.129  1.7094  4.2345  1.5062
   78MOL   H29542029   1.986   1.296   4.014  0.1599 -1.2040  0.0076
   78MOL   H29642030   1.811   1.316   4.011  0.5746  2.3614  2.3990
   78MOL   H29742031   1.731   1.038   4.070 -0.7290  2.0567  0.1045
   78MOL   H29842032   1.654   1.153   3.984  0.8901  0.7023 -0.1126
   78MOL   C29942033   1.051   1.064   3.506  0.5950 -0.1686 -0.1161
   78MOL   C30042034   1.085   1.069   3.653  0.2973 -0.3597 -0.4128
   78MOL   C30142035   1.226   1.074   3.701  0.1829 -0.2632  0.4130
   78MOL   C30242036   1.296   1.210   3.685 -0.2634 -0.0535 -0.3986
   78MOL   C30342037   1.451   1.206   3.667  0.3263  0.3140 -0.3634
   78MOL   O30442038   1.511   1.138   3.777 -0.2269  0.3771 -0.2056
   78MOL   C30542039   1.577   1.016   3.757 -0.4341 -0.6232  0.5085
   78MOL   O30642040   1.582   0.955   3.649  0.3164 -0.4441 -0.2834
   78MOL   C30742041   1.637   0.956   3.885  0.0557 -0.6962  0.5041
   78MOL   C30842042   1.727   0.835   3.851  0.2202  0.5591  0.6370
   78MOL   C30942043   1.521   0.911   3.977  0.2209  0.3845 -0.3213
   78MOL   H31042044   1.073   1.158   3.457 -0.9431  0.4345  0.3314
   78MOL   H31142045   0.945   1.057   3.482  0.7697 -1.3471 -0.5824
   78MOL   H31242046   1.104   0.982   3.457  0.9367  0.2613 -0.4698
   78MOL   H31342047   1.041   0.982   3.701  0.1742  0.2519  0.5908
   78MOL   H31442048   1.033   1.161   3.681  0.3425 -1.0515  2.0910
   78MOL   H31542049   1.286   0.996   3.655  0.6182 -0.1822  0.8314
   78MOL   H31642050   1.232   1.071   3.810 -0.9277  0.4034  0.5055
   78MOL   H31742051   1.270   1.272   3.771  4.5595  0.0500  1.1530
   78MOL   H31842052   1.253   1.265   3.600  2.2327 -0.2155 -1.8093
   78MOL   H31942053   1.484   1.162   3.572  3.0038 -0.0750  0.6963
   78MOL   H32042054   1.495   1.305   3.671  3.3004 -0.9665 -0.3296
   78MOL   H32142055   1.799   0.867   3.776  1.9337  0.0638  2.0244
   78MOL   H32242056   1.778   0.798   3.940  1.1625  1.5557  0.5090
   78MOL   H32342057   1.672   0.748   3.812 -2.0167  0.9020  2.8749
   78MOL   H32442058   1.441   0.984   3.974  0.0494  0.3008  1.4620
   78MOL   H32542059   1.562   0.916   4.078  0.5833 -1.2292 -0.3683
   78MOL   C32642060   0.864   0.609   3.435  0.4617  0.7490  0.5807
   78MOL   C32742061   0.933   0.606   3.573  0.1898  0.3201 -0.9837
   78MOL   C32842062   1.085   0.653   3.553 -0.4791  0.4407 -0.6066
   78MOL   C32942063   1.168   0.670   3.683  0.0320  0.6584  0.3906
   78MOL   C33042064   1.305   0.716   3.649  0.3454 -0.0826 -0.4579
   78MOL   O33142065   1.362   0.771   3.772  0.4019 -0.1410  0.3876
   78MOL   C33242066   1.423   0.693   3.864 -0.1951  0.2188 -0.8526
   78MOL   O33342067   1.459   0.573   3.845  0.3626 -0.5418  0.1987
   78MOL   C33442068   1.454   0.765   3.995 -0.4298 -0.3422 -0.5532
   78MOL   C33542069   1.549   0.667   4.081  0.1363 -0.7176 -0.6139
   78MOL   C33642070   1.323   0.796   4.077 -0.0121  0.5447 -0.0383
   78MOL   H33742071   0.916   0.543   3.365  1.7561  2.9015 -0.5552
   78MOL   H33842072   0.843   0.707   3.393 -1.7935 -0.6299 -1.6614
   78MOL   H33942073   0.763   0.581   3.466  0.3822  0.4158  0.0384
   78MOL   H34042074   0.930   0.506   3.617  0.7170 -0.1329 -1.9364
   78MOL   H34142075   0.889   0.682   3.637  2.4683  0.6958  0.1936
   78MOL   H34242076   1.091   0.748   3.499  0.9123  1.3055  1.0182
   78MOL   H34342077   1.135   0.590   3.480  1.0658  2.5556 -1.4149
   78MOL   H34442078   1.173   0.584   3.750  0.7460 -0.7794 -1.4639
   78MOL   H34542079   1.111   0.748   3.734 -0.2809  1.5779 -1.3582
   78MOL   H34642080   1.301   0.792   3.571  0.0175  2.5761  2.0754
   78MOL   H34742081   1.363   0.639   3.598 -0.3655  0.0669 -1.5260
   78MOL   H34842082   1.632   0.630   4.021  0.8885 -0.8804  0.5044
   78MOL   H34942083   1.488   0.587   4.122 -0.7212 -0.0448 -0.5614
   78MOL   H35042084   1.587   0.717   4.171 -1.9613 -0.4464  0.1580
   78MOL   H35142085   1.256   0.856   4.015  0.3262  2.1423  1.1228
   78MOL   H35242086   1.358   0.871   4.148 -1.1122  0.8979  0.1390
   78MOL   C35342087   0.966   0.986   4.719 -0.8556  0.4676  0.9494
   78MOL   C35442088   1.119   0.977   4.732  0.3440  0.0684 -0.1266
   78MOL   C35542089   1.168   0.897   4.606 -0.1748  0.4347  0.2804
   78MOL   C35642090   1.316   0.891   4.595 -0.1962  0.7248 -0.2255
   78MOL   C35742091   1.344   0.766   4.513  0.2556 -0.7275 -0.2750
   78MOL   O35842092   1.292   0.782   4.379 -0.3534 -0.7080 -0.0757
   78MOL   C35942093   1.295   0.669   4.298  0.1869  0.8009  0.1620
   78MOL   O36042094   1.348   0.562   4.319  0.0700 -0.4660  0.3821
   78MOL   C36142095   1.231   0.696   4.161 -0.5912  0.3725 -1.1216
   78MOL   C36242096   1.215   0.566   4.073  0.9239 -0.5796 -0.4874
   78MOL   C36342097   1.087   0.761   4.167 -0.8632 -0.3217  0.0902
   78MOL   H36442098   0.916   0.889   4.715  1.1555 -0.5602 -0.4691
   78MOL   H36542099   0.936   1.029   4.623 -1.5348 -2.7899 -0.3710
   78MOL   H36642100   0.929   1.039   4.806 -1.1103 -0.7637  1.6112
   78MOL   H36742101   1.163   1.077   4.740  0.7626 -0.1788  0.7150
   78MOL   H36842102   1.141   0.927   4.826 -0.6900  0.0011  0.0773
   78MOL   H36942103   1.125   0.928   4.510  0.2119  0.6602  0.1765
   78MOL   H37042104   1.131   0.798   4.630  1.6501 -0.2140  0.4824
   78MOL   H37142105   1.368   0.887   4.690 -0.9511  2.4816  0.2774
   78MOL   H37242106   1.347   0.985   4.550 -1.2036  0.8020 -0.7618
   78MOL   H37342107   1.451   0.747   4.505  0.1036 -1.5887 -0.2701
   78MOL   H37442108   1.294   0.683   4.562 -2.6899  1.9956  1.5372
   78MOL   H37542109   1.178   0.586   3.973 -1.1680  1.1582  0.5856
   78MOL   H37642110   1.309   0.510   4.068 -0.0992 -2.4284  0.7596
   78MOL   H37742111   1.145   0.495   4.116  0.3437  1.3575  1.8994
   78MOL   H37842112   1.097   0.860   4.213  0.2164 -0.3023 -0.1760
   78MOL   H37942113   1.055   0.791   4.067 -0.3180 -1.3496 -0.3920
   78MOL   C38042114   1.096   0.117   4.200 -0.2109 -0.1220 -0.1460
   78MOL   C38142115   0.946   0.140   4.212 -0.0632 -0.0440 -0.1653
   78MOL   C38242116   0.901   0.285   4.170 -0.0495  0.4025 -0.3440
   78MOL   C38342117   0.754   0.316   4.183 -0.3359 -0.2290 -0.2166
   78MOL   C38442118   0.691   0.446   4.132 -1.4088  0.2383  1.1993
   78MOL   O38542119   0.764   0.549   4.195  0.6363 -0.0394 -0.3404
   78MOL   C38642120   0.873   0.613   4.140 -0.4586 -0.2160 -0.3315
   78MOL   O38742121   0.906   0.608   4.022  0.2469 -0.6010  0.6397
   78MOL   C38842122   0.954   0.707   4.236  0.2877  0.2603 -0.1693
   78MOL   C38942123   0.985   0.616   4.356 -0.7253  0.6275 -0.3447
   78MOL   C39042124   0.867   0.811   4.297  0.1981 -0.7218  0.6093
   78MOL   H39142125   1.122   0.012   4.188 -0.3009 -0.5429  2.8368
   78MOL   H39242126   1.127   0.170   4.111 -0.3803  2.2654  1.1658
   78MOL   H39342127   1.145   0.163   4.286  0.1005 -1.5029  0.4373
   78MOL   H39442128   0.907   0.105   4.308 -1.1526 -0.3445 -0.7118
   78MOL   H39542129   0.893   0.076   4.140 -0.8535 -0.0836  0.4468
   78MOL   H39642130   0.969   0.358   4.215  1.8149 -1.2589 -0.4013
   78MOL   H39742131   0.919   0.294   4.062  3.4741 -3.3870 -0.2041
   78MOL   H39842132   0.690   0.239   4.140  0.1812 -0.6431 -0.2503
   78MOL   H39942133   0.739   0.302   4.290 -1.3277 -0.4812 -0.3807
   78MOL   H40042134   0.588   0.462   4.165 -1.1702  0.3229  1.9078
   78MOL   H40142135   0.688   0.466   4.025  1.2661 -0.3779  0.9934
   78MOL   H40242136   1.038   0.656   4.442  0.9274  1.0871 -1.5469
   78MOL   H40342137   1.044   0.530   4.325  0.8078  1.8065 -0.7828
   78MOL   H40442138   0.895   0.578   4.404  0.5369 -0.9483  0.8204
   78MOL   H40542139   0.908   0.846   4.391 -0.1940 -1.3387  1.0167
   78MOL   H40642140   0.780   0.755   4.332 -0.3689 -0.0972  0.2097
   78MOL   C40742141   1.044   1.601   4.361  0.5969 -0.7826 -0.3078
   78MOL   C40842142   1.163   1.516   4.398  0.7249 -0.4368  0.3277
   78MOL   C40942143   1.177   1.392   4.316 -0.2757 -0.0687  0.0447
   78MOL   C41042144   1.061   1.296   4.322 -0.6410 -0.0307  0.0096
   78MOL   C41142145   1.108   1.160   4.275  0.0974  0.1274  0.0756
   78MOL   O41242146   0.994   1.067   4.292  0.3171  0.2676 -0.1003
   78MOL   C41342147   0.909   1.038   4.192 -0.0770 -0.3683  0.4672
   78MOL   O41442148   0.912   1.089   4.078  0.0750 -0.0383 -0.2733
   78MOL   C41542149   0.802   0.936   4.225 -0.3180  0.2390  0.4051
   78MOL   C41642150   0.721   0.893   4.101 -0.7482  0.0213  0.1729
   78MOL   C41742151   0.701   0.992   4.333 -0.4321  0.8336 -0.8831
   78MOL   H41842152   0.948   1.550   4.361  0.4811 -0.5693 -0.6555
   78MOL   H41942153   1.044   1.688   4.427 -0.4415 -2.5172  2.0641
   78MOL   H42042154   1.047   1.644   4.261 -0.0992  4.1842  1.6673
   78MOL   H42142155   1.154   1.501   4.506 -0.0014  0.4981  0.4027
   78MOL   H42242156   1.245   1.586   4.380 -2.2008  2.8007 -0.9033
   78MOL   H42342157   1.188   1.419   4.212 -1.0670  0.2595  0.0477
   78MOL   H42442158   1.273   1.346   4.339  0.3849  0.7647 -1.0162
   78MOL   H42542159   0.984   1.329   4.253  0.2565  1.5214 -0.2704
   78MOL   H42642160   1.023   1.297   4.424 -2.3576  0.9271 -0.6329
   78MOL   H42742161   1.133   1.157   4.169  1.9446 -0.2240  0.5096
   78MOL   H42842162   1.187   1.115   4.335  0.3388 -1.0511 -1.1119
   78MOL   H42942163   0.789   0.847   4.030 -0.5121 -0.1162  0.4890
   78MOL   H43042164   0.679   0.981   4.053 -0.0996  1.2335  1.7865
   78MOL   H43142165   0.643   0.827   4.140 -0.3563  0.7978  2.3502
   78MOL   H43242166   0.765   1.020   4.416  2.0744 -2.8946 -1.4220
   78MOL   H43342167   0.642   0.911   4.376  0.4848  0.6609  0.0525
   78MOL   C43442168   0.513   0.818   3.730 -0.0302 -0.3983 -0.3937
   78MOL   C43542169   0.452   0.741   3.840  0.2300 -0.3543 -0.3368
   78MOL   C43642170   0.398   0.834   3.947 -0.2603  0.1213 -0.5505
   78MOL   C43742171   0.364   0.767   4.080  0.0700 -0.2699  0.5658
   78MOL   C43842172   0.323   0.863   4.194  0.1228 -0.0253 -0.6654
   78MOL   O43942173   0.435   0.924   4.259 -0.6143 -0.5791 -0.0184
   78MOL   C44042174   0.469   1.047   4.232  0.2339  0.0517 -0.3576
   78MOL   O44142175   0.407   1.122   4.157  0.1165  0.4924 -0.6728
   78MOL   C44242176   0.591   1.106   4.314  0.3045  0.4300  0.3837
   78MOL   C44342177   0.656   1.233   4.249 -0.3347  0.3677  0.0028
   78MOL   C44442178   0.553   1.149   4.461  0.3113 -0.1995 -0.1231
   78MOL   H44542179   0.435   0.881   3.687 -0.7086 -1.8233 -1.2754
   78MOL   H44642180   0.599   0.880   3.757 -1.5730  1.3414  0.6280
   78MOL   H44742181   0.551   0.738   3.666  3.6668  1.0139 -0.1356
   78MOL   H44842182   0.370   0.674   3.815  0.6348 -0.1587 -2.2509
   78MOL   H44942183   0.537   0.683   3.875  0.5234  0.6454  0.6537
   78MOL   H45042184   0.461   0.918   3.973 -0.6356  0.2148  0.0663
   78MOL   H45142185   0.303   0.882   3.923 -1.1553 -1.2431  0.1233
   78MOL   H45242186   0.449   0.714   4.121 -0.0375 -0.1406  0.9570
   78MOL   H45342187   0.283   0.696   4.062 -0.1157 -0.1892  1.0732
   78MOL   H45442188   0.301   0.792   4.274  1.5180  0.3378  0.0589
   78MOL   H45542189   0.234   0.925   4.183  0.7135  0.6621 -1.6800
   78MOL   H45642190   0.746   1.255   4.307  2.1588  0.1034 -3.5846
   78MOL   H45742191   0.689   1.208   4.149 -1.3602  0.7231 -0.4308
   78MOL   H45842192   0.595   1.322   4.236  1.3762  1.2786 -2.0831
   78MOL   H45942193   0.634   1.219   4.480  0.7583 -0.8695  0.4586
   78MOL   H46042194   0.570   1.062   4.524  1.9277  0.9616  1.0888
   78MOL   C46142195   0.600   0.547   4.545  0.1100  0.4344 -0.0270
   78MOL   C46242196   0.478   0.610   4.612 -0.1370  0.7329  0.2884
   78MOL   C46342197   0.411   0.728   4.543  0.1987  0.3951  0.0102
   78MOL   C46442198   0.288   0.779   4.611 -0.0412  0.3892  0.0766
   78MOL   C46542199   0.225   0.897   4.536  0.5625  0.2187  0.2244
   78MOL   O46642200   0.317   1.005   4.555 -0.3665 -0.4183  0.7556
   78MOL   C46742201   0.300   1.116   4.494  0.6508  0.4415 -0.1963
   78MOL   O46842202   0.198   1.145   4.434  0.1343 -0.2624 -0.6788
   78MOL   C46942203   0.416   1.214   4.511 -0.0866  0.0914 -0.0163
   78MOL   C47042204   0.396   1.342   4.428  0.1501  0.2527 -0.7966
   78MOL   C47142205   0.442   1.246   4.661  0.0438 -0.1187 -0.1553
   78MOL   H47242206   0.581   0.469   4.471 -0.1006 -0.2132  0.7090
   78MOL   H47342207   0.642   0.491   4.628  1.6300  1.2842 -0.2138
   78MOL   H47442208   0.678   0.619   4.521  0.1241  1.2393  2.3345
   78MOL   H47542209   0.528   0.657   4.696  3.1887 -1.9792 -0.0378
   78MOL   H47642210   0.403   0.542   4.652  1.4939 -1.3245 -0.0673
   78MOL   H47742211   0.391   0.684   4.445 -0.9575 -0.7352  0.7236
   78MOL   H47842212   0.481   0.805   4.511  1.9719 -1.1433  0.1113
   78MOL   H47942213   0.309   0.799   4.716  0.4851  2.3797 -0.3788
   78MOL   H48042214   0.217   0.697   4.606  1.0173 -0.7810  3.1477
   78MOL   H48142215   0.202   0.881   4.431 -0.0548  0.9621  0.2397
   78MOL   H48242216   0.126   0.914   4.579  0.6634  0.7293  0.2574
   78MOL   H48342217   0.467   1.420   4.456 -1.2488  1.0674  0.5035
   78MOL   H48442218   0.297   1.381   4.448 -0.3589 -1.1945 -0.4357
   78MOL   H48542219   0.396   1.319   4.321  1.0080 -1.2247 -0.5027
   78MOL   H48642220   0.527   1.314   4.662  0.0872 -0.1205 -2.3106
   78MOL   H48742221   0.487   1.156   4.704 -0.6510 -1.5710 -2.4261
   78MOL   C48842222   0.734   0.751   4.854 -0.7732  0.1683 -0.2968
   78MOL   C48942223   0.699   0.840   4.974 -0.2591  0.2202  0.4122
   78MOL   C49042224   0.562   0.899   4.950 -0.4581 -0.5793 -0.8553
   78MOL   C49142225   0.529   1.004   5.061  0.8914  0.0860  0.0346
   78MOL   C49242226   0.385   1.061   5.032 -0.4247 -0.4883  0.5413
   78MOL   O49342227   0.367   1.131   4.909  0.2679  0.6123 -0.4024
   78MOL   C49442228   0.393   1.262   4.902  0.7381  0.5798 -0.7929
   78MOL   O49542229   0.461   1.324   4.984  0.2277 -0.2020  0.1792
   78MOL   C49642230   0.344   1.319   4.768  0.2766  0.0502 -0.3045
   78MOL   C49742231   0.195   1.264   4.755  0.3050 -0.0702 -0.5030
   78MOL   C49842232   0.351   1.473   4.759 -0.2918 -0.1528  0.3566
   78MOL   H49942233   0.837   0.715   4.857  0.2851  3.1769  2.8715
   78MOL   H50042234   0.668   0.664   4.860 -0.9758  0.4917  3.3454
   78MOL   H50142235   0.728   0.803   4.759 -2.1320  1.2373  0.3545
   78MOL   H50242236   0.769   0.924   4.972 -2.6268  2.3401  2.4958
   78MOL   H50342237   0.699   0.798   5.075  1.6765  0.7748  0.6626
   78MOL   H50442238   0.554   0.934   4.847 -1.4891 -3.1310 -1.6847
   78MOL   H50542239   0.485   0.825   4.968  1.0933 -1.5169  2.3929
   78MOL   H50642240   0.607   1.080   5.057  3.8040 -2.7361  1.0254
   78MOL   H50742241   0.531   0.959   5.160  2.6935  2.2315  0.9874
   78MOL   H50842242   0.322   0.972   5.027  2.6286 -2.8791  2.6863
   78MOL   H50942243   0.365   1.118   5.123  0.9030 -1.9647  1.7886
   78MOL   H51042244   0.137   1.316   4.679  0.8257  1.6931  0.2842
   78MOL   H51142245   0.137   1.278   4.846  0.4411 -0.1870 -0.3982
   78MOL   H51242246   0.179   1.157   4.740 -0.0701 -0.1931  0.7185
   78MOL   H51342247   0.336   1.504   4.656  1.9748  1.7695  0.5624
   78MOL   H51442248   0.454   1.506   4.777 -0.1301  0.8293 -2.1836
   78MOL   C51542249   7.593   1.816   4.252  0.5523  0.5542 -0.4073
   78MOL   C51642250   7.698   1.856   4.347 -0.1778 -0.2174 -0.7164
   78MOL   C51742251   7.693   1.777   4.482  0.7575 -0.7333  0.2291
   78MOL   C51842252   7.752   1.636   4.491  0.0903 -0.3206 -0.4969
   78MOL   C51942253   7.758   1.571   4.641 -0.6920  0.2564 -0.3028
   78MOL   O52042254   0.077   1.584   4.684  0.6596  0.0314  0.4302
   78MOL   C52142255   0.108   1.567   4.808  0.4168  0.0069 -0.0058
   78MOL   O52242256   0.023   1.561   4.900 -0.5345  0.0851 -0.3398
   78MOL   C52342257   0.260   1.578   4.836 -0.6464 -0.6369  0.6249
   78MOL   C52442258   0.298   1.721   4.807 -0.1204  0.6806  1.0058
   78MOL   C52542259   0.276   1.558   4.986 -0.0573 -0.4215  0.7062
   78MOL   H52642260   7.589   1.710   4.231  1.0049  0.4069  0.2059
   78MOL   H52742261   7.496   1.850   4.288  0.5487  0.1674 -0.0514
   78MOL   H52842262   7.619   1.861   4.156 -0.5904 -1.6652 -1.7689
   78MOL   H52942263   7.795   1.839   4.301 -0.9770 -0.3765 -2.3624
   78MOL   H53042264   7.684   1.962   4.372 -0.9625 -0.8342  1.6205
   78MOL   H53142265   7.755   1.832   4.553 -0.8103  0.1754  0.9158
   78MOL   H53242266   7.590   1.784   4.517  0.1892 -1.0909 -1.3098
   78MOL   H53342267   0.026   1.620   4.429  0.0120  0.7727 -0.9088
   78MOL   H53442268   7.686   1.568   4.437 -0.3858  2.3308 -3.4094
   78MOL   H53542269   7.679   1.612   4.703  0.6204 -0.8612  2.1723
   78MOL   H53642270   7.729   1.466   4.631 -0.3051  0.1363 -0.2018
   78MOL   H53742271   0.240   1.789   4.870  0.1624  0.4756  1.4929
   78MOL   H53842272   0.284   1.750   4.703  3.0344 -2.4475 -0.3875
   78MOL   H53942273   0.402   1.744   4.831  0.3366 -1.5179  1.2552
   78MOL   H54042274   0.236   1.461   5.016 -1.8088 -0.3337 -1.2770
   78MOL   H54142275   0.225   1.629   5.051  0.6766  0.9033 -0.1538
   78MOL   H54242276   0.381   1.561   5.016  0.3032  0.6431 -0.6692
   79MOL     C142277   0.392   0.403   6.647  0.3824 -0.4453  0.0498
   79MOL     C242278   0.487   0.285   6.632  0.3305  0.2758  0.4057
   79MOL     C342279   0.569   0.247   6.765 -0.5499 -0.5318  0.7844
   79MOL     C442280   0.664   0.127   6.766  1.1278  0.1068  0.3103
   79MOL     C542281   0.787   0.137   6.677  0.3206  0.7287  0.1983
   79MOL     O642282   0.872   0.021   6.700 -0.1795 -0.3296  0.0743
   79MOL     C742283   0.855   7.734   6.605 -0.5611  0.2614 -0.9071
   79MOL     O842284   0.797   7.730   6.495  0.8181  0.0774  0.1550
   79MOL     C942285   0.934   7.606   6.645  0.4327 -0.0742  0.1317
   79MOL    C1042286   0.887   7.566   6.787  0.3749 -0.5322  0.6759
   79MOL    C1142287   1.084   7.641   6.649  0.1515  0.0537 -0.1099
   79MOL    H1242288   0.326   0.402   6.734 -0.4817  1.2794 -0.5716
   79MOL    H1342289   0.325   0.410   6.562  1.3971 -0.2503 -0.7339
   79MOL    H1442290   0.454   0.493   6.650  0.1387 -0.2968  0.9189
   79MOL    H1542291   0.416   0.215   6.588  0.9769  0.0144 -0.2337
   79MOL    H1642292   0.546   0.316   6.546 -0.7038  1.4998  0.1128
   79MOL    H1742293   0.632   0.332   6.791 -0.4591 -0.2981 -0.1751
   79MOL    H1842294   0.506   0.230   6.852 -2.0705  0.3045 -0.1414
   79MOL    H1942295   0.608   0.040   6.735 -1.5257  1.6344  0.7040
   79MOL    H2042296   0.694   0.111   6.870  2.0507 -0.5477 -0.0493
   79MOL    H2142297   0.766   0.145   6.570  2.1283 -2.5651 -0.4713
   79MOL    H2242298   0.846   0.228   6.690 -1.1263  2.1240 -2.5305
   79MOL    H2342299   0.916   7.646   6.855 -1.9053  1.1643 -0.2977
   79MOL    H2442300   0.932   7.473   6.821  0.9088 -1.0628 -1.4213
   79MOL    H2542301   0.780   7.565   6.808  0.5773 -1.2410  1.7376
   79MOL    H2642302   1.115   7.598   6.744 -1.8805  0.4665  0.7446
   79MOL    H2742303   1.100   7.747   6.663 -1.5442  0.4407 -1.0175
   79MOL    H2842304   0.922   7.525   6.573 -2.2637 -1.0729  1.6318
   79MOL    C2942305   1.025   0.398   6.479 -0.4047 -0.2525 -0.3403
   79MOL    C3042306   1.073   0.326   6.353  0.4488 -0.9384  0.4070
   79MOL    C3142307   1.055   0.175   6.357  0.1636  0.0100  1.0196
   79MOL    C3242308   1.079   0.091   6.224  0.6018 -0.3296 -0.2359
   79MOL    C3342309   1.045   7.753   6.242 -0.1768 -0.2468 -0.0735
   79MOL    O3442310   1.118   7.715   6.356 -0.5019  0.3096 -0.5399
   79MOL    C3542311   1.112   7.586   6.401 -0.2462 -0.4015  0.3404
   79MOL    O3642312   1.050   7.496   6.344 -0.7171  0.3397  0.1396
   79MOL    C3742313   1.175   7.567   6.539  0.0374 -0.2300 -0.4409
   79MOL    C3842314   1.163   7.412   6.582 -0.1583  0.1166  0.1042
   79MOL    C3942315   1.319   7.628   6.556  0.0453 -0.6406 -0.1649
   79MOL    H4042316   1.074   0.378   6.575  1.1190  1.4102 -0.7511
   79MOL    H4142317   1.032   0.506   6.477  0.0683 -0.2417  0.9611
   79MOL    H4242318   0.918   0.383   6.492  0.0881 -3.2283  0.7268
   79MOL    H4342319   1.180   0.347   6.348  0.2562 -0.2111 -0.7020
   79MOL    H4442320   1.026   0.380   6.271  1.8139  0.8365  0.7652
   79MOL    H4542321   0.961   0.146   6.403 -0.1040 -0.1016  0.4088
   79MOL    H4642322   1.136   0.141   6.422  0.7837 -3.3740 -1.3570
   79MOL    H4742323   1.017   0.127   6.141  1.9342  0.4956 -0.8926
   79MOL    H4842324   1.182   0.107   6.191 -0.1141  2.9263 -1.0473
   79MOL    H4942325   1.074   7.705   6.148  1.6464 -0.4989  0.5918
   79MOL    H5042326   0.937   7.743   6.249 -0.7260  3.4306 -1.8195
   79MOL    H5142327   1.067   7.362   6.581  0.1464 -0.4469 -0.8354
   79MOL    H5242328   1.206   7.402   6.682 -0.8930 -0.5858  0.3459
   79MOL    H5342329   1.225   7.355   6.513 -1.0200  1.5005 -1.8387
   79MOL    H5442330   1.339   7.670   6.655 -1.4619 -1.1260  0.3582
   79MOL    H5542331   1.312   7.720   6.500 -0.9502  0.3635  1.5463
   79MOL    C5642332   1.195   7.513   7.147  0.5375  0.9257 -0.5347
   79MOL    C5742333   1.199   7.374   7.070 -0.1092  0.6133 -0.3411
   79MOL    C5842334   1.275   7.378   6.941  0.0402  0.1522  0.3445
   79MOL    C5942335   1.424   7.378   6.967  0.3158  0.0517  0.1561
   79MOL    C6042336   1.510   7.363   6.837 -0.1849 -0.3897 -0.2116
   79MOL    O6142337   1.490   7.467   6.742 -0.8274 -0.3389  0.2007
   79MOL    C6242338   1.476   7.433   6.610 -1.2548  0.6551 -0.2014
   79MOL    O6342339   1.487   7.315   6.568  0.5934 -0.5703 -0.7890
   79MOL    C6442340   1.458   7.555   6.522  0.3226 -0.2188 -0.6665
   79MOL    C6542341   1.559   7.675   6.557  0.5137  0.0985 -0.0770
   79MOL    C6642342   1.458   7.516   6.368 -0.0149  0.2369  0.1129
   79MOL    H6742343   1.231   7.590   7.078  1.5567 -0.4307 -1.5480
   79MOL    H6842344   1.277   7.512   7.219  0.4384 -0.5832 -0.4361
   79MOL    H6942345   1.105   7.541   7.201  1.4661 -0.1484  1.6286
   79MOL    H7042346   1.235   7.294   7.134  0.9700  0.6427 -0.8933
   79MOL    H7142347   1.105   7.348   7.023  0.0411  1.2646 -1.0230
   79MOL    H7242348   1.251   7.295   6.874  1.4505 -1.2881  1.5517
   79MOL    H7342349   1.248   7.464   6.881  1.7194 -0.2834 -1.0820
   79MOL    H7442350   1.454   7.299   7.035  0.3326 -1.6439 -1.7679
   79MOL    H7542351   1.429   7.481   7.000  0.5659  0.5750 -1.4623
   79MOL    H7642352   1.612   7.375   6.876 -1.1063 -0.2912  2.2715
   79MOL    H7742353   1.517   7.265   6.789 -0.7325 -0.1344 -0.8149
   79MOL    H7842354   1.660   7.652   6.522  0.0274  0.4923 -1.7683
   79MOL    H7942355   1.558   7.686   6.666  1.7320 -0.0546 -0.0472
   79MOL    H8042356   1.515   7.766   6.516 -1.8041 -1.1985 -0.5416
   79MOL    H8142357   1.396   7.588   6.314  1.1522  0.7402 -0.5799
   79MOL    H8242358   1.401   7.424   6.364 -0.6107  0.5322  1.3944
   79MOL    C8342359   1.980   7.585   6.666 -0.2212  0.0555 -0.0149
   79MOL    C8442360   2.080   7.627   6.559 -0.5139  0.6008  0.0148
   79MOL    C8542361   2.010   7.627   6.418 -0.8382  0.1447 -0.1002
   79MOL    C8642362   1.930   7.756   6.380 -0.1427  0.2190 -0.2658
   79MOL    C8742363   1.873   7.739   6.240 -0.0229  0.0887  0.1230
   79MOL    O8842364   1.792   7.627   6.232 -0.0312 -0.6392  0.4243
   79MOL    C8942365   1.657   7.640   6.252  0.0060  0.1483 -0.1727
   79MOL    O9042366   1.593   7.743   6.241  0.8839 -0.3558  0.1134
   79MOL    C9142367   1.590   7.505   6.282 -0.4058 -0.2818  0.2777
   79MOL    C9242368   1.686   7.421   6.363  0.1951 -0.2994  0.1681
   79MOL    C9342369   1.571   7.424   6.147 -0.5069 -0.1103 -0.1820
   79MOL    H9442370   2.035   7.586   6.760 -0.7404 -0.0598  0.2968
   79MOL    H9542371   1.886   7.640   6.662  0.4296  1.1388 -0.7187
   79MOL    H9642372   1.946   7.481   6.668  1.9266 -0.6413  2.8792
   79MOL    H9742373   2.160   7.552   6.563  0.4530  1.6610  0.7773
   79MOL    H9842374   2.129   7.724   6.567 -1.4581  1.0310  0.5361
   79MOL    H9942375   1.950   7.536   6.406  1.2012 -1.3997  1.0881
   79MOL   H10042376   2.086   7.621   6.340 -2.1644 -1.7281 -1.2894
   79MOL   H10142377   1.996   0.023   6.351 -0.6501  0.0346 -2.0537
   79MOL   H10242378   1.860   7.801   6.450 -0.4599 -1.4800  0.5303
   79MOL   H10342379   1.950   7.738   6.162  0.1609 -0.8523  0.3061
   79MOL   H10442380   1.822   0.017   6.213  0.2679  0.6912  1.5899
   79MOL   H10542381   1.772   7.393   6.302  0.4216 -0.5638  0.6032
   79MOL   H10642382   1.641   7.325   6.387 -1.6033  0.5078  0.1194
   79MOL   H10742383   1.717   7.462   6.459 -0.3383 -2.7555  1.4317
   79MOL   H10842384   1.665   7.422   6.092 -0.9135  0.6500 -0.9223
   79MOL   H10942385   1.562   7.319   6.173 -1.3234 -0.4362 -1.6901
   79MOL   C11042386   0.927   6.799   6.230  0.7423 -0.1945  0.3491
   79MOL   C11142387   1.071   6.856   6.201  0.4939 -0.1977 -0.0476
   79MOL   C11242388   1.071   7.013   6.187  0.7604 -0.5935 -0.0136
   79MOL   C11342389   1.204   7.064   6.137  0.6894 -0.6108 -0.5388
   79MOL   C11442390   1.224   7.212   6.178 -0.2563  0.2970  0.0907
   79MOL   O11542391   1.330   7.280   6.110  0.3286  0.3172 -0.0585
   79MOL   C11642392   1.323   7.415   6.091 -0.5241  0.3973  0.2932
   79MOL   O11742393   1.226   7.488   6.104 -0.4059  0.6016  0.0871
   79MOL   C11842394   1.461   7.455   6.031 -0.4984 -0.5575 -0.3124
   79MOL   C11942395   1.492   7.365   5.906 -0.3039  0.2881 -0.3776
   79MOL   C12042396   1.463   7.613   5.996 -0.2316 -0.6952 -0.8520
   79MOL   H12142397   0.933   6.705   6.285 -0.2965 -2.3230 -3.0253
   79MOL   H12242398   0.875   6.864   6.300  2.7865  1.0244  0.7796
   79MOL   H12342399   0.876   6.783   6.135 -1.3692  0.0335  1.4366
   79MOL   H12442400   1.146   6.833   6.277 -0.3726  1.1274  1.2334
   79MOL   H12542401   1.114   6.822   6.107 -0.5000  1.6035 -1.1942
   79MOL   H12642402   0.999   7.048   6.114 -0.5494 -1.8174  0.6606
   79MOL   H12742403   1.048   7.061   6.282  0.8472  1.0732 -0.8197
   79MOL   H12842404   1.210   7.060   6.028  1.4946 -0.5527 -0.5002
   79MOL   H12942405   1.287   6.997   6.164  1.0238 -0.4389 -1.1240
   79MOL   H13042406   1.130   7.263   6.159 -0.5697 -0.5680 -0.7409
   79MOL   H13142407   1.237   7.215   6.286  1.4907  0.8074 -0.1174
   79MOL   H13242408   1.596   7.382   5.877  0.4299  0.2136  2.0989
   79MOL   H13342409   1.494   7.256   5.909  0.0457  0.3091  0.2870
   79MOL   H13442410   1.433   7.387   5.817 -0.0231  3.2709  0.1087
   79MOL   H13542411   1.413   7.665   6.079 -2.1880  0.1656 -2.5154
   79MOL   H13642412   1.566   7.645   6.004 -0.1010 -1.3235  0.0924
   79MOL   C13742413   1.946   0.223   5.786 -0.6847 -0.0603 -0.0899
   79MOL   C13842414   1.928   0.173   5.640  0.2227 -0.8545 -0.0388
   79MOL   C13942415   1.795   0.091   5.638 -0.0703  0.4965 -0.0068
   79MOL   C14042416   1.809   7.752   5.645 -0.3807 -0.6659 -0.1774
   79MOL   C14142417   1.672   7.668   5.620 -0.3210 -0.4195  0.0221
   79MOL   O14242418   1.589   7.676   5.734  0.0426 -0.0858 -0.0186
   79MOL   C14342419   1.465   7.632   5.733 -0.2486  0.5098 -0.2845
   79MOL   O14442420   1.416   7.567   5.635 -0.1636 -0.1129  0.2538
   79MOL   C14542421   1.388   7.674   5.863  0.7653  0.6527 -0.1266
   79MOL   C14642422   1.244   7.616   5.850 -0.6239  0.6619 -0.0728
   79MOL   C14742423   1.393   0.020   5.875  0.8904 -0.4597 -0.4214
   79MOL   H14842424   1.938   0.134   5.848  2.0881  1.0828  2.0210
   79MOL   H14942425   1.864   0.290   5.812  1.9268  2.5510  1.6906
   79MOL   H15042426   2.039   0.276   5.808 -0.5711 -1.0233  1.8437
   79MOL   H15142427   2.016   0.119   5.604  0.5376  0.1436 -0.7939
   79MOL   H15242428   1.917   0.260   5.575  0.5808  0.2377  1.3378
   79MOL   H15342429   1.728   0.112   5.721 -0.7268 -0.5802 -0.2539
   79MOL   H15442430   1.743   0.123   5.548 -0.5174  2.0469  0.7773
   79MOL   H15542431   1.874   7.722   5.562 -1.7855  0.0961 -1.5881
   79MOL   H15642432   1.852   7.713   5.737  2.2298  1.5637 -0.3733
   79MOL   H15742433   1.685   7.561   5.602 -1.6708 -1.0127  2.4079
   79MOL   H15842434   1.626   7.710   5.531 -1.9959 -3.9612 -0.9078
   79MOL   H15942435   1.239   7.510   5.827  1.1245  0.5969 -0.1670
   79MOL   H16042436   1.199   7.652   5.758  0.0878  2.5726  0.3021
   79MOL   H16142437   1.175   7.633   5.933 -2.1510  0.1577 -1.2157
   79MOL   H16242438   1.374   0.055   5.977 -1.1587  1.2163 -1.3371
   79MOL   H16342439   1.501   0.033   5.881  0.6834  1.4165 -0.5862
   79MOL   C16442440   0.619   0.250   6.017  0.6661  0.0226  0.4930
   79MOL   C16542441   0.617   0.185   5.874 -0.5346  0.0262 -0.2464
   79MOL   C16642442   0.727   0.086   5.844  0.1063  0.2874 -0.3355
   79MOL   C16742443   0.878   0.140   5.844 -0.2480 -0.5006  0.2365
   79MOL   C16842444   0.973   0.021   5.854  0.0218 -0.3006  0.1692
   79MOL   O16942445   1.108   0.062   5.869  0.6715 -0.8621  0.5737
   79MOL   C17042446   1.180   0.095   5.754  0.7384  0.2410 -0.2343
   79MOL   O17142447   1.136   0.081   5.642 -0.2812  0.1120 -0.3187
   79MOL   C17242448   1.331   0.134   5.782 -0.5122  0.6795  1.6860
   79MOL   C17342449   1.402   0.128   5.648  0.8832  0.0148  0.1517
   79MOL   C17442450   1.359   0.272   5.851  0.1868 -0.5738 -0.2825
   79MOL   H17542451   0.539   0.324   6.023 -0.1797 -0.8535  0.1708
   79MOL   H17642452   0.718   0.286   6.045  0.6863  0.9760 -0.7748
   79MOL   H17742453   0.596   0.170   6.088  1.0011 -0.7044 -0.2127
   79MOL   H17842454   0.626   0.263   5.798 -1.3702  1.6039  1.2387
   79MOL   H17942455   0.522   0.140   5.847  0.0081 -1.1548 -0.2175
   79MOL   H18042456   0.722   0.013   5.925  0.4741 -0.5668 -1.0780
   79MOL   H18142457   0.701   0.060   5.742 -1.5799  1.3391 -0.1915
   79MOL   H18242458   0.912   0.200   5.928 -0.7863  1.0442 -0.6278
   79MOL   H18342459   0.906   0.193   5.752  1.7926  1.0487  1.7028
   79MOL   H18442460   0.970   7.764   5.771  1.9259 -1.6303  1.1957
   79MOL   H18542461   0.949   7.789   5.949 -1.6602  2.2621  1.0424
   79MOL   H18642462   1.391   0.035   5.593  1.1964  0.6919 -1.0864
   79MOL   H18742463   1.507   0.155   5.660  0.7607  0.1251  0.9991
   79MOL   H18842464   1.345   0.185   5.575  0.6490  1.0371  1.1190
   79MOL   H18942465   1.276   0.275   5.921  1.0244  0.1340  0.6818
   79MOL   H19042466   1.452   0.273   5.906  0.3580 -0.3465 -0.5767
   79MOL   C19142467   0.831   0.603   6.096 -0.1881  0.1640 -0.2670
   79MOL   C19242468   0.846   0.688   5.969 -0.1804 -0.5212  0.4970
   79MOL   C19342469   0.951   0.624   5.869  0.1909  0.6806  0.2030
   79MOL   C19442470   0.894   0.495   5.804  0.2649 -0.1453 -0.4102
   79MOL   C19542471   1.003   0.451   5.710 -0.3334  0.0017  0.0460
   79MOL   O19642472   1.136   0.421   5.774  0.2093  0.6277  0.0574
   79MOL   C19742473   1.245   0.438   5.694  0.6765  0.9117  0.7159
   79MOL   O19842474   1.248   0.460   5.571 -1.0615  0.9253 -0.3836
   79MOL   C19942475   1.375   0.408   5.776 -0.1083 -0.0982 -0.2200
   79MOL   C20042476   1.505   0.399   5.684 -0.9036 -0.0534  0.0638
   79MOL   C20142477   1.381   0.510   5.904  0.1101  0.7817 -0.2128
   79MOL   H20242478   0.780   0.653   6.178 -2.0953 -0.4025 -1.0750
   79MOL   H20342479   0.776   0.509   6.081 -0.3526  0.3396 -0.7628
   79MOL   H20442480   0.928   0.583   6.140  0.1563  1.1038 -0.6053
   79MOL   H20542481   0.873   0.788   6.004  1.2662 -1.0251  0.8413
   79MOL   H20642482   0.750   0.707   5.919  0.1789 -2.5405 -0.9999
   79MOL   H20742483   1.052   0.606   5.907 -1.3998 -5.1020  2.1500
   79MOL   H20842484   0.971   0.701   5.794 -0.3938  1.1495  0.5193
   79MOL   H20942485   0.872   0.417   5.877 -1.8206 -1.3370 -2.2462
   79MOL   H21042486   0.800   0.519   5.754  1.1674  1.9483 -1.1798
   79MOL   H21142487   0.988   0.358   5.655 -1.2463  1.1653 -1.7395
   79MOL   H21242488   1.022   0.534   5.641  0.2884  0.0835  0.3160
   79MOL   H21342489   1.486   0.350   5.589  0.7783  2.2483 -1.5204
   79MOL   H21442490   1.577   0.346   5.747  0.6334 -0.9627 -2.4057
   79MOL   H21542491   1.538   0.502   5.666  0.8570 -1.0959 -2.9277
   79MOL   H21642492   1.420   0.461   5.992  0.5713  0.8579 -0.3739
   79MOL   H21742493   1.276   0.529   5.927 -0.2927 -1.3731 -0.1818
   79MOL   C21842494   0.842   1.002   5.620 -0.1593  0.0249  0.0038
   79MOL   C21942495   0.931   0.913   5.532  0.2936 -1.3516 -1.1449
   79MOL   C22042496   1.067   0.886   5.602  0.2364 -0.3503  0.7983
   79MOL   C22142497   1.172   0.806   5.524  0.2744 -0.0243 -0.4374
   79MOL   C22242498   1.311   0.805   5.589  0.2164 -0.0166  0.3074
   79MOL   O22342499   1.323   0.733   5.714 -0.4303  0.4573 -0.2894
   79MOL   C22442500   1.443   0.721   5.764  0.3462 -0.5492  0.4969
   79MOL   O22542501   1.539   0.769   5.713  0.5359  0.5401 -0.4461
   79MOL   C22642502   1.450   0.650   5.905  0.2967 -0.4911  0.3770
   79MOL   C22742503   1.603   0.641   5.945  0.6478 -0.5038  0.1332
   79MOL   C22842504   1.371   0.753   6.005  0.2304 -0.1067 -1.0416
   79MOL   H22942505   0.885   1.093   5.662 -2.5099  0.7056  1.0388
   79MOL   H23042506   0.746   1.023   5.573 -0.4366  2.2294  1.4726
   79MOL   H23142507   0.825   0.946   5.712  0.9544 -1.7805 -0.8493
   79MOL   H23242508   0.950   0.955   5.433  0.5234  2.6786  0.5119
   79MOL   H23342509   0.886   0.815   5.517 -0.5646 -1.0581 -0.5334
   79MOL   H23442510   1.067   0.845   5.703  0.8079 -0.4395  0.7624
   79MOL   H23542511   1.114   0.982   5.622  2.5411 -1.3632  0.3892
   79MOL   H23642512   1.147   0.707   5.486 -0.8870  0.3108 -0.5730
   79MOL   H23742513   1.194   0.863   5.434 -1.0989 -1.4916 -1.7023
   79MOL   H23842514   1.332   0.911   5.601 -0.6253  0.1220  0.6104
   79MOL   H23942515   1.388   0.759   5.528  0.3056 -0.2370  0.5821
   79MOL   H24042516   1.623   0.592   6.040 -0.1522  0.0732  0.6068
   79MOL   H24142517   1.637   0.742   5.965 -4.8385  1.4014  0.8998
   79MOL   H24242518   1.664   0.607   5.862  1.3389 -2.5058  1.4401
   79MOL   H24342519   1.269   0.761   5.971  1.1244  2.7023 -3.1655
   79MOL   H24442520   1.402   0.852   5.971 -1.0945  0.2607 -1.1778
   79MOL   C24542521   2.103   1.010   6.276 -0.3816 -0.3100 -0.1392
   79MOL   C24642522   2.052   0.901   6.179 -0.0013  0.7530 -0.1241
   79MOL   C24742523   1.950   0.809   6.252 -0.5703 -0.9091  0.0111
   79MOL   C24842524   1.801   0.852   6.230 -0.4987  0.1333  0.3221
   79MOL   C24942525   1.707   0.749   6.292 -0.3124  0.3918 -0.1679
   79MOL   O25042526   1.575   0.790   6.248 -1.3229  0.3573 -0.8341
   79MOL   C25142527   1.479   0.697   6.244 -0.1126  0.0722 -1.1627
   79MOL   O25242528   1.488   0.584   6.297 -0.4923  0.2294  0.4785
   79MOL   C25342529   1.353   0.730   6.162  0.3190  0.6757 -0.3993
   79MOL   C25442530   1.242   0.616   6.183  0.1659  0.2422  0.1163
   79MOL   C25542531   1.300   0.874   6.211  1.3008  0.3767  0.1262
   79MOL   H25642532   2.179   0.978   6.347 -1.0300  1.4206  1.3626
   79MOL   H25742533   2.149   1.091   6.219  1.0792 -1.7370 -1.0143
   79MOL   H25842534   2.017   1.051   6.329  0.0101 -1.9473  1.8434
   79MOL   H25942535   2.014   0.945   6.088  3.6628 -0.4672 -2.3579
   79MOL   H26042536   2.143   0.851   6.144  1.1426  0.9192  2.4403
   79MOL   H26142537   1.981   0.807   6.357 -3.9871 -1.9009  1.0752
   79MOL   H26242538   1.958   0.709   6.211 -1.6926 -0.3898 -1.5035
   79MOL   H26342539   1.783   0.955   6.260  0.0453 -0.6991  3.6550
   79MOL   H26442540   1.781   0.856   6.123 -0.1734 -0.6754  0.2292
   79MOL   H26542541   1.724   0.645   6.266  0.2783  1.0044 -2.3342
   79MOL   H26642542   1.708   0.757   6.401  0.1583  0.3848 -0.1685
   79MOL   H26742543   1.147   0.656   6.148 -0.5717  0.3614  2.1798
   79MOL   H26842544   1.264   0.521   6.133 -0.5828 -0.4749  1.1290
   79MOL   H26942545   1.227   0.583   6.286  0.3661 -0.5349 -0.0954
   79MOL   H27042546   1.382   0.946   6.207  1.1330  0.5094 -1.0423
   79MOL   H27142547   1.236   0.922   6.137 -1.1480 -1.6298  0.8923
   79MOL   C27242548   0.842   0.581   6.882  0.4490 -0.1947 -0.8140
   79MOL   C27342549   0.824   0.596   6.729 -0.1357  0.0192 -0.1811
   79MOL   C27442550   0.851   0.732   6.668  0.5265  0.7111  0.2712
   79MOL   C27542551   0.809   0.735   6.520 -0.0719  0.6707  0.0667
   79MOL   C27642552   0.855   0.863   6.459  0.4058 -0.1196 -0.2526
   79MOL   O27742553   0.998   0.856   6.455  0.2095 -0.2965 -0.2092
   79MOL   C27842554   1.072   0.857   6.335  0.3805  0.5774 -0.5556
   79MOL   O27942555   1.020   0.854   6.219  0.3075  0.3985 -0.0185
   79MOL   C28042556   1.224   0.895   6.349  0.3359 -0.4366 -0.2635
   79MOL   C28142557   1.281   0.812   6.467  0.1474  0.0190 -0.5784
   79MOL   C28242558   1.207   1.045   6.398 -0.1568 -0.8940  0.6258
   79MOL   H28342559   0.818   0.479   6.912  1.4865  0.1886  1.3766
   79MOL   H28442560   0.943   0.601   6.916  0.8722 -3.7937  0.2216
   79MOL   H28542561   0.776   0.651   6.934  0.4995 -0.0088 -0.9945
   79MOL   H28642562   0.870   0.516   6.672  1.0147  0.4763  0.0893
   79MOL   H28742563   0.716   0.587   6.722  0.1120 -3.1191 -0.3161
   79MOL   H28842564   0.813   0.813   6.730 -0.0590  1.3369 -0.9039
   79MOL   H28942565   0.960   0.734   6.669  0.5338  0.4721  0.0770
   79MOL   H29042566   0.868   0.657   6.472 -1.6782 -2.1689  2.5409
   79MOL   H29142567   0.706   0.715   6.492  0.5847  0.8177 -2.6012
   79MOL   H29242568   0.837   0.943   6.530 -1.6935 -3.3688  3.0597
   79MOL   H29342569   0.799   0.887   6.369  2.0540 -0.4303 -1.3910
   79MOL   H29442570   1.226   0.824   6.561 -0.2394 -0.7201 -0.7124
   79MOL   H29542571   1.279   0.704   6.455 -1.4071  0.2672 -2.9731
   79MOL   H29642572   1.387   0.836   6.475 -0.3164  1.8904  0.3465
   79MOL   H29742573   1.122   1.097   6.354  1.7479  2.1611  0.4033
   79MOL   H29842574   1.188   1.034   6.505  1.3829 -1.0069  0.9064
   79MOL   C29942575   0.802   1.204   6.828 -0.2722  0.6502  0.8353
   79MOL   C30042576   0.912   1.315   6.822  0.0857  0.0495  0.1934
   79MOL   C30142577   0.945   1.339   6.675 -0.2524 -0.2172  0.1802
   79MOL   C30242578   1.080   1.415   6.656 -0.2239 -0.4630 -0.1256
   79MOL   C30342579   1.126   1.435   6.512 -0.2374 -0.1337 -0.5922
   79MOL   O30442580   1.169   1.312   6.450 -0.1401  0.5420 -0.2366
   79MOL   C30542581   1.289   1.266   6.477 -0.9378 -0.0070  0.7322
   79MOL   O30642582   1.368   1.310   6.563  0.3484 -0.1034 -0.0953
   79MOL   C30742583   1.331   1.154   6.386 -0.4407 -0.2359  0.1868
   79MOL   C30842584   1.465   1.100   6.447  0.6485  0.1199  0.4989
   79MOL   C30942585   1.355   1.204   6.232  0.1804  0.2454 -0.6839
   79MOL   H31042586   0.844   1.110   6.790  1.0412  0.3167  3.0640
   79MOL   H31142587   0.729   1.233   6.752  1.0542  1.6414 -0.0791
   79MOL   H31242588   0.746   1.190   6.921 -1.4204  2.4266  0.4451
   79MOL   H31342589   0.997   1.290   6.885  0.9193 -1.0060 -1.3225
   79MOL   H31442590   0.875   1.412   6.855  2.9767  2.3225 -2.8905
   79MOL   H31542591   0.866   1.401   6.633  0.5199  0.7046  0.0741
   79MOL   H31642592   0.958   1.240   6.630  0.5894  0.1578 -0.4104
   79MOL   H31742593   1.159   1.372   6.717  1.3136  2.3948  0.0057
   79MOL   H31842594   1.057   1.511   6.703  0.0333 -1.0016  1.0948
   79MOL   H31942595   1.043   1.480   6.458 -0.9367 -0.9337 -0.1993
   79MOL   H32042596   1.201   1.514   6.508 -0.5676  0.1107 -2.2557
   79MOL   H32142597   1.541   1.176   6.470 -1.6509  3.3189 -2.0218
   79MOL   H32242598   1.442   1.044   6.537  0.8709 -1.1924 -0.2602
   79MOL   H32342599   1.512   1.030   6.378 -0.7430  0.6429 -0.9931
   79MOL   H32442600   1.273   1.275   6.216 -0.7479 -0.4208  0.9192
   79MOL   H32542601   1.326   1.129   6.160  0.5828 -0.2818 -0.2986
   79MOL   C32642602   1.320   2.029   6.170  0.3359  0.5046 -0.0530
   79MOL   C32742603   1.428   1.918   6.183 -0.0667 -0.4472  0.0675
   79MOL   C32842604   1.381   1.790   6.241 -0.4123 -0.0453  0.3158
   79MOL   C32942605   1.492   1.712   6.309  0.2681 -0.3143  0.7366
   79MOL   C33042606   1.450   1.582   6.374 -0.5070  0.3281  0.2653
   79MOL   O33142607   1.437   1.475   6.282 -0.4337  0.3458 -0.3229
   79MOL   C33242608   1.536   1.382   6.272 -0.5435 -0.1580  0.4456
   79MOL   O33342609   1.650   1.386   6.324 -0.2619  0.0843  0.6788
   79MOL   C33442610   1.490   1.271   6.174  0.2898 -0.1561  0.2080
   79MOL   C33542611   1.606   1.166   6.153 -0.2165 -1.0405  0.1521
   79MOL   C33642612   1.460   1.336   6.031  0.4519  0.1224 -0.6382
   79MOL   H33742613   1.374   2.115   6.131 -0.4822  1.1333  0.1903
   79MOL   H33842614   1.273   2.052   6.265  0.8749  0.9327  0.1095
   79MOL   H33942615   1.244   1.996   6.099  1.4298  0.4448 -1.2034
   79MOL   H34042616   1.511   1.948   6.248  0.9565  2.1813 -2.3237
   79MOL   H34142617   1.478   1.896   6.089  2.2381  3.8246  0.1507
   79MOL   H34242618   1.337   1.732   6.160  1.1094 -0.1047 -0.4817
   79MOL   H34342619   1.307   1.801   6.321  0.6925  1.0426  1.2001
   79MOL   H34442620   1.529   1.765   6.396 -0.1740  0.2841  0.5648
   79MOL   H34542621   1.574   1.694   6.240  0.5318 -2.2944  1.5553
   79MOL   H34642622   1.369   1.590   6.447 -0.0458 -1.3487  0.9728
   79MOL   H34742623   1.528   1.547   6.441 -0.4245  2.7745  1.5054
   79MOL   H34842624   1.582   1.064   6.123 -1.7537 -0.1785 -1.6362
   79MOL   H34942625   1.639   1.145   6.255  0.6647 -0.9680 -0.1124
   79MOL   H35042626   1.682   1.198   6.081 -0.2164  2.2075  1.5199
   79MOL   H35142627   1.544   1.402   6.010  0.5458  0.1368 -0.2212
   79MOL   H35242628   1.374   1.401   6.047  0.7908  0.5688 -0.6204
   79MOL   C35342629   0.622   1.136   6.227  0.3768  0.2830  0.4493
   79MOL   C35442630   0.748   1.214   6.204 -1.1320 -0.9133 -0.2240
   79MOL   C35542631   0.838   1.162   6.096  0.4795 -0.5677 -0.0653
   79MOL   C35642632   0.965   1.255   6.069 -0.3361  0.4127 -0.5570
   79MOL   C35742633   1.062   1.180   5.973 -0.0075 -0.9563  0.2057
   79MOL   O35842634   1.171   1.255   5.936  0.1809 -0.1520  0.0144
   79MOL   C35942635   1.282   1.184   5.912  0.9017  0.4423  0.5915
   79MOL   O36042636   1.276   1.061   5.889  0.8573  0.0632 -0.0682
   79MOL   C36142637   1.412   1.266   5.900  0.4280 -0.9320 -0.7191
   79MOL   C36242638   1.524   1.174   5.841 -0.0735 -0.0876  0.4875
   79MOL   C36342639   1.378   1.379   5.796  0.9271 -0.0968  0.1634
   79MOL   H36442640   0.650   1.031   6.218  1.5694  0.6411 -0.0032
   79MOL   H36542641   0.560   1.149   6.138  2.7731  0.8199 -1.1689
   79MOL   H36642642   0.577   1.142   6.326  0.0901  1.9070  0.2317
   79MOL   H36742643   0.712   1.315   6.184  1.3895  0.0878  0.1728
   79MOL   H36842644   0.803   1.227   6.298 -0.6243  1.5777 -0.8267
   79MOL   H36942645   0.785   1.135   6.004  1.1951 -3.2990  0.2772
   79MOL   H37042646   0.861   1.063   6.135 -0.1752 -0.4484  0.6412
   79MOL   H37142647   1.015   1.273   6.164  0.8439  0.0797 -1.0944
   79MOL   H37242648   0.937   1.345   6.015 -0.2335 -0.3871 -1.9890
   79MOL   H37342649   1.079   1.082   6.017  0.7943  0.0548  2.2042
   79MOL   H37442650   1.016   1.155   5.877 -1.6013 -0.4322  0.8054
   79MOL   H37542651   1.519   1.139   5.737 -0.8525  2.1491 -0.2616
   79MOL   H37642652   1.619   1.228   5.843 -0.3941  0.9226 -4.1628
   79MOL   H37742653   1.534   1.085   5.903 -0.8114 -0.4507  0.0901
   79MOL   H37842654   1.300   1.445   5.834  1.6766  0.8115  0.1259
   79MOL   H37942655   1.451   1.459   5.809  0.8398  0.0233 -0.0678
   79MOL   C38042656   1.527   1.618   5.073 -0.3048 -0.7134 -0.0133
   79MOL   C38142657   1.556   1.475   5.040 -0.7017  0.6147 -0.3585
   79MOL   C38242658   1.523   1.375   5.147 -0.1499 -0.6327  0.0615
   79MOL   C38342659   1.621   1.401   5.262  0.1502  0.0707  0.1074
   79MOL   C38442660   1.600   1.296   5.373  0.5121  0.0923  1.1005
   79MOL   O38542661   1.491   1.327   5.450  0.0522  0.6977 -0.4091
   79MOL   C38642662   1.501   1.347   5.582 -0.1255 -0.9700  0.3018
   79MOL   O38742663   1.604   1.351   5.645  0.3672  0.6390  0.6581
   79MOL   C38842664   1.362   1.371   5.643 -0.2342 -0.3686 -0.2711
   79MOL   C38942665   1.258   1.265   5.596  0.1143 -0.1109  0.1473
   79MOL   C39042666   1.301   1.508   5.586  0.4168 -0.2550  0.4382
   79MOL   H39142667   1.579   1.687   5.007  0.6150  0.8159  2.2780
   79MOL   H39242668   1.421   1.643   5.065 -0.8688 -2.5572  1.2722
   79MOL   H39342669   1.556   1.652   5.172 -2.7832  0.8074  0.2247
   79MOL   H39442670   1.658   1.458   5.004 -0.1342  0.0480  1.4093
   79MOL   H39542671   1.487   1.443   4.963  1.4089  0.0728 -2.0638
   79MOL   H39642672   1.419   1.379   5.180 -1.3957 -2.7993 -3.3021
   79MOL   H39742673   1.536   1.270   5.121 -0.1830 -0.9480  1.2785
   79MOL   H39842674   1.717   1.383   5.213 -0.2313  0.7079 -0.8842
   79MOL   H39942675   1.627   1.502   5.304  3.2128 -0.1731  0.3627
   79MOL   H40042676   1.692   1.290   5.431  1.4199 -0.6427 -0.4047
   79MOL   H40142677   1.581   1.199   5.326  0.8019  0.4712  0.1840
   79MOL   H40242678   1.158   1.277   5.637  0.6089  2.4990  0.7457
   79MOL   H40342679   1.299   1.167   5.618 -1.2767 -0.6631  0.3210
   79MOL   H40442680   1.250   1.262   5.488 -0.0452  0.0844  0.1535
   79MOL   H40542681   1.193   1.496   5.600  0.5451 -2.0745 -0.0656
   79MOL   H40642682   1.299   1.491   5.478 -0.5250  0.2268  0.3666
   79MOL   C40742683   0.822   1.663   6.306 -1.0293  0.3984  0.1388
   79MOL   C40842684   0.925   1.600   6.203  0.8500 -0.0825  0.1746
   79MOL   C40942685   0.943   1.688   6.073  0.6898  0.0701 -0.2190
   79MOL   C41042686   1.070   1.653   5.994 -0.3141  0.6262 -0.0717
   79MOL   C41142687   1.125   1.758   5.895 -0.0243  0.4902  0.2783
   79MOL   O41242688   1.182   1.688   5.779  0.0660  0.1920 -0.5964
   79MOL   C41342689   1.313   1.701   5.763 -0.2880 -0.3345  0.3179
   79MOL   O41442690   1.391   1.752   5.844  0.4785 -0.4787 -0.2362
   79MOL   C41542691   1.353   1.656   5.617 -0.4264  0.0598  0.0399
   79MOL   C41642692   1.510   1.660   5.606  0.1255  0.4327 -1.1622
   79MOL   C41742693   1.287   1.745   5.507 -0.2154 -0.1745 -0.0360
   79MOL   H41842694   0.722   1.678   6.264 -1.2424 -1.8139 -0.2065
   79MOL   H41942695   0.809   1.596   6.391 -0.2948 -1.6478 -1.3065
   79MOL   H42042696   0.860   1.756   6.348  0.1799  0.0210 -0.0944
   79MOL   H42142697   0.882   1.505   6.170  1.0324 -0.1044 -0.0010
   79MOL   H42242698   1.026   1.589   6.243  0.3887 -1.6413  0.9701
   79MOL   H42342699   0.853   1.694   6.012  0.1232 -0.1885  0.5666
   79MOL   H42442700   0.944   1.786   6.120  0.9106 -1.2263  2.6342
   79MOL   H42542701   1.050   1.555   5.952  1.3182 -0.0583  0.7436
   79MOL   H42642702   1.154   1.635   6.061  1.1472  1.3192 -1.6900
   79MOL   H42742703   1.044   1.816   5.852  0.0390 -1.3190 -2.3822
   79MOL   H42842704   1.198   1.813   5.954  1.4118 -2.0848  0.9758
   79MOL   H42942705   1.538   1.631   5.504 -1.6430  2.3641 -2.2298
   79MOL   H43042706   1.554   1.594   5.680  0.6861  0.7801 -1.1806
   79MOL   H43142707   1.565   1.750   5.632  2.6312 -1.8771  1.9408
   79MOL   H43242708   1.181   1.721   5.512  0.1752 -1.9342  0.3945
   79MOL   H43342709   1.328   1.711   5.412 -0.2929  0.0776 -0.1567
   79MOL   C43442710   1.548   2.627   5.467 -0.3224 -0.1510  0.9033
   79MOL   C43542711   1.606   2.512   5.380  0.0167  0.0194 -0.0292
   79MOL   C43642712   1.553   2.380   5.423  0.6021 -0.1898  0.0404
   79MOL   C43742713   1.579   2.265   5.315  0.2535 -0.0123  0.1668
   79MOL   C43842714   1.593   2.126   5.371 -0.0231  0.1512 -0.2284
   79MOL   O43942715   1.471   2.070   5.419 -0.2041  0.0476  0.4600
   79MOL   C44042716   1.451   1.939   5.425 -0.4870  0.0885 -0.1135
   79MOL   O44142717   1.534   1.853   5.390  0.2355  0.7944  0.5309
   79MOL   C44242718   1.310   1.905   5.481 -0.6699  0.4830 -0.4847
   79MOL   C44342719   1.291   1.987   5.612 -0.0023  0.0377 -0.1219
   79MOL   C44442720   1.203   1.967   5.378 -0.0538 -0.1156 -0.4176
   79MOL   H44542721   1.595   2.718   5.432  0.4730 -0.6329  0.7004
   79MOL   H44642722   1.440   2.625   5.451 -0.1386 -0.3194 -0.3713
   79MOL   H44742723   1.560   2.603   5.573  0.9426 -0.9429  0.5988
   79MOL   H44842724   1.583   2.519   5.274  4.1491  1.5399 -0.9095
   79MOL   H44942725   1.715   2.511   5.387 -0.0035  2.1239  0.7712
   79MOL   H45042726   1.582   2.357   5.526  0.8205 -0.6403 -0.1229
   79MOL   H45142727   1.445   2.392   5.432  0.2483 -0.9255 -2.6998
   79MOL   H45242728   1.675   2.292   5.272 -0.6836  1.9292 -0.7671
   79MOL   H45342729   1.508   2.268   5.232 -0.6285  1.2777  0.9453
   79MOL   H45442730   1.675   2.133   5.443 -1.0995  2.9144  0.7850
   79MOL   H45542731   1.630   2.067   5.287  1.4901  1.4787 -0.5216
   79MOL   H45642732   1.263   2.090   5.590 -2.4320 -0.5893 -0.1672
   79MOL   H45742733   1.209   1.938   5.666  0.9156 -0.7564  0.5697
   79MOL   H45842734   1.380   1.981   5.675  0.0837  0.4538 -0.2007
   79MOL   H45942735   1.222   2.073   5.362 -0.8465  0.3700  1.6887
   79MOL   H46042736   1.111   1.970   5.437  0.7985  0.8877  0.8936
   79MOL   C46142737   0.714   1.505   5.741 -0.2109  0.0386  0.2304
   79MOL   C46242738   0.836   1.445   5.692 -0.4593  0.1084 -0.3782
   79MOL   C46342739   0.868   1.472   5.545 -0.0837  0.7531  0.3827
   79MOL   C46442740   0.917   1.616   5.516  0.9009 -0.1508  0.2294
   79MOL   C46542741   0.911   1.652   5.364  0.1760  0.7405 -0.8618
   79MOL   O46642742   0.981   1.773   5.332 -0.0683 -0.1641 -0.3260
   79MOL   C46742743   1.091   1.768   5.250 -0.0977 -0.0129  0.2932
   79MOL   O46842744   1.135   1.668   5.194 -0.7027  0.0706  0.5534
   79MOL   C46942745   1.161   1.907   5.241  0.1188  0.0794 -0.1443
   79MOL   C47042746   1.281   1.897   5.141 -0.8312  0.0573  0.3230
   79MOL   C47142747   1.058   2.015   5.178  0.0459 -0.0439 -1.3668
   79MOL   H47242748   0.620   1.482   5.692 -0.3247  0.5989  0.1821
   79MOL   H47342749   0.721   1.614   5.741  3.2562 -0.1083 -0.8589
   79MOL   H47442750   0.702   1.476   5.846 -0.8736  2.7742  0.9628
   79MOL   H47542751   0.830   1.336   5.697  2.3904 -0.1589 -1.6991
   79MOL   H47642752   0.916   1.488   5.752 -2.2717  0.6177  1.7284
   79MOL   H47742753   0.787   1.442   5.478  0.9904  2.4777 -1.7637
   79MOL   H47842754   0.946   1.404   5.512  0.0784 -0.0250  2.3188
   79MOL   H47942755   1.009   1.634   5.572  1.2614 -2.5420  0.4294
   79MOL   H48042756   0.846   1.684   5.562  1.2117 -0.8337  1.7461
   79MOL   H48142757   0.954   1.566   5.313 -0.8150 -0.8418  0.9329
   79MOL   H48242758   0.805   1.656   5.341 -0.4639  0.8327  1.9552
   79MOL   H48342759   1.340   1.988   5.147 -0.4870 -0.2420  1.6766
   79MOL   H48442760   1.266   1.863   5.038 -0.4845 -0.5699  0.4775
   79MOL   H48542761   1.351   1.824   5.183  0.2844  0.9680  0.0754
   79MOL   H48642762   1.120   2.097   5.142  0.0113  1.0312  0.9505
   79MOL   H48742763   1.008   2.066   5.260  0.7460 -1.3319 -0.1268
   79MOL   C48842764   0.815   1.348   4.703  0.5038 -0.1145  0.3793
   79MOL   C48942765   0.961   1.395   4.728 -0.6067  0.3303 -0.0521
   79MOL   C49042766   0.958   1.544   4.768 -0.5702 -0.0451 -0.1066
   79MOL   C49142767   1.094   1.602   4.806 -0.0076  0.5818 -0.3058
   79MOL   C49242768   1.102   1.754   4.821 -0.7566  0.7333 -0.0236
   79MOL   O49342769   1.030   1.805   4.929  0.3767 -0.5672  0.7300
   79MOL   C49442770   1.038   1.949   4.943  0.3640 -0.5671 -0.7263
   79MOL   O49542771   1.093   2.030   4.867  0.3012  0.1887  0.3430
   79MOL   C49642772   0.956   1.995   5.070  1.0052 -0.8968 -0.2225
   79MOL   C49742773   0.899   2.141   5.032  0.3368  0.0998 -0.8407
   79MOL   C49842774   0.829   1.906   5.113  0.0701  0.4587  0.3310
   79MOL   H49942775   0.814   1.239   4.691  2.1760 -0.0770 -0.2270
   79MOL   H50042776   0.741   1.380   4.776  0.1822  0.2999 -0.1261
   79MOL   H50142777   0.776   1.379   4.605  1.1070 -2.1819 -0.5506
   79MOL   H50242778   1.027   1.384   4.642  0.5663 -2.2678  1.0957
   79MOL   H50342779   1.013   1.343   4.810  0.9009  2.2414  0.2380
   79MOL   H50442780   0.943   1.601   4.676 -0.7993  0.6666  0.3620
   79MOL   H50542781   0.885   1.579   4.841  0.7003  0.0244  1.1476
   79MOL   H50642782   1.169   1.570   4.733 -0.1304  0.2122 -0.2699
   79MOL   H50742783   1.140   1.561   4.896  0.7368 -0.0376 -0.9598
   79MOL   H50842784   1.202   1.796   4.833 -0.6507  0.0356  1.7185
   79MOL   H50942785   1.067   1.814   4.738 -1.3868  1.1110  0.5104
   79MOL   H51042786   0.853   2.189   5.119  2.2208  1.7988 -0.7351
   79MOL   H51142787   0.826   2.146   4.951  1.7412 -1.6775 -2.2278
   79MOL   H51242788   0.977   2.208   4.996  0.8845 -0.9050 -1.5137
   79MOL   H51342789   0.810   1.913   5.221  1.7422  0.8299  0.6147
   79MOL   H51442790   0.854   1.800   5.107 -0.0415  0.3138  2.0012
   79MOL   C51542791   0.519   1.835   5.592  0.2154 -0.2826  0.2913
   79MOL   C51642792   0.465   1.978   5.623  0.1029 -0.0395 -0.4786
   79MOL   C51742793   0.499   2.095   5.523  0.4467  0.2114 -0.0908
   79MOL   C51842794   0.424   2.083   5.389  0.1295  0.9429 -0.3759
   79MOL   C51942795   0.490   2.150   5.270  0.0588  0.1385  0.2065
   79MOL   O52042796   0.570   2.038   5.216  0.4946  0.2169  0.1119
   79MOL   C52142797   0.607   2.042   5.094  0.4621  1.0270  0.9033
   79MOL   O52242798   0.572   2.139   5.017 -0.1212  0.5456 -0.2900
   79MOL   C52342799   0.689   1.920   5.042 -0.1317 -0.0602  0.0349
   79MOL   C52442800   0.610   1.789   5.088  0.2675  0.1023  0.7957
   79MOL   C52542801   0.697   1.914   4.887 -0.0567 -0.0573 -0.1131
   79MOL   H52642802   0.622   1.841   5.557  0.0081  2.3371 -0.0046
   79MOL   H52742803   0.534   1.769   5.677 -0.9560 -1.9835 -0.7866
   79MOL   H52842804   0.458   1.791   5.513  0.7271  0.2317 -0.4039
   79MOL   H52942805   0.358   1.975   5.644  0.3650  0.6409  1.0754
   79MOL   H53042806   0.513   2.002   5.718 -0.2982 -0.1202 -0.2539
   79MOL   H53142807   0.497   2.194   5.570  2.2637 -0.5078  1.5497
   79MOL   H53242808   0.607   2.086   5.506  0.7640  0.0352  1.9525
   79MOL   H53342809   0.323   2.122   5.395  0.0515  0.8105 -0.8060
   79MOL   H53442810   0.405   1.978   5.365  2.2274  1.0828 -2.9067
   79MOL   H53542811   0.423   2.186   5.193  0.9315  0.8731 -0.2181
   79MOL   H53642812   0.549   2.237   5.298  1.0505  0.3266 -2.3887
   79MOL   H53742813   0.602   1.773   5.196 -0.9009 -0.7014  0.5921
   79MOL   H53842814   0.637   1.697   5.037  1.6204  1.1556 -0.4619
   79MOL   H53942815   0.506   1.806   5.061  0.0691 -0.8847  0.9381
   79MOL   H54042816   0.726   1.815   4.853 -1.2192 -0.6661  0.6264
   79MOL   H54142817   0.783   1.961   4.840  0.8184 -0.1973  1.3148
   79MOL   H54242818   0.603   1.943   4.839 -0.8830 -0.9408  0.9169
   80MOL     C142819   2.577   5.900   5.309  0.6155  0.3811 -0.5898
   80MOL     C242820   2.511   5.945   5.442  0.2803  0.2903  0.2499
   80MOL     C342821   2.362   5.905   5.443  0.2957  0.1332 -0.3025
   80MOL     C442822   2.308   5.947   5.583 -0.1390 -0.7803  0.6475
   80MOL     C542823   2.158   5.907   5.600  0.6380  0.0225  0.3239
   80MOL     O642824   2.102   5.999   5.689 -0.2034  0.3799 -0.5431
   80MOL     C742825   1.968   6.017   5.697  0.0483  0.3017 -0.1869
   80MOL     O842826   1.885   5.957   5.634  0.0026  0.1570  0.0998
   80MOL     C942827   1.928   6.139   5.784  0.3132 -0.2727  0.4709
   80MOL    C1042828   1.786   6.120   5.847 -0.2255 -1.1284 -0.1340
   80MOL    C1142829   1.927   6.268   5.698  0.0087  0.8983  0.2931
   80MOL    H1242830   2.685   5.908   5.319  0.5290  2.2409 -0.8531
   80MOL    H1342831   2.545   5.964   5.226  0.7079 -0.0427 -0.9527
   80MOL    H1442832   2.547   5.799   5.281 -0.5204  0.3503  0.6848
   80MOL    H1542833   2.554   5.890   5.526 -2.2838 -2.0691  0.0714
   80MOL    H1642834   2.532   6.050   5.465  1.6195 -0.8079  4.6023
   80MOL    H1742835   2.321   5.968   5.363  0.6561 -0.4040 -0.9144
   80MOL    H1842836   2.337   5.805   5.410 -3.1799  0.5024  1.0353
   80MOL    H1942837   2.319   6.055   5.595 -1.2621 -0.5084 -0.6200
   80MOL    H2042838   2.356   5.891   5.663  1.4972  1.3644  1.2057
   80MOL    H2142839   2.109   5.907   5.503  1.2345 -3.2428 -0.0330
   80MOL    H2242840   2.159   5.804   5.636 -2.6646 -0.5507 -0.9805
   80MOL    H2342841   1.774   6.027   5.901 -1.3148  0.6488  2.7758
   80MOL    H2442842   1.707   6.121   5.771  0.8059  0.8925 -1.2328
   80MOL    H2542843   1.746   6.189   5.921 -0.5229  0.7736 -2.0261
   80MOL    H2642844   1.886   6.340   5.768 -1.0378 -0.1957  0.8273
   80MOL    H2742845   1.844   6.251   5.630  0.0524  1.9627 -0.0373
   80MOL    H2842846   2.000   6.155   5.864 -0.3475  1.0243  0.8227
   80MOL    C2942847   2.616   6.528   5.166  0.4817  0.2110  0.0143
   80MOL    C3042848   2.632   6.378   5.193  0.0453  0.3811  0.8574
   80MOL    C3142849   2.497   6.300   5.199 -0.7695 -0.0815 -0.3041
   80MOL    C3242850   2.403   6.355   5.297 -0.3549 -0.0007 -0.2158
   80MOL    C3342851   2.274   6.280   5.345  0.2425  0.2234  0.2392
   80MOL    O3442852   2.204   6.335   5.451  0.9079 -0.2201  0.0224
   80MOL    C3542853   2.103   6.275   5.505  0.6764  0.6553  0.5091
   80MOL    O3642854   2.044   6.178   5.459  0.2797  0.3700 -0.1465
   80MOL    C3742855   2.054   6.338   5.640 -0.2568  0.4449 -0.4823
   80MOL    C3842856   2.166   6.335   5.744  0.0875 -1.0758 -0.4813
   80MOL    C3942857   2.025   6.491   5.619 -0.4398 -0.1321  0.2560
   80MOL    H4042858   2.715   6.571   5.150  0.5587 -1.3026 -4.1014
   80MOL    H4142859   2.573   6.552   5.068  3.1511 -0.0508 -1.2542
   80MOL    H4242860   2.560   6.567   5.251  1.7204  2.2767 -0.0682
   80MOL    H4342861   2.683   6.366   5.289  0.5364 -1.2478  0.4070
   80MOL    H4442862   2.691   6.329   5.117 -0.6519  1.2667 -0.2686
   80MOL    H4542863   2.514   6.194   5.215 -0.1256  0.3143  1.7772
   80MOL    H4642864   2.453   6.305   5.099  0.4760 -1.0008 -0.9013
   80MOL    H4742865   2.458   6.381   5.388 -0.4900  0.0225 -0.1395
   80MOL    H4842866   2.372   6.452   5.257 -0.2561 -1.2254 -3.4211
   80MOL    H4942867   2.297   6.174   5.361  3.4400  0.7502 -0.4787
   80MOL    H5042868   2.203   6.286   5.263 -1.3721 -2.0390  1.4190
   80MOL    H5142869   2.242   6.402   5.706  0.1776 -1.0045 -0.1767
   80MOL    H5242870   2.201   6.233   5.763  0.1062 -0.5696  2.5337
   80MOL    H5342871   2.133   6.377   5.839 -1.7094  0.7542 -1.8702
   80MOL    H5442872   2.119   6.535   5.586 -0.7787 -1.0158 -1.9561
   80MOL    H5542873   2.020   6.543   5.715  1.6087 -2.1923  1.5407
   80MOL    C5642874   1.406   6.670   6.193  0.6658  1.0084 -1.0250
   80MOL    C5742875   1.515   6.636   6.090  0.0716  0.5868  0.7165
   80MOL    C5842876   1.494   6.706   5.953  0.2265 -0.1133 -0.0412
   80MOL    C5942877   1.621   6.705   5.862  0.4741  0.2393  0.2518
   80MOL    C6042878   1.653   6.565   5.792 -0.5429  0.6315  0.6689
   80MOL    O6142879   1.770   6.577   5.714  0.1883 -0.4682 -0.0414
   80MOL    C6242880   1.773   6.536   5.586  0.7190  0.0363 -0.1099
   80MOL    O6342881   1.679   6.481   5.527 -0.2046 -0.0761 -0.1660
   80MOL    C6442882   1.913   6.554   5.523  0.5048 -0.4906  0.1584
   80MOL    C6542883   1.919   6.491   5.384  0.1857 -0.2675 -0.1619
   80MOL    C6642884   1.958   6.709   5.512  0.5626  0.1876  0.6517
   80MOL    H6742885   1.410   6.613   6.286 -1.1928  0.3698 -1.3177
   80MOL    H6842886   1.306   6.646   6.158 -1.2435  2.9919  2.7344
   80MOL    H6942887   1.414   6.774   6.224 -0.0484  0.9781 -0.7311
   80MOL    H7042888   1.617   6.667   6.115  0.3993  0.2983 -0.2346
   80MOL    H7142889   1.528   6.529   6.071  0.8497  0.5089  1.6140
   80MOL    H7242890   1.402   6.675   5.904  0.7479 -0.9128 -0.5253
   80MOL    H7342891   1.462   6.806   5.982 -0.2594 -1.1065  3.1273
   80MOL    H7442892   1.706   6.716   5.929  2.4552  0.2300 -2.2081
   80MOL    H7542893   1.625   6.790   5.795  0.6525 -0.4964 -0.6903
   80MOL    H7642894   1.667   6.496   5.875 -0.6394 -1.5027 -1.0486
   80MOL    H7742895   1.574   6.545   5.720  0.1878 -1.1501  0.3223
   80MOL    H7842896   2.002   6.516   5.317  0.6423 -0.1453  0.4499
   80MOL    H7942897   1.838   6.539   5.328  0.7904  2.4099  1.1820
   80MOL    H8042898   1.899   6.384   5.387  2.2395 -0.6715 -0.0750
   80MOL    H8142899   2.060   6.706   5.475  0.7621  0.6470  1.1534
   80MOL    H8242900   1.966   6.741   5.617  1.8374 -1.3919  1.0504
   80MOL    C8342901   2.287   6.622   4.805 -0.4980 -0.0313  0.6080
   80MOL    C8442902   2.274   6.600   4.955 -0.0047 -0.0512 -0.0685
   80MOL    C8542903   2.130   6.603   5.001  0.2956  0.2472  0.1437
   80MOL    C8642904   2.071   6.744   5.012 -0.2822  0.2137  0.5868
   80MOL    C8742905   1.934   6.760   5.082 -0.5378 -0.0309  0.1428
   80MOL    O8842906   1.943   6.775   5.219 -0.6890 -0.0494 -0.2106
   80MOL    C8942907   1.841   6.800   5.296 -0.4870  0.3818  0.8100
   80MOL    O9042908   1.727   6.806   5.253  0.1647 -0.4844  0.3767
   80MOL    C9142909   1.879   6.829   5.441 -0.8312 -0.4524  0.2117
   80MOL    C9242910   1.751   6.858   5.518  0.4044 -0.0885  0.0530
   80MOL    C9342911   1.983   6.950   5.459  0.0779 -0.0523  0.3198
   80MOL    H9442912   2.249   6.547   4.736 -1.4019  0.4017  0.6377
   80MOL    H9542913   2.264   6.721   4.767  1.6526 -0.1890 -1.2218
   80MOL    H9642914   2.392   6.610   4.778 -0.8677 -0.2582 -0.7660
   80MOL    H9742915   2.335   6.676   5.005 -0.0341  0.8450 -1.3653
   80MOL    H9842916   2.309   6.500   4.980 -0.8242 -0.2447  0.3314
   80MOL    H9942917   2.139   6.566   5.103 -0.6618 -0.6466 -0.0844
   80MOL   H10042918   2.063   6.533   4.952  1.3260  1.5731 -3.3090
   80MOL   H10142919   2.050   6.788   4.914  2.7334 -0.7645 -0.5640
   80MOL   H10242920   2.151   6.813   5.040 -0.1049 -0.4870  1.8315
   80MOL   H10342921   1.869   6.674   5.071  1.1228 -1.5513  1.9104
   80MOL   H10442922   1.876   6.833   5.025  0.5193 -0.3430 -1.3432
   80MOL   H10542923   1.766   6.842   5.624 -0.8727 -0.3186  0.2038
   80MOL   H10642924   1.670   6.789   5.494  1.6769 -2.0115  1.1586
   80MOL   H10742925   1.706   6.957   5.505 -1.7935 -1.2813 -1.7776
   80MOL   H10842926   2.050   6.931   5.543 -1.4179 -1.4159  1.2341
   80MOL   H10942927   2.042   6.951   5.367 -0.8444 -1.9248 -0.3137
   80MOL   C11042928   1.642   6.972   6.261  0.0740 -0.0372  0.2230
   80MOL   C11142929   1.762   6.992   6.166 -0.6471 -0.5097  0.5362
   80MOL   C11242930   1.735   7.078   6.041 -0.4028 -0.1432  0.3223
   80MOL   C11342931   1.843   7.061   5.937 -0.5245 -0.2622 -0.4731
   80MOL   C11442932   1.813   7.136   5.805  0.1728 -0.0075 -0.1782
   80MOL   O11542933   1.876   7.094   5.686 -0.2363 -0.2368  0.1305
   80MOL   C11642934   1.849   7.160   5.566  0.0405  0.2750 -0.2054
   80MOL   O11742935   1.773   7.249   5.546  0.0641 -0.1272 -0.0357
   80MOL   C11842936   1.942   7.110   5.451  0.8216 -0.0848 -0.8333
   80MOL   C11942937   1.887   7.138   5.310  0.6676 -0.2320 -0.6652
   80MOL   C12042938   2.087   7.174   5.477  0.2501  0.5816 -0.0595
   80MOL   H12142939   1.615   7.074   6.286  0.6029  0.8436 -2.5886
   80MOL   H12242940   1.548   6.937   6.219 -0.5640  0.9337  0.8429
   80MOL   H12342941   1.664   6.921   6.355 -0.2493  0.9646  0.8475
   80MOL   H12442942   1.840   7.044   6.221 -0.6231 -0.6952  0.6782
   80MOL   H12542943   1.789   6.889   6.142 -2.3358 -1.1980  1.5508
   80MOL   H12642944   1.645   7.034   5.999  1.3286 -3.2438 -0.3270
   80MOL   H12742945   1.731   7.184   6.065  0.2885 -0.5031  2.1582
   80MOL   H12842946   1.854   6.954   5.916  1.3922 -0.6901  2.5268
   80MOL   H12942947   1.942   7.092   5.969 -0.3115 -1.0241 -0.3887
   80MOL   H13042948   1.706   7.121   5.790 -0.1289  0.1028  1.7729
   80MOL   H13142949   1.826   7.244   5.803  0.5215 -0.0642 -1.6592
   80MOL   H13242950   1.842   7.237   5.296 -0.6978 -0.7050  0.3332
   80MOL   H13342951   1.971   7.111   5.246  3.5152  1.8241  2.0721
   80MOL   H13442952   1.809   7.066   5.284  3.0945 -1.6652 -4.3536
   80MOL   H13542953   2.118   7.165   5.581 -1.1042 -2.1124  0.1475
   80MOL   H13642954   2.152   7.108   5.420  0.1839  0.9904 -0.6164
   80MOL   C13742955   2.494   6.898   4.941 -0.1986 -0.5704  0.2564
   80MOL   C13842956   2.514   7.046   4.958 -0.0048 -0.0366  0.1603
   80MOL   C13942957   2.384   7.109   5.011  0.1362  0.2442  0.5496
   80MOL   C14042958   2.390   7.253   5.054 -0.0375  0.1382 -0.4164
   80MOL   C14142959   2.252   7.312   5.085  0.1957  0.6185 -0.1117
   80MOL   O14242960   2.210   7.268   5.216  0.2453  0.2144 -0.3120
   80MOL   C14342961   2.122   7.345   5.287 -0.7065  0.3809  0.1765
   80MOL   O14442962   2.055   7.440   5.241 -0.5150 -0.2703 -0.0717
   80MOL   C14542963   2.135   7.321   5.439 -0.2322 -0.4627  0.4093
   80MOL   C14642964   2.046   7.425   5.509  0.1337  0.4666  0.4351
   80MOL   C14742965   2.290   7.332   5.485  0.0826  0.6225  0.5154
   80MOL   H14842966   2.397   6.891   4.892  0.8195  0.3260 -1.9440
   80MOL   H14942967   2.510   6.851   5.038 -2.4676 -0.2279  0.8449
   80MOL   H15042968   2.563   6.854   4.870 -1.3063 -1.8521 -0.0571
   80MOL   H15142969   2.551   7.091   4.866  1.2734  1.5630  1.4323
   80MOL   H15242970   2.595   7.058   5.030 -0.6693  0.9684  0.7552
   80MOL   H15342971   2.307   7.106   4.934 -0.1240  0.5736  0.7982
   80MOL   H15442972   2.352   7.056   5.101  0.4451 -0.1270  0.4441
   80MOL   H15542973   2.447   7.271   5.145 -2.0672 -1.4820  1.2299
   80MOL   H15642974   2.445   7.307   4.977  2.2552 -1.0033  0.3713
   80MOL   H15742975   2.178   7.278   5.014 -0.2339  0.4897  0.3918
   80MOL   H15842976   2.258   7.421   5.079 -0.3043  0.5961 -1.0602
   80MOL   H15942977   1.941   7.425   5.481 -0.9071  2.1277  4.0475
   80MOL   H16042978   2.079   7.527   5.487 -0.9800  0.8163  0.3569
   80MOL   H16142979   2.043   7.400   5.615 -0.2172  1.1075  0.5800
   80MOL   H16242980   2.292   7.301   5.590 -2.2786 -0.9470  0.1592
   80MOL   H16342981   2.344   7.255   5.431 -1.1745 -0.0508  0.1953
   80MOL   C16442982   2.424   0.358   5.389 -0.5779  0.8172 -0.5269
   80MOL   C16542983   2.342   0.294   5.491  0.0906 -0.0933  0.1317
   80MOL   C16642984   2.392   0.158   5.514 -0.1227 -0.7946  0.3919
   80MOL   C16742985   2.304   0.079   5.613 -0.7770 -0.1878  0.4809
   80MOL   C16842986   2.378   7.782   5.683  0.2962 -0.7005 -0.2534
   80MOL   O16942987   2.389   7.687   5.579 -0.3518  0.3249 -0.3116
   80MOL   C17042988   2.336   7.560   5.598  0.2151  0.6486  0.1620
   80MOL   O17142989   2.263   7.523   5.694  0.1674 -0.4415 -0.3210
   80MOL   C17242990   2.378   7.463   5.484 -0.9118 -0.1035  0.4918
   80MOL   C17342991   2.363   7.541   5.346  0.2273  0.7212 -0.3153
   80MOL   C17442992   2.529   7.424   5.482  0.1578  0.5078 -0.3444
   80MOL   H17542993   2.400   0.465   5.387  1.0498  1.1956 -0.3071
   80MOL   H17642994   2.398   0.318   5.291  0.5866  0.8234 -0.8378
   80MOL   H17742995   2.528   0.333   5.409 -0.1191  1.5472 -1.9159
   80MOL   H17842996   2.234   0.295   5.477 -0.5250  1.9806  4.2705
   80MOL   H17942997   2.353   0.354   5.581  0.4997 -1.7033  1.1806
   80MOL   H18042998   2.373   0.106   5.421  0.4668 -0.0306 -0.1685
   80MOL   H18142999   2.499   0.147   5.529  0.4411 -2.7205 -4.4052
   80MOL   H18243000   2.212   0.048   5.564 -0.9138  0.4234  0.3512
   80MOL   H18343001   2.280   0.154   5.688  0.4274  0.8849 -0.1985
   80MOL   H18443002   2.320   7.759   5.772 -0.1908  0.4484 -0.2586
   80MOL   H18543003   2.481   7.811   5.709  0.0053 -0.2578  0.4288
   80MOL   H18643004   2.264   7.578   5.322 -0.2140 -1.8809 -2.8486
   80MOL   H18743005   2.384   7.481   5.257 -0.7754  0.0900 -0.1377
   80MOL   H18843006   2.423   7.632   5.349  1.2465  0.0385  0.2440
   80MOL   H18943007   2.554   7.346   5.409 -0.1380  0.4973 -0.4341
   80MOL   H19043008   2.590   7.510   5.457  1.8136 -0.0638  1.5672
   80MOL   C19143009   2.282   6.800   5.274 -0.3596  0.0616  0.0962
   80MOL   C19243010   2.385   6.793   5.386 -0.6519  0.4871 -0.1396
   80MOL   C19343011   2.384   6.913   5.480  0.3533  0.5079 -0.4662
   80MOL   C19443012   2.500   6.904   5.572 -0.4498  0.5367 -0.1460
   80MOL   C19543013   2.505   7.025   5.664 -0.3632  0.1952  0.4940
   80MOL   O19643014   2.551   7.145   5.607 -0.4522 -0.1248  0.1612
   80MOL   C19743015   2.559   7.256   5.681  0.2025  0.1186 -0.4107
   80MOL   O19843016   2.509   7.268   5.790  0.2376 -0.0815  0.0480
   80MOL   C19943017   2.619   7.386   5.610 -0.4951 -0.4002  0.4001
   80MOL   C20043018   2.632   7.507   5.704 -0.3523 -0.1407  0.3519
   80MOL   C20143019   2.759   7.344   5.553 -0.1520 -0.0220  0.2942
   80MOL   H20243020   2.306   6.872   5.196 -0.7828  1.2794  1.0903
   80MOL   H20343021   2.288   6.701   5.229 -2.6650 -0.2485  0.4493
   80MOL   H20443022   2.175   6.810   5.292 -0.4384 -0.6929  0.0876
   80MOL   H20543023   2.486   6.780   5.347  0.5608 -0.0246  2.9859
   80MOL   H20643024   2.363   6.704   5.444 -0.7492 -0.3708 -1.4750
   80MOL   H20743025   2.284   6.919   5.524 -0.4140  3.6728 -2.4949
   80MOL   H20843026   2.384   7.006   5.423 -1.9077  0.4227 -0.6471
   80MOL   H20943027   2.496   6.813   5.631  1.0958  1.5356  1.5510
   80MOL   H21043028   2.593   6.892   5.515 -0.5646 -2.0139  0.1832
   80MOL   H21143029   2.413   7.039   5.720 -0.0528  1.2188  0.7677
   80MOL   H21243030   2.587   6.994   5.730  0.5052  0.7353 -0.3199
   80MOL   H21343031   2.682   7.588   5.651  1.2167 -1.5552 -0.3932
   80MOL   H21443032   2.681   7.478   5.797 -0.8122  2.3557  1.4115
   80MOL   H21543033   2.535   7.542   5.740 -0.4761  1.3271 -1.3245
   80MOL   H21643034   2.779   7.426   5.483 -1.0346  0.8997  1.1018
   80MOL   H21743035   2.746   7.255   5.492  1.2649 -1.2846  1.7962
   80MOL   C21843036   3.196   6.964   6.336  0.3182  0.3956 -0.5131
   80MOL   C21943037   3.184   7.090   6.243  0.3042  0.2368  0.8589
   80MOL   C22043038   3.048   7.092   6.174 -0.3712 -0.1252  0.0345
   80MOL   C22143039   3.034   7.205   6.066 -0.1073 -0.7668  0.1734
   80MOL   C22243040   2.896   7.201   5.999 -0.2992 -0.2167 -0.1716
   80MOL   O22343041   2.914   7.276   5.879 -0.3454  0.0975 -0.4403
   80MOL   C22443042   2.863   7.237   5.760  0.1695  0.4753 -1.4860
   80MOL   O22543043   2.810   7.127   5.745  0.2179  0.4033 -0.1075
   80MOL   C22643044   2.894   7.329   5.640  0.2966 -0.4110  0.7747
   80MOL   C22743045   2.941   7.472   5.684  0.1029  0.7029  0.7729
   80MOL   C22843046   2.999   7.272   5.536 -0.3708  0.9190  0.5938
   80MOL   H22943047   3.224   6.877   6.276  2.4902 -0.6468  1.9401
   80MOL   H23043048   3.270   6.987   6.412 -0.4909 -0.0538  0.4122
   80MOL   H23143049   3.111   6.934   6.398  1.1973  1.9324  1.4691
   80MOL   H23243050   3.268   7.094   6.175 -0.9989 -0.5292 -0.8441
   80MOL   H23343051   3.191   7.175   6.311  2.0050  1.5098 -0.8585
   80MOL   H23443052   2.970   7.103   6.249 -0.7792 -0.0160 -0.4056
   80MOL   H23543053   3.034   6.994   6.127  0.0801  0.2232 -0.8377
   80MOL   H23643054   3.053   7.307   6.101  0.7585 -0.5110 -0.9880
   80MOL   H23743055   3.110   7.183   5.991 -0.0838  1.0459 -0.3793
   80MOL   H23843056   2.817   7.236   6.065  0.4196  0.9869  0.0747
   80MOL   H23943057   2.869   7.096   5.986  0.7218 -0.3622 -1.1688
   80MOL   H24043058   2.885   7.507   5.771  1.4285  0.5522  1.6976
   80MOL   H24143059   2.921   7.534   5.597 -0.0368 -0.0751  0.2479
   80MOL   H24243060   3.042   7.493   5.718 -0.2906  2.8561  0.7032
   80MOL   H24343061   3.026   7.352   5.467 -0.9239  0.8615  0.3104
   80MOL   H24443062   2.960   7.211   5.455  3.3972 -0.1788 -0.4755
   80MOL   C24543063   3.632   7.573   6.146 -0.1312  0.4577  0.7875
   80MOL   C24643064   3.545   7.483   6.059 -0.0062 -0.4731 -0.0714
   80MOL   C24743065   3.389   7.506   6.070  0.3413 -0.4034  0.3335
   80MOL   C24843066   3.303   7.419   5.982 -0.0542  1.1702 -0.2509
   80MOL   C24943067   3.328   7.427   5.830  0.1155  0.1584 -0.3201
   80MOL   O25043068   3.226   7.344   5.767 -0.1728 -0.4308  0.1237
   80MOL   C25143069   3.231   7.332   5.631  0.0138 -0.3619 -0.1280
   80MOL   O25243070   3.302   7.399   5.561 -0.1549 -0.0323  0.1801
   80MOL   C25343071   3.144   7.213   5.573 -0.5412 -0.1728  0.5211
   80MOL   C25443072   3.208   7.172   5.441 -0.6048 -0.5528 -0.6507
   80MOL   C25543073   3.142   7.086   5.678 -0.0462 -0.2731 -0.0072
   80MOL   H25643074   3.627   7.672   6.101  0.3730  0.4312  0.6705
   80MOL   H25743075   3.594   7.585   6.248  3.2692  1.5321  2.0196
   80MOL   H25843076   3.735   7.537   6.151 -0.8103 -1.4088  2.0929
   80MOL   H25943077   3.577   7.504   5.957  0.6632  2.5884  0.7262
   80MOL   H26043078   3.562   7.376   6.073 -1.3418 -0.6970 -0.0752
   80MOL   H26143079   3.359   7.607   6.041  0.9108 -0.1592  0.5823
   80MOL   H26243080   3.355   7.505   6.173 -0.6932 -0.9324 -0.0119
   80MOL   H26343081   3.323   7.314   6.005 -2.2421  0.3355 -2.0088
   80MOL   H26443082   3.202   7.450   6.007 -0.4681  1.9370 -2.7589
   80MOL   H26543083   3.302   7.530   5.808  1.9183  0.7435  0.2171
   80MOL   H26643084   3.431   7.420   5.796 -0.2320 -1.0119 -1.1374
   80MOL   H26743085   3.300   7.114   5.446 -0.8596 -1.1150 -2.1957
   80MOL   H26843086   3.138   7.102   5.396 -0.5662 -0.8364 -0.2717
   80MOL   H26943087   3.223   7.249   5.366  0.6546 -0.2612 -0.1120
   80MOL   H27043088   3.104   7.115   5.776  0.3500  0.2171  0.0056
   80MOL   H27143089   3.053   7.029   5.651  0.4370 -1.5495  1.0070
   80MOL   C27243090   2.936   6.961   5.122  0.2217 -0.5077  0.8493
   80MOL   C27343091   2.900   6.830   5.191  0.3204  0.6651  0.1793
   80MOL   C27443092   2.968   6.804   5.323  0.6104  0.5153  0.1860
   80MOL   C27543093   3.118   6.772   5.312 -0.0522  0.2054 -0.6276
   80MOL   C27643094   3.168   6.707   5.445  0.9781  0.3056  0.1941
   80MOL   O27743095   3.171   6.802   5.558  0.3793  0.2175 -0.3973
   80MOL   C27843096   3.270   6.890   5.568 -0.0290 -0.0314  0.6224
   80MOL   O27943097   3.372   6.889   5.498 -0.2405 -0.3845 -0.3783
   80MOL   C28043098   3.255   6.978   5.698 -0.0099 -0.4872 -0.3833
   80MOL   C28143099   3.392   7.054   5.724  0.6621 -0.1172 -0.2562
   80MOL   C28243100   3.217   6.883   5.824  0.1786 -0.1109  0.1835
   80MOL   H28343101   2.889   7.045   5.172 -0.3936 -1.0145  1.1309
   80MOL   H28443102   3.040   6.988   5.140  0.7694 -0.4348 -2.2253
   80MOL   H28543103   2.907   6.968   5.018 -0.1666  1.0682  1.0564
   80MOL   H28643104   2.794   6.829   5.214  0.0169  0.6938 -1.1538
   80MOL   H28743105   2.921   6.745   5.126 -1.8215 -0.1369  0.5018
   80MOL   H28843106   2.952   6.888   5.391  1.1091  1.7560 -1.2254
   80MOL   H28943107   2.928   6.719   5.379  1.8157 -0.5521 -0.5604
   80MOL   H29043108   3.140   6.708   5.227  0.1365  3.0884 -2.8263
   80MOL   H29143109   3.175   6.864   5.306 -1.1328  0.8181 -1.7591
   80MOL   H29243110   3.262   6.652   5.433 -0.5938 -2.0672 -2.0027
   80MOL   H29343111   3.097   6.630   5.477  0.4566  0.7226  0.0498
   80MOL   H29443112   3.481   6.991   5.735 -0.1510 -1.6828 -2.4097
   80MOL   H29543113   3.417   7.123   5.644 -0.7399 -0.1154 -0.6979
   80MOL   H29643114   3.384   7.120   5.811 -1.4053 -0.3400 -0.2616
   80MOL   H29743115   3.177   6.952   5.898  1.6570 -0.4134  1.2838
   80MOL   H29843116   3.124   6.832   5.800  0.7668 -2.0684  1.8334
   80MOL   C29943117   2.662   6.524   5.803 -0.5334 -0.2046 -0.7125
   80MOL   C30043118   2.704   6.628   5.900 -0.0448  0.1039  0.4658
   80MOL   C30143119   2.851   6.622   5.937 -0.5680 -0.0197 -0.8423
   80MOL   C30243120   2.892   6.702   6.063  0.7076 -0.5398 -0.1331
   80MOL   C30343121   3.024   6.671   6.117  0.3468  0.5061  0.1904
   80MOL   O30443122   3.124   6.742   6.035  0.7623 -0.4926  0.0647
   80MOL   C30543123   3.224   6.682   5.964 -0.0706  0.4344 -0.1461
   80MOL   O30643124   3.254   6.558   5.955 -0.3135 -0.5656  0.0012
   80MOL   C30743125   3.309   6.790   5.902 -0.5119 -0.1631  0.4791
   80MOL   C30843126   3.401   6.713   5.795 -0.4211  0.6566 -0.3079
   80MOL   C30943127   3.389   6.879   6.008  0.1548  0.3237  0.6227
   80MOL   H31043128   2.647   6.429   5.855  1.5031 -0.6340 -0.9023
   80MOL   H31143129   2.725   6.513   5.715  0.3272  0.4345 -0.1716
   80MOL   H31243130   2.567   6.551   5.755 -1.1942 -1.3633 -0.0883
   80MOL   H31343131   2.638   6.621   5.986 -1.0010  0.2015 -0.2595
   80MOL   H31443132   2.683   6.727   5.859  3.8012 -0.4427 -3.2715
   80MOL   H31543133   2.911   6.658   5.853  0.1844 -2.3996 -1.3845
   80MOL   H31643134   2.882   6.517   5.942 -2.1160 -0.4681 -0.5111
   80MOL   H31743135   2.820   6.669   6.138  1.0454 -2.6578 -0.7157
   80MOL   H31843136   2.881   6.810   6.047 -1.2215 -0.6595  0.2184
   80MOL   H31943137   3.037   6.716   6.215  1.4839  1.7515 -0.4971
   80MOL   H32043138   3.038   6.563   6.125  3.9391  1.0548  2.6222
   80MOL   H32143139   3.343   6.667   5.716  0.7882  0.8075 -1.2981
   80MOL   H32243140   3.472   6.780   5.747 -1.6623  1.5377 -0.9229
   80MOL   H32343141   3.465   6.632   5.832  0.1926  1.0438 -0.5169
   80MOL   H32443142   3.314   6.912   6.079 -2.8977 -1.1384 -1.8287
   80MOL   H32543143   3.424   6.971   5.960  1.4700  0.0515  1.0262
   80MOL   C32643144   3.663   7.272   5.534 -0.1604  0.2269  0.2973
   80MOL   C32743145   3.750   7.305   5.651  0.5255 -0.0137 -0.0285
   80MOL   C32843146   3.727   7.218   5.772  0.4156  0.1822 -0.1645
   80MOL   C32943147   3.764   7.069   5.745 -0.0651  0.6312 -0.1780
   80MOL   C33043148   3.790   6.983   5.876 -0.7582 -0.7004  0.0819
   80MOL   O33143149   3.672   6.951   5.955 -0.3356  0.6562  0.0317
   80MOL   C33243150   3.642   6.825   5.997  0.3374 -0.5874  0.1250
   80MOL   O33343151   3.695   6.722   5.964 -0.1158  0.1916  0.5795
   80MOL   C33443152   3.514   6.837   6.086  0.1501 -0.2159 -0.4536
   80MOL   C33543153   3.528   6.954   6.187 -0.0010 -0.7229 -0.0707
   80MOL   C33643154   3.485   6.702   6.159 -0.2030 -0.7553  0.3412
   80MOL   H33743155   3.696   7.184   5.479  0.7050  0.8477 -0.1814
   80MOL   H33843156   3.676   7.357   5.467  0.7245  0.8736  1.2767
   80MOL   H33943157   3.556   7.265   5.554 -0.4407  1.7660 -0.5592
   80MOL   H34043158   3.726   7.410   5.673  0.3821  0.2713 -1.5074
   80MOL   H34143159   3.851   7.310   5.611 -0.2659  0.1628 -2.0496
   80MOL   H34243160   3.625   7.213   5.812 -0.1893  3.0343 -1.2741
   80MOL   H34343161   3.780   7.261   5.857 -0.0869  1.7341 -0.6194
   80MOL   H34443162   3.853   7.064   5.682  1.1340 -0.2908  1.5442
   80MOL   H34543163   3.684   7.018   5.691 -0.2594 -0.7966  1.4190
   80MOL   H34643164   3.843   7.045   5.948  0.1373 -1.1397 -0.2041
   80MOL   H34743165   3.846   6.892   5.856  0.5428  0.2202 -0.5202
   80MOL   H34843166   3.524   7.056   6.149 -1.8864 -0.5160  0.6627
   80MOL   H34943167   3.631   6.959   6.224 -0.5416  0.6102  1.3305
   80MOL   H35043168   3.459   6.955   6.271 -1.0776  3.3282 -0.8894
   80MOL   H35143169   3.474   6.625   6.083  0.8204 -0.5059 -0.0587
   80MOL   H35243170   3.385   6.717   6.199 -0.5745 -1.1376 -0.4217
   80MOL   C35343171   3.645   6.314   5.816 -0.3037  0.4760  0.1170
   80MOL   C35443172   3.709   6.352   5.950  0.8915 -0.2248 -0.6572
   80MOL   C35543173   3.851   6.391   5.940 -0.9236  0.3492 -0.2889
   80MOL   C35643174   3.919   6.399   6.076 -0.2927 -0.2413  0.4255
   80MOL   C35743175   3.898   6.526   6.155  0.0136 -0.1463 -0.7095
   80MOL   O35843176   3.765   6.536   6.205 -0.0437  0.1719 -0.4126
   80MOL   C35943177   3.723   6.650   6.253 -0.1167  1.0257  0.2623
   80MOL   O36043178   3.790   6.753   6.259 -0.0037  0.3017  0.1256
   80MOL   C36143179   3.571   6.647   6.284  0.5087  0.1680 -0.5565
   80MOL   C36243180   3.521   6.505   6.311  0.1297 -0.2390 -0.6883
   80MOL   C36343181   3.538   6.735   6.413  0.0037  0.2232 -0.8077
   80MOL   H36443182   3.710   6.237   5.776 -0.2357  1.6123 -2.0514
   80MOL   H36543183   3.627   6.398   5.750 -0.3512  0.0295 -0.4349
   80MOL   H36643184   3.552   6.274   5.856 -0.0030  2.0281  2.5058
   80MOL   H36743185   3.648   6.429   5.997 -1.5414 -2.6367  0.2583
   80MOL   H36843186   3.693   6.266   6.014  2.0867 -0.3144 -0.4760
   80MOL   H36943187   3.863   6.480   5.879 -0.5344  0.6111  0.1706
   80MOL   H37043188   3.912   6.313   5.894 -0.0518  2.1250 -2.2244
   80MOL   H37143189   4.024   6.384   6.049 -0.1732  2.6169 -0.9247
   80MOL   H37243190   3.894   6.313   6.137  0.3455 -0.2201  0.7241
   80MOL   H37343191   3.965   6.528   6.241 -0.5021 -0.7436 -0.2930
   80MOL   H37443192   3.929   6.613   6.097  0.1803 -1.7960 -3.1518
   80MOL   H37543193   3.417   6.512   6.344  0.9698 -0.0912  2.1034
   80MOL   H37643194   3.517   6.453   6.215  0.8994  1.8260 -1.8593
   80MOL   H37743195   3.585   6.445   6.377  0.5181  0.5990 -0.2935
   80MOL   H37843196   3.589   6.830   6.398  0.2622  0.4950  1.6429
   80MOL   H37943197   3.434   6.766   6.405  0.3826  1.5986 -0.5024
   80MOL   C38043198   4.038   7.026   6.915  0.5942 -0.4657 -0.4441
   80MOL   C38143199   4.025   6.915   6.812  0.5074 -0.7652  0.0799
   80MOL   C38243200   4.004   6.962   6.667  0.8727  0.2759 -0.7242
   80MOL   C38343201   4.024   6.846   6.561 -0.1315 -0.7770 -0.2683
   80MOL   C38443202   3.931   6.723   6.572  0.1605  0.5126  0.3618
   80MOL   O38543203   3.793   6.755   6.556 -0.2886 -0.6678 -0.2657
   80MOL   C38643204   3.703   6.653   6.579 -0.8976  0.2818 -0.7298
   80MOL   O38743205   3.733   6.539   6.615  0.3274  1.2593 -0.0303
   80MOL   C38843206   3.556   6.702   6.571 -0.4625 -0.1110  0.8172
   80MOL   C38943207   3.541   6.832   6.651  0.3009  0.0263  0.8644
   80MOL   C39043208   3.461   6.585   6.627  0.4331  0.7827  0.0091
   80MOL   H39143209   3.945   7.076   6.940  0.3115 -0.2878 -1.8701
   80MOL   H39243210   4.071   6.982   7.010  1.6867  1.2418 -0.0122
   80MOL   H39343211   4.113   7.100   6.889  0.6192  0.4637  2.0781
   80MOL   H39443212   3.939   6.856   6.842 -0.2276  1.3170  2.1856
   80MOL   H39543213   4.118   6.859   6.821  1.9838  1.6754  0.5728
   80MOL   H39643214   3.900   6.988   6.650  0.3264 -2.2477 -1.4509
   80MOL   H39743215   4.059   7.052   6.640  1.9863 -0.4743 -1.0058
   80MOL   H39843216   4.016   6.886   6.460 -3.3099 -1.5722 -0.3725
   80MOL   H39943217   4.127   6.809   6.554  0.3259  0.4769 -0.2978
   80MOL   H40043218   3.953   6.669   6.664  0.7596 -1.5645 -0.9804
   80MOL   H40143219   3.955   6.652   6.493 -0.5312  0.4683  0.1871
   80MOL   H40243220   3.621   6.899   6.619  1.4487 -1.9379 -0.4938
   80MOL   H40343221   3.566   6.814   6.756 -0.1216 -0.5392  0.8668
   80MOL   H40443222   3.452   6.895   6.641 -0.7266 -1.4797  0.3942
   80MOL   H40543223   3.503   6.549   6.721  0.1560  3.1795  1.0793
   80MOL   H40643224   3.463   6.501   6.558 -0.1485  0.1813  0.7158
   80MOL   C40743225   3.478   6.729   7.511 -0.2657 -0.6465  0.1679
   80MOL   C40843226   3.459   6.650   7.380 -0.4192  0.0125  0.1321
   80MOL   C40943227   3.370   6.713   7.275  0.4890  0.0137  0.5555
   80MOL   C41043228   3.345   6.631   7.148 -0.6893 -0.0058  0.0583
   80MOL   C41143229   3.321   6.719   7.024  0.7054  0.4809  0.1275
   80MOL   O41243230   3.337   6.642   6.902  0.3074 -0.4009 -0.4088
   80MOL   C41343231   3.282   6.688   6.787 -0.7618 -0.2495  0.7031
   80MOL   O41443232   3.195   6.781   6.778 -0.1068  0.0287  0.2959
   80MOL   C41543233   3.307   6.599   6.661 -0.5932 -0.4753 -0.0192
   80MOL   C41643234   3.230   6.664   6.537 -0.3343  0.0941  0.0898
   80MOL   C41743235   3.257   6.453   6.696  0.6671 -0.1391  0.1165
   80MOL   H41843236   3.528   6.667   7.586 -1.2299 -0.7367  0.7513
   80MOL   H41943237   3.524   6.827   7.495  1.5214 -1.5633 -0.4416
   80MOL   H42043238   3.382   6.747   7.559  0.3066  0.8903  0.7724
   80MOL   H42143239   3.419   6.553   7.408 -1.0247  0.3673  0.5113
   80MOL   H42243240   3.556   6.618   7.339 -1.2851 -0.8954 -1.2553
   80MOL   H42343241   3.274   6.731   7.325 -0.8099 -1.2276 -1.4139
   80MOL   H42443242   3.414   6.808   7.244  1.0177  0.3655  2.3265
   80MOL   H42543243   3.256   6.569   7.158 -0.5111 -0.1879  0.5421
   80MOL   H42643244   3.427   6.560   7.144 -1.4084 -0.7279 -2.4167
   80MOL   H42743245   3.220   6.758   7.032  1.0282  1.5373 -0.8321
   80MOL   H42843246   3.386   6.805   7.035 -1.2627  2.1075 -0.6647
   80MOL   H42943247   3.261   6.767   6.518  2.6821 -1.2268 -2.4954
   80MOL   H43043248   3.125   6.679   6.562  0.0786 -0.2504  2.1811
   80MOL   H43143249   3.229   6.597   6.451  0.1796  0.4522 -0.1945
   80MOL   H43243250   3.322   6.432   6.781 -0.6800 -0.5750  1.0433
   80MOL   H43343251   3.293   6.393   6.613  0.2147  0.8402 -0.7942
   80MOL   C43443252   3.334   6.246   6.065  0.2206 -0.2527 -0.2978
   80MOL   C43543253   3.185   6.234   6.115  0.3405  0.1364 -0.5712
   80MOL   C43643254   3.154   6.334   6.227 -0.2494  0.1414  0.3004
   80MOL   C43743255   3.008   6.323   6.272 -0.0857 -0.4016  1.0711
   80MOL   C43843256   2.964   6.416   6.389 -1.0525  0.1875 -0.2937
   80MOL   O43943257   3.048   6.383   6.500 -0.3138 -0.4414 -0.1829
   80MOL   C44043258   3.012   6.439   6.619  0.6546  0.6547 -0.1562
   80MOL   O44143259   2.910   6.506   6.633 -0.2048  0.2332  0.2507
   80MOL   C44243260   3.110   6.400   6.733  0.1940  0.2131  0.0701
   80MOL   C44343261   3.044   6.455   6.861 -0.6400 -0.0789 -0.2257
   80MOL   C44443262   3.127   6.242   6.752  0.4323  0.7630 -0.5088
   80MOL   H44543263   3.353   6.178   5.982 -1.1277  0.4067 -1.1754
   80MOL   H44643264   3.365   6.341   6.023 -0.7880 -0.0444 -0.5877
   80MOL   H44743265   3.396   6.235   6.154  0.1920  0.2765 -0.2116
   80MOL   H44843266   3.116   6.259   6.034 -1.8398 -0.8164  0.9356
   80MOL   H44943267   3.164   6.132   6.147 -0.9430  0.4671 -0.3085
   80MOL   H45043268   3.228   6.319   6.306 -1.0675  0.4504  1.1245
   80MOL   H45143269   3.168   6.439   6.203  2.1697 -0.2073 -0.0208
   80MOL   H45243270   2.979   6.219   6.287  0.5845 -0.8215 -0.4889
   80MOL   H45343271   2.944   6.354   6.190  2.1840  0.9877 -0.2394
   80MOL   H45443272   2.856   6.410   6.401 -0.9478 -0.0954  0.5678
   80MOL   H45543273   2.978   6.520   6.360 -2.6734  0.3969 -0.3558
   80MOL   H45643274   2.998   6.552   6.845 -2.8400 -1.1730 -0.7752
   80MOL   H45743275   2.958   6.397   6.894 -1.8885  1.4168 -0.8380
   80MOL   H45843276   3.114   6.459   6.945 -0.7112  0.0255 -0.1717
   80MOL   H45943277   3.191   6.206   6.672 -0.0698  1.2440 -1.1393
   80MOL   H46043278   3.029   6.208   6.717  0.4471  0.2132 -0.0139
   80MOL   C46143279   3.791   6.209   6.460 -0.0935  0.4176 -0.2661
   80MOL   C46243280   3.777   6.125   6.593  0.4127 -0.0257 -0.0459
   80MOL   C46343281   3.666   6.187   6.672 -0.1034  0.2634 -0.0287
   80MOL   C46443282   3.648   6.138   6.818 -1.0492  0.5466 -0.4078
   80MOL   C46543283   3.545   6.221   6.896 -0.7207 -0.6391 -0.1573
   80MOL   O46643284   3.410   6.179   6.856  0.6254  0.1176  0.2220
   80MOL   C46743285   3.304   6.224   6.925 -0.2878  0.4265 -0.2267
   80MOL   O46843286   3.318   6.302   7.020 -0.2876  0.6603  0.1038
   80MOL   C46943287   3.168   6.166   6.883  0.2884  0.7361  0.1696
   80MOL   C47043288   3.187   6.011   6.847 -0.1669  0.2148  0.0855
   80MOL   C47143289   3.080   6.173   7.008  0.1672 -0.0340 -1.0280
   80MOL   H47243290   3.719   6.186   6.381 -1.0343 -1.2705  1.0536
   80MOL   H47343291   3.888   6.177   6.421  0.1370 -0.3051  0.8710
   80MOL   H47443292   3.787   6.315   6.486 -0.4884  0.1340  0.8253
   80MOL   H47543293   3.868   6.133   6.651 -0.3369  0.0961  1.1409
   80MOL   H47643294   3.762   6.020   6.570 -0.0444  0.3576 -1.5415
   80MOL   H47743295   3.566   6.174   6.629  0.2095 -1.8298 -0.1380
   80MOL   H47843296   3.682   6.295   6.676 -0.8768  0.3218  2.4886
   80MOL   H47943297   3.748   6.154   6.859 -1.2796  1.1945 -0.0937
   80MOL   H48043298   3.619   6.033   6.824 -1.1018  0.7244  3.8989
   80MOL   H48143299   3.557   6.201   7.002 -0.1554 -1.5126 -0.3839
   80MOL   H48243300   3.547   6.330   6.893  0.0834 -0.6577 -0.2225
   80MOL   H48343301   3.198   5.938   6.927  3.6022  1.1912  0.5236
   80MOL   H48443302   3.283   5.997   6.798  0.3674  1.9803  0.5804
   80MOL   H48543303   3.104   5.978   6.785 -2.1433  0.0489  2.7268
   80MOL   H48643304   3.068   6.280   7.031 -2.4223 -0.1577 -1.5994
   80MOL   H48743305   3.141   6.127   7.086 -0.0456 -0.3939 -1.0726
   80MOL   C48843306   2.889   5.706   6.440 -0.2856 -0.4852  0.6526
   80MOL   C48943307   2.902   5.851   6.386 -0.8200 -0.1028 -0.6150
   80MOL   C49043308   2.897   5.960   6.492  0.1269 -0.2723 -0.1078
   80MOL   C49143309   2.771   5.960   6.582 -0.1757  0.1421 -0.5247
   80MOL   C49243310   2.772   6.072   6.683 -0.0380 -0.3657 -0.9075
   80MOL   O49343311   2.862   6.069   6.796 -0.1971  0.3158  0.0903
   80MOL   C49443312   2.841   6.157   6.896  0.2025 -0.2715 -0.4664
   80MOL   O49543313   2.760   6.249   6.896  0.2376 -0.1390  0.4260
   80MOL   C49643314   2.929   6.124   7.027 -0.6118 -0.3009 -0.3150
   80MOL   C49743315   2.871   6.197   7.149  0.0609  0.2207  0.4261
   80MOL   C49843316   2.934   5.965   7.052 -0.4829 -1.2980  0.3532
   80MOL   H49943317   2.982   5.686   6.493  1.2767  1.6463 -1.1772
   80MOL   H50043318   2.809   5.696   6.513  0.7849  1.4244  2.1468
   80MOL   H50143319   2.888   5.640   6.353 -0.2196  0.3428  0.0122
   80MOL   H50243320   2.826   5.878   6.312  0.9567  1.4426 -1.9509
   80MOL   H50343321   2.994   5.856   6.328 -0.5765 -1.2898 -0.3377
   80MOL   H50443322   2.986   5.952   6.554  0.0602 -2.1389 -0.2127
   80MOL   H50543323   2.904   6.053   6.436 -1.5504  0.7834  1.3769
   80MOL   H50643324   2.757   5.871   6.643  0.6543  0.8951  0.7964
   80MOL   H50743325   2.688   5.964   6.511 -0.1423  1.7510 -0.5025
   80MOL   H50843326   2.786   6.164   6.626  0.5973 -1.4597 -2.5331
   80MOL   H50943327   2.669   6.073   6.720  0.4652  1.3574  0.5723
   80MOL   H51043328   2.925   6.167   7.239  1.6408  0.9391 -0.2535
   80MOL   H51143329   2.769   6.168   7.175 -0.8406  0.4311 -2.6704
   80MOL   H51243330   2.869   6.305   7.133 -1.4678  0.1255 -0.1281
   80MOL   H51343331   3.002   5.942   7.134 -0.7547 -1.6502  0.4810
   80MOL   H51443332   2.981   5.924   6.962  1.0638 -0.9457  0.9843
   80MOL   C51543333   2.428   5.417   7.350  0.0322  0.5406  0.3724
   80MOL   C51643334   2.572   5.446   7.322 -0.6363  0.2165  0.3940
   80MOL   C51743335   2.619   5.379   7.189  0.6560 -0.2162 -0.1378
   80MOL   C51843336   2.773   5.403   7.162  0.3403  0.4120  0.0567
   80MOL   C51943337   2.786   5.506   7.048 -0.1605  0.4019 -0.7903
   80MOL   O52043338   2.760   5.637   7.086 -0.8216 -0.2182  0.2864
   80MOL   C52143339   2.864   5.724   7.092 -0.1895  0.1609 -0.6389
   80MOL   O52243340   2.980   5.691   7.107  0.5457 -0.1239 -0.0340
   80MOL   C52343341   2.814   5.877   7.103  0.5474 -0.7464  0.2249
   80MOL   C52443342   2.683   5.891   7.020 -0.1805  0.3760 -0.4952
   80MOL   C52543343   2.779   5.890   7.256  0.5693  0.0689  0.9688
   80MOL   H52643344   2.363   5.463   7.276  1.9895 -0.5685 -2.0769
   80MOL   H52743345   2.395   5.313   7.357 -0.4231  0.5695 -1.3140
   80MOL   H52843346   2.409   5.449   7.453 -1.2099 -2.4094  1.1412
   80MOL   H52943347   2.595   5.552   7.309 -0.1009 -0.0863 -1.2941
   80MOL   H53043348   2.637   5.408   7.401  0.2257  1.0400  0.0981
   80MOL   H53143349   2.591   5.275   7.202  0.2413  0.0337  1.0173
   80MOL   H53243350   2.560   5.420   7.106 -0.5596 -0.9745  0.3473
   80MOL   H53343351   2.822   5.314   7.122  0.6614  0.9423 -0.7404
   80MOL   H53443352   2.832   5.433   7.248 -2.0191  0.1865  1.7965
   80MOL   H53543353   2.881   5.495   6.997  0.8269 -3.1919  1.6075
   80MOL   H53643354   2.715   5.467   6.974  0.4533 -1.9755 -0.1858
   80MOL   H53743355   2.602   5.821   7.040 -0.7559  0.9894 -0.6379
   80MOL   H53843356   2.706   5.875   6.914  0.0826 -0.9265 -0.2513
   80MOL   H53943357   2.617   5.976   7.037 -1.2054 -0.1161 -1.8673
   80MOL   H54043358   2.710   5.818   7.297  1.0752 -1.1328 -0.2475
   80MOL   H54143359   2.733   5.985   7.282 -2.0947 -0.5833 -1.2015
   80MOL   H54243360   2.864   5.865   7.319  0.2193 -0.0591  1.3911
   81MOL     C143361   5.525   7.163   5.797  0.0214  0.7685 -1.0242
   81MOL     C243362   5.600   7.072   5.890 -0.4328  1.1982  0.0470
   81MOL     C343363   5.702   6.983   5.815  0.5489 -0.2212 -0.0272
   81MOL     C443364   5.746   6.864   5.896 -0.5579  0.5661 -0.7203
   81MOL     C543365   5.850   6.768   5.833 -0.8842  0.0429 -0.3123
   81MOL     O643366   5.777   6.700   5.729  0.6817 -0.3653 -0.7001
   81MOL     C743367   5.707   6.589   5.757  0.2618 -0.4534  0.0811
   81MOL     O843368   5.706   6.530   5.868  0.2442 -0.6048 -0.3205
   81MOL     C943369   5.628   6.537   5.642 -0.1433  0.2974 -0.5050
   81MOL    C1043370   5.517   6.433   5.678  0.1384  0.2841 -0.5386
   81MOL    C1143371   5.725   6.486   5.531  0.2329 -0.5664  0.1426
   81MOL    H1243372   5.429   7.195   5.837 -0.1163 -0.6904 -0.1668
   81MOL    H1343373   5.493   7.103   5.712 -1.4643  0.2735 -0.1340
   81MOL    H1443374   5.591   7.241   5.759  1.1749 -0.0089 -0.6351
   81MOL    H1543375   5.643   7.132   5.971 -0.1860  0.0370  0.7890
   81MOL    H1643376   5.533   7.000   5.937 -0.2186  1.1240  0.2375
   81MOL    H1743377   5.650   6.943   5.727  0.7055  2.7461 -1.5128
   81MOL    H1843378   5.787   7.042   5.781  0.9488 -0.0817  1.1938
   81MOL    H1943379   5.662   6.802   5.926  0.1101 -0.1853 -0.3817
   81MOL    H2043380   5.785   6.899   5.992 -0.2887 -3.1379  0.6047
   81MOL    H2143381   5.926   6.828   5.784  1.2535 -0.1935  2.6080
   81MOL    H2243382   5.890   6.702   5.910 -0.9500 -0.6808 -0.8955
   81MOL    H2343383   5.497   6.374   5.588 -1.7638 -0.3499  0.2857
   81MOL    H2443384   5.423   6.465   5.724 -0.0376 -1.4448  0.3408
   81MOL    H2543385   5.563   6.362   5.747  1.2669  0.7896 -0.7573
   81MOL    H2643386   5.711   6.380   5.510 -0.8759 -0.3315 -0.3424
   81MOL    H2743387   5.825   6.506   5.571  0.8159  1.9399 -2.3691
   81MOL    H2843388   5.568   6.621   5.606 -0.5473  0.0047 -0.5172
   81MOL    C2943389   6.043   5.917   5.482 -0.3389 -0.5678  0.3380
   81MOL    C3043390   5.968   5.922   5.340 -0.1552  0.2468  0.0711
   81MOL    C3143391   5.908   6.059   5.300  0.7709 -0.1688 -0.0691
   81MOL    C3243392   6.001   6.181   5.299  0.5927  0.2574  0.7667
   81MOL    C3343393   5.943   6.300   5.229  0.7758  0.1634 -0.2049
   81MOL    O3443394   5.849   6.369   5.310 -0.0068  0.6334  0.1578
   81MOL    C3543395   5.846   6.499   5.312  0.6564  0.5159  0.1512
   81MOL    O3643396   5.925   6.573   5.256 -0.2569  0.3359  0.4266
   81MOL    C3743397   5.716   6.553   5.387 -0.2776 -0.3119 -0.1937
   81MOL    C3843398   5.737   6.709   5.399 -0.6648 -0.1217 -0.3405
   81MOL    C3943399   5.584   6.518   5.317 -0.2552  0.4394 -0.8343
   81MOL    H4043400   6.011   5.991   5.555  0.4909 -0.9500  1.0989
   81MOL    H4143401   6.050   5.816   5.521  1.8015 -0.7286 -0.3487
   81MOL    H4243402   6.146   5.953   5.481 -0.7902  0.7426 -1.8410
   81MOL    H4343403   5.883   5.855   5.345 -0.4577  0.7064  1.2933
   81MOL    H4443404   6.041   5.881   5.270 -1.0370 -0.3356 -0.5183
   81MOL    H4543405   5.832   6.089   5.372  1.3107  0.9368  0.0531
   81MOL    H4643406   5.862   6.050   5.201 -0.6470 -0.8225  0.6352
   81MOL    H4743407   6.030   6.209   5.401  1.6346  0.0526  0.5322
   81MOL    H4843408   6.095   6.150   5.255  1.4940  1.3016  1.8985
   81MOL    H4943409   5.896   6.263   5.138  0.2015 -1.2143  0.6348
   81MOL    H5043410   6.027   6.359   5.194  1.2070 -0.8182 -0.8551
   81MOL    H5143411   5.733   6.763   5.305  0.5658  0.2251 -0.2035
   81MOL    H5243412   5.839   6.724   5.435 -0.7154  0.9792 -0.6203
   81MOL    H5343413   5.674   6.768   5.466 -1.9030 -1.4379 -0.3284
   81MOL    H5443414   5.504   6.538   5.388 -0.7731  3.0047 -2.0761
   81MOL    H5543415   5.596   6.410   5.307  1.7947  0.6440 -0.8082
   81MOL    C5643416   5.382   6.781   5.782 -0.0885  0.3055  0.3026
   81MOL    C5743417   5.242   6.806   5.713  0.1550 -0.3101  0.6671
   81MOL    C5843418   5.231   6.762   5.568 -0.0615  0.4139  0.5561
   81MOL    C5943419   5.291   6.853   5.462  0.0627 -0.9742 -0.1788
   81MOL    C6043420   5.261   6.817   5.320 -0.1528 -0.6272 -0.1351
   81MOL    O6143421   5.347   6.708   5.284 -0.2174  0.0102  0.2875
   81MOL    C6243422   5.459   6.726   5.212 -0.1344 -0.0604 -0.1320
   81MOL    O6343423   5.506   6.834   5.181 -0.0439  0.3936  0.4430
   81MOL    C6443424   5.530   6.591   5.181  0.3272 -1.4114  0.1724
   81MOL    C6543425   5.425   6.488   5.127 -0.2296  0.5266 -0.6629
   81MOL    C6643426   5.646   6.602   5.074  0.2492 -0.5804 -0.0243
   81MOL    H6743427   5.457   6.838   5.727 -0.5864 -0.2062 -0.9182
   81MOL    H6843428   5.391   6.674   5.766  2.4651  0.4573  0.5882
   81MOL    H6943429   5.387   6.809   5.887  0.2823 -1.2762  0.7166
   81MOL    H7043430   5.176   6.749   5.777 -0.8793  0.7971  0.6039
   81MOL    H7143431   5.207   6.909   5.725 -0.4487 -0.5967  1.3164
   81MOL    H7243432   5.276   6.665   5.550 -1.7433 -0.3428  0.4565
   81MOL    H7343433   5.124   6.762   5.552  0.3204  1.4749 -2.2915
   81MOL    H7443434   5.395   6.878   5.483  0.6195 -1.3253 -2.4118
   81MOL    H7543435   5.232   6.944   5.476 -0.7503 -1.6299  0.7313
   81MOL    H7643436   5.160   6.779   5.311 -0.1814 -0.0857 -2.2658
   81MOL    H7743437   5.280   6.911   5.267 -0.0069  0.1083  1.2080
   81MOL    H7843438   5.342   6.466   5.194  0.1341 -2.6729 -1.1982
   81MOL    H7943439   5.478   6.394   5.110 -0.6819  0.2808 -0.7265
   81MOL    H8043440   5.380   6.513   5.031 -0.2378  0.1514 -0.7572
   81MOL    H8143441   5.705   6.513   5.096 -2.3280 -2.8538 -2.1175
   81MOL    H8243442   5.708   6.683   5.114 -0.0299 -0.3190 -0.1233
   81MOL    C8343443   6.478   6.430   4.948 -0.1551  0.4497 -0.5471
   81MOL    C8443444   6.338   6.465   5.002  1.1064 -0.1307 -0.2945
   81MOL    C8543445   6.228   6.495   4.889 -0.3605  0.0757 -0.1918
   81MOL    C8643446   6.089   6.511   4.941  0.2647 -0.1200  0.2512
   81MOL    C8743447   6.007   6.591   4.838  0.1797  0.2455 -0.1450
   81MOL    O8843448   5.871   6.574   4.886 -0.5060 -0.1578  0.0829
   81MOL    C8943449   5.776   6.671   4.880  0.5911  0.2930 -0.0254
   81MOL    O9043450   5.799   6.787   4.852 -0.0258  0.2503  0.2239
   81MOL    C9143451   5.634   6.632   4.920  0.3013  0.5981  0.1629
   81MOL    C9243452   5.613   6.493   4.857 -0.7318  0.1402  0.4876
   81MOL    C9343453   5.519   6.736   4.893  0.3415  0.1152  0.0946
   81MOL    H9443454   6.461   6.337   4.893 -2.4042  1.2404 -1.2273
   81MOL    H9543455   6.520   6.499   4.875 -1.1671  0.8656 -0.7529
   81MOL    H9643456   6.547   6.419   5.031 -0.9595  0.4140  0.1280
   81MOL    H9743457   6.351   6.552   5.067 -1.6180  1.3385 -1.5772
   81MOL    H9843458   6.303   6.383   5.065  0.8717 -0.5402 -0.9523
   81MOL    H9943459   6.230   6.415   4.815 -0.5137 -1.0289  0.9761
   81MOL   H10043460   6.246   6.592   4.843  0.3440  0.4508  0.8429
   81MOL   H10143461   6.088   6.561   5.038 -0.1962 -0.2236  0.3008
   81MOL   H10243462   6.043   6.413   4.951 -0.6143  0.2561 -0.1123
   81MOL   H10343463   6.010   6.527   4.750 -1.4710  0.2685 -0.2464
   81MOL   H10443464   6.042   6.692   4.820  0.2887  0.2091 -0.1351
   81MOL   H10543465   5.680   6.414   4.889 -1.0290 -0.8926 -1.3499
   81MOL   H10643466   5.635   6.474   4.752 -1.5661 -2.6534  0.7740
   81MOL   H10743467   5.510   6.463   4.876  0.1364 -1.8000  2.3089
   81MOL   H10843468   5.425   6.699   4.934 -0.3151  1.3897 -0.2065
   81MOL   H10943469   5.535   6.829   4.948  0.1074 -0.4921  1.1998
   81MOL   C11043470   5.065   6.529   5.114  0.4493 -1.0848 -0.3426
   81MOL   C11143471   4.979   6.572   4.989  0.0553  0.4601 -0.3982
   81MOL   C11243472   5.054   6.584   4.855  0.6778 -0.1114 -0.5304
   81MOL   C11343473   5.137   6.458   4.812 -0.1342  0.7341  0.3280
   81MOL   C11443474   5.238   6.490   4.702 -0.0787  0.0294  0.2043
   81MOL   O11543475   5.319   6.593   4.758  0.4356 -0.0111 -0.7968
   81MOL   C11643476   5.416   6.646   4.686  0.6790 -0.3327  0.1271
   81MOL   O11743477   5.456   6.608   4.574 -0.1384 -0.5989 -0.6946
   81MOL   C11843478   5.469   6.778   4.746 -0.2572  0.4141 -0.4861
   81MOL   C11943479   5.581   6.828   4.659  0.1315 -0.5829  0.1736
   81MOL   C12043480   5.354   6.876   4.771  0.2484 -0.2286 -0.3690
   81MOL   H12143481   5.036   6.564   5.213  0.0066  0.4344 -0.9796
   81MOL   H12243482   5.080   6.422   5.122  3.5680 -0.6918 -0.2567
   81MOL   H12343483   5.160   6.581   5.106 -0.4501  1.1284  2.4566
   81MOL   H12443484   4.892   6.506   4.982  0.3939  0.2615 -3.4310
   81MOL   H12543485   4.932   6.668   5.015 -1.4955 -0.4246  0.1304
   81MOL   H12643486   4.991   6.626   4.777 -2.0326 -0.3157  1.4590
   81MOL   H12743487   5.115   6.673   4.873  1.4064 -0.6538 -0.3276
   81MOL   H12843488   5.063   6.387   4.775  0.0115  1.1042 -0.6755
   81MOL   H12943489   5.188   6.405   4.893 -1.0862 -0.5750  0.0978
   81MOL   H13043490   5.301   6.409   4.666 -0.9856 -0.7411  0.3044
   81MOL   H13143491   5.193   6.524   4.609  2.1228  0.7789 -0.6149
   81MOL   H13243492   5.548   6.866   4.563 -1.9991  2.1485  1.9173
   81MOL   H13343493   5.630   6.911   4.708  1.1255 -1.0432 -0.0310
   81MOL   H13443494   5.654   6.750   4.638  1.4480  0.5028  0.7072
   81MOL   H13543495   5.291   6.835   4.850 -0.6876  1.2391 -0.3254
   81MOL   H13643496   5.402   6.951   4.835  3.4113 -2.4937  0.0181
   81MOL   C13743497   5.404   7.609   4.248 -0.1963 -0.0384 -0.3168
   81MOL   C13843498   5.323   7.491   4.193 -0.0841  0.5737 -0.0281
   81MOL   C13943499   5.394   7.357   4.223  0.5447  0.5455 -0.3379
   81MOL   C14043500   5.343   7.297   4.360 -0.1998 -0.1831 -0.5418
   81MOL   C14143501   5.404   7.154   4.370  0.8675  0.6724 -0.6196
   81MOL   O14243502   5.326   7.066   4.448 -0.2155 -0.3518  0.0198
   81MOL   C14343503   5.352   7.056   4.580  1.3336  0.0155  0.6946
   81MOL   O14443504   5.433   7.119   4.640 -0.0501 -0.0724  0.3820
   81MOL   C14543505   5.264   6.950   4.661 -0.3472 -0.3628  0.5696
   81MOL   C14643506   5.205   6.853   4.556  0.0093  0.0112  1.3140
   81MOL   C14743507   5.148   7.020   4.743 -0.1783 -0.5873  0.1197
   81MOL   H14843508   5.510   7.608   4.224  0.1225  0.4454  1.0423
   81MOL   H14943509   5.371   7.615   4.352 -1.7635  0.7319 -0.8446
   81MOL   H15043510   5.354   7.696   4.204 -1.3530 -1.5078 -1.9767
   81MOL   H15143511   5.325   7.501   4.084 -2.5813 -1.8420 -0.3442
   81MOL   H15243512   5.220   7.486   4.229  0.6500 -2.8673  1.8586
   81MOL   H15343513   5.382   7.289   4.139  1.3877  1.2984 -1.0785
   81MOL   H15443514   5.502   7.373   4.232  1.2631 -3.2336 -1.1064
   81MOL   H15543515   5.370   7.345   4.454  2.2431  0.0240 -1.3102
   81MOL   H15643516   5.234   7.291   4.349 -0.3524 -0.5708  1.0768
   81MOL   H15743517   5.500   7.160   4.421  0.8537  1.6438 -0.6890
   81MOL   H15843518   5.411   7.114   4.269 -1.2978  0.1992 -0.6095
   81MOL   H15943519   5.139   6.779   4.602 -1.7499 -0.3802 -1.7451
   81MOL   H16043520   5.284   6.799   4.505 -0.2576 -1.2707  2.2458
   81MOL   H16143521   5.140   6.896   4.480  0.6779 -2.4944 -0.7110
   81MOL   H16243522   5.123   6.948   4.821  0.7190 -1.3643 -0.3015
   81MOL   H16343523   5.193   7.104   4.796 -1.2315  1.4953 -2.2462
   81MOL   C16443524   4.693   6.636   4.126  0.8251 -0.0363 -0.1647
   81MOL   C16543525   4.788   6.739   4.181  0.3134  0.5739 -0.3327
   81MOL   C16643526   4.730   6.798   4.315  0.0960  0.1655  0.2664
   81MOL   C16743527   4.809   6.906   4.388  0.3260  0.9119 -0.0277
   81MOL   C16843528   4.738   6.953   4.514  0.1986  0.0177  0.3424
   81MOL   O16943529   4.819   7.040   4.601  0.6448 -0.7582 -0.2312
   81MOL   C17043530   4.918   6.986   4.670  0.1343  0.1921  0.6510
   81MOL   O17143531   4.921   6.865   4.696  0.2659  0.0308 -0.0857
   81MOL   C17243532   5.020   7.094   4.703 -0.0869 -0.5299  0.6509
   81MOL   C17343533   5.046   7.183   4.582  0.0428  0.2494  0.0782
   81MOL   C17443534   4.968   7.193   4.824  0.3668  0.1974 -0.1048
   81MOL   H17543535   4.615   6.695   4.078  0.8381 -0.2274 -0.4215
   81MOL   H17643536   4.649   6.565   4.196 -1.4156  1.9741  0.5361
   81MOL   H17743537   4.744   6.585   4.044  0.7019 -2.1508  1.0490
   81MOL   H17843538   4.798   6.827   4.117 -0.1901  2.2531  1.8163
   81MOL   H17943539   4.886   6.698   4.206 -1.0745 -1.2345  2.3509
   81MOL   H18043540   4.627   6.826   4.291 -0.2048 -0.0193  1.3115
   81MOL   H18143541   4.725   6.719   4.390  2.0583  1.3070  1.6388
   81MOL   H18243542   4.840   6.991   4.326  1.5648 -0.4045 -1.2384
   81MOL   H18343543   4.903   6.856   4.411 -0.0488  0.5146  0.6385
   81MOL   H18443544   4.698   6.876   4.580  0.7885 -0.3340  0.2851
   81MOL   H18543545   4.649   7.000   4.473  1.1682  1.6810  0.0567
   81MOL   H18643546   5.054   7.130   4.487  1.3419  2.4156 -1.0700
   81MOL   H18743547   5.138   7.240   4.598  2.1222 -3.0416  0.1567
   81MOL   H18843548   4.974   7.264   4.569 -0.3030 -0.3767 -2.0905
   81MOL   H18943549   5.024   7.287   4.829 -0.3169  0.4979  2.7761
   81MOL   H19043550   4.875   7.234   4.783 -0.1394  0.4598  1.2852
   81MOL   C19143551   5.634   7.156   5.408  0.1180 -0.1347  0.5567
   81MOL   C19243552   5.495   7.146   5.350 -0.1440  0.4906 -1.1036
   81MOL   C19343553   5.462   7.283   5.271  0.3144  0.5264 -0.0575
   81MOL   C19443554   5.326   7.299   5.193 -0.7261  0.6542  0.1793
   81MOL   C19543555   5.317   7.202   5.070  0.0441 -0.3599 -0.1751
   81MOL   O19643556   5.181   7.225   5.015 -0.7510  0.0972 -0.2002
   81MOL   C19743557   5.084   7.129   5.041  0.3937  0.5965  0.4823
   81MOL   O19843558   5.115   7.025   5.104  0.5026 -0.3018 -0.1099
   81MOL   C19943559   4.946   7.155   4.975  0.2191 -0.9034 -0.7717
   81MOL   C20043560   4.850   7.030   4.983  1.0511  0.1119 -0.0593
   81MOL   C20143561   4.889   7.281   5.057  0.3806  0.9375 -0.2529
   81MOL   H20243562   5.632   7.240   5.477  0.4987  0.8555 -0.6039
   81MOL   H20343563   5.676   7.069   5.457 -0.3008 -0.8954 -0.4085
   81MOL   H20443564   5.701   7.172   5.323 -0.3030 -3.7724 -0.5535
   81MOL   H20543565   5.431   7.123   5.435  0.7607  0.2814 -0.4841
   81MOL   H20643566   5.485   7.060   5.284  0.1027  1.6606 -2.6993
   81MOL   H20743567   5.533   7.290   5.189 -1.3051  1.6131 -1.4110
   81MOL   H20843568   5.458   7.364   5.344  2.6234  0.0967  0.5781
   81MOL   H20943569   5.246   7.284   5.266 -0.1043 -2.7688  0.2118
   81MOL   H21043570   5.314   7.403   5.164 -3.1075 -0.2520 -2.3140
   81MOL   H21143571   5.396   7.238   5.004 -0.2330  1.5487  0.5172
   81MOL   H21243572   5.334   7.098   5.098 -3.5394 -0.6675  1.1585
   81MOL   H21343573   4.902   6.941   4.948 -0.4552  0.1382 -2.4896
   81MOL   H21443574   4.746   7.035   4.952  0.7422 -1.2099  0.6978
   81MOL   H21543575   4.845   7.003   5.088  2.5358 -0.4197 -0.1094
   81MOL   H21643576   4.810   7.325   4.996  1.4831 -0.4318 -2.7558
   81MOL   H21743577   4.967   7.356   5.048  0.2581  0.9980 -0.8540
   81MOL   C21843578   4.115   7.035   4.884  0.0129 -0.8410  0.6322
   81MOL   C21943579   4.239   7.128   4.880 -0.4592  0.6839 -0.3083
   81MOL   C22043580   4.280   7.172   5.015  0.6596 -0.2938 -0.7262
   81MOL   C22143581   4.433   7.201   5.028  0.2526  0.3066  0.7762
   81MOL   C22243582   4.458   7.277   5.160 -0.5524 -0.1619 -0.2421
   81MOL   O22343583   4.597   7.316   5.169 -0.0327 -0.2380  0.0138
   81MOL   C22443584   4.690   7.225   5.198  0.1139  0.3255 -0.1346
   81MOL   O22543585   4.672   7.107   5.211  0.1471  0.3864  0.2463
   81MOL   C22643586   4.836   7.280   5.211  0.2802 -0.8737  0.2679
   81MOL   C22743587   4.835   7.436   5.254  0.5795 -0.2962 -0.0401
   81MOL   C22843588   4.922   7.208   5.311  0.6051  0.4844  0.2073
   81MOL   H22943589   4.027   7.092   4.915 -0.3524 -1.6171  1.0372
   81MOL   H23043590   4.091   6.994   4.786 -1.4297  2.7151 -0.5557
   81MOL   H23143591   4.131   6.951   4.952 -1.4341 -0.2884  1.6801
   81MOL   H23243592   4.220   7.213   4.815  2.4238  3.1514  1.9361
   81MOL   H23343593   4.323   7.073   4.837  0.4499  1.4482  0.4673
   81MOL   H23443594   4.240   7.107   5.094  1.9198  0.1682  0.3060
   81MOL   H23543595   4.221   7.262   5.035  1.4521  0.4932 -1.8585
   81MOL   H23643596   4.500   7.118   5.006  0.9678  0.7734  1.1688
   81MOL   H23743597   4.466   7.274   4.954  2.1446  1.4426  2.6939
   81MOL   H23843598   4.437   7.210   5.244 -0.2480 -0.0237 -0.0549
   81MOL   H23943599   4.396   7.366   5.161  0.0583  0.2632  1.3653
   81MOL   H24043600   4.812   7.506   5.173 -2.1181 -1.2456 -0.1425
   81MOL   H24143601   4.925   7.479   5.296  0.2043  1.0525 -0.5819
   81MOL   H24243602   4.760   7.443   5.334  1.2844  0.3918  0.5695
   81MOL   H24343603   5.023   7.241   5.285  1.1780 -1.3874 -0.0358
   81MOL   H24443604   4.924   7.107   5.269 -0.8252 -0.1744  1.6770
   81MOL   C24543605   5.228   7.703   6.077  0.3470 -0.4601  0.1646
   81MOL   C24643606   5.236   7.583   5.976 -0.1933  0.1941  0.0413
   81MOL   C24743607   5.172   7.613   5.838  0.6059 -0.2600 -0.0263
   81MOL   C24843608   5.153   7.477   5.753  0.0507 -0.4300 -0.4125
   81MOL   C24943609   5.088   7.502   5.616  0.1391 -0.0805 -0.4933
   81MOL   O25043610   5.054   7.381   5.542 -0.3174  0.0034  0.1012
   81MOL   C25143611   4.930   7.335   5.542 -0.5580  0.5593 -0.4863
   81MOL   O25243612   4.831   7.394   5.589 -0.1828 -0.0166  0.7088
   81MOL   C25343613   4.911   7.196   5.471 -0.1828 -0.4035  0.4305
   81MOL   C25443614   5.037   7.114   5.511  0.0897 -0.4372 -0.5319
   81MOL   C25543615   4.780   7.118   5.503  0.1004 -0.2369  0.0666
   81MOL   H25643616   5.285   7.785   6.034 -0.2514 -0.6603 -1.0134
   81MOL   H25743617   5.128   7.737   6.106  0.3647 -1.7838  1.9165
   81MOL   H25843618   5.275   7.661   6.166  0.3874  0.3858  0.5485
   81MOL   H25943619   5.340   7.560   5.954 -0.1255 -0.5995  1.1782
   81MOL   H26043620   5.179   7.499   6.016 -1.3092 -0.2250 -2.3621
   81MOL   H26143621   5.253   7.658   5.781  1.4618 -0.6705  0.8457
   81MOL   H26243622   5.078   7.668   5.839  0.9228  0.2933 -0.1054
   81MOL   H26343623   5.251   7.431   5.743  1.2061  1.7355  0.5439
   81MOL   H26443624   5.096   7.406   5.813 -0.3532  0.6831  0.5418
   81MOL   H26543625   5.003   7.570   5.622  0.2581  0.1150 -1.0422
   81MOL   H26643626   5.153   7.549   5.542  1.2034 -0.7442  0.0046
   81MOL   H26743627   5.118   7.142   5.444  1.0166  1.4306  1.3302
   81MOL   H26843628   5.063   7.144   5.613 -1.5466  1.8015 -0.7421
   81MOL   H26943629   5.027   7.005   5.506 -0.4686 -0.3807 -0.7445
   81MOL   H27043630   4.707   7.197   5.490 -1.1885 -1.1361  1.5976
   81MOL   H27143631   4.763   7.040   5.429 -0.1062 -1.3948  1.3000
   81MOL   C27243632   4.649   6.401   5.197  0.0961 -0.2342  0.1024
   81MOL   C27343633   4.630   6.433   5.340  0.2427 -0.0857  0.1279
   81MOL   C27443634   4.705   6.559   5.381 -0.8711 -0.5045  0.4529
   81MOL   C27543635   4.718   6.577   5.535 -0.0553 -0.1930 -0.2256
   81MOL   C27643636   4.822   6.691   5.572 -0.0271  0.3147  0.3913
   81MOL   O27743637   4.762   6.821   5.568  0.0360 -0.2379  0.2420
   81MOL   C27843638   4.816   6.918   5.647 -0.3679 -0.2454  0.1265
   81MOL   O27943639   4.919   6.904   5.714  0.3078  0.1296 -0.5450
   81MOL   C28043640   4.740   7.052   5.638  0.1804  0.4763 -0.1783
   81MOL   C28143641   4.778   7.144   5.755  0.0916  0.7409  0.1846
   81MOL   C28243642   4.586   7.020   5.630  0.0385 -0.4952  0.2482
   81MOL   H28343643   4.594   6.467   5.129 -2.5052 -1.2602  1.1418
   81MOL   H28443644   4.753   6.422   5.171  0.2525 -1.6263 -0.4327
   81MOL   H28543645   4.629   6.297   5.173 -2.6552  0.4758 -0.8697
   81MOL   H28643646   4.521   6.437   5.344  0.2058 -0.6487 -0.1920
   81MOL   H28743647   4.663   6.345   5.396  2.0927 -0.4329 -1.5003
   81MOL   H28843648   4.811   6.556   5.354 -0.4593  1.4965  1.7167
   81MOL   H28943649   4.655   6.644   5.334 -0.3982  0.4012  1.5574
   81MOL   H29043650   4.616   6.597   5.567 -0.1095  0.1897 -0.6319
   81MOL   H29143651   4.756   6.487   5.583 -1.5539 -0.3194  0.7615
   81MOL   H29243652   4.905   6.693   5.502  0.4807 -0.7949  0.9608
   81MOL   H29343653   4.862   6.673   5.672 -0.6920  0.5950  0.7147
   81MOL   H29443654   4.750   7.096   5.849  1.1437  0.8410  0.5530
   81MOL   H29543655   4.886   7.162   5.752  0.3445 -0.6627  0.4109
   81MOL   H29643656   4.738   7.245   5.755  0.2252  0.8145  2.0949
   81MOL   H29743657   4.538   7.112   5.596  0.6513 -0.5675 -0.8520
   81MOL   H29843658   4.561   6.971   5.536 -1.1520 -1.5580  1.1137
   81MOL   C29943659   4.023   7.367   5.347  0.4523 -0.5741  0.7021
   81MOL   C30043660   4.089   7.233   5.317 -0.6523 -0.0290  0.0775
   81MOL   C30143661   4.105   7.142   5.435 -0.2593  0.4787  0.3682
   81MOL   C30243662   4.175   7.013   5.386 -0.6986 -0.1479 -0.0774
   81MOL   C30343663   4.215   6.917   5.502 -0.4836 -0.3367  0.2717
   81MOL   O30443664   4.332   6.960   5.563 -0.1241  0.9708  0.0113
   81MOL   C30543665   4.372   6.882   5.670 -0.2230  0.4801 -0.0031
   81MOL   O30643666   4.335   6.769   5.704 -0.8637  0.0476  0.4959
   81MOL   C30743667   4.488   6.960   5.738 -0.3312  0.2634  0.5371
   81MOL   C30843668   4.559   6.860   5.836  0.3995  0.2249 -0.5273
   81MOL   C30943669   4.433   7.083   5.810  0.8389 -0.2032 -0.2967
   81MOL   H31043670   4.011   7.418   5.251  3.1476  2.7578  2.0518
   81MOL   H31143671   4.087   7.432   5.407  0.4426  0.9624 -0.8874
   81MOL   H31243672   3.923   7.358   5.388 -0.1005 -2.6166 -0.9910
   81MOL   H31343673   4.186   7.242   5.268 -1.3241  0.0709 -1.2508
   81MOL   H31443674   4.018   7.179   5.254 -3.3157  0.4949  2.5223
   81MOL   H31543675   4.012   7.112   5.484  0.0758  1.9461  1.9333
   81MOL   H31643676   4.157   7.195   5.514 -0.1040  1.1399 -0.1771
   81MOL   H31743677   4.261   7.022   5.320  0.5777  0.3870  1.6022
   81MOL   H31843678   4.101   6.965   5.323 -1.0302 -0.0781  0.2550
   81MOL   H31943679   4.133   6.933   5.572 -2.1831 -0.5689 -1.6419
   81MOL   H32043680   4.216   6.814   5.469  0.2059 -0.4450  0.6179
   81MOL   H32143681   4.489   6.801   5.894  0.5780 -2.0074 -2.4863
   81MOL   H32243682   4.612   6.776   5.791  2.5425  0.8053  0.8492
   81MOL   H32343683   4.627   6.923   5.894 -0.3384  2.1535 -1.7065
   81MOL   H32443684   4.380   7.133   5.729 -0.8456 -1.3624  0.0624
   81MOL   H32543685   4.516   7.152   5.821  1.8616 -0.9811 -2.7538
   81MOL   C32643686   4.426   6.451   6.125 -0.0648  0.5631  0.0242
   81MOL   C32743687   4.284   6.442   6.065 -0.1224 -0.3891  0.3250
   81MOL   C32843688   4.237   6.580   6.015  0.1073 -1.0670 -0.5880
   81MOL   C32943689   4.212   6.679   6.132  0.1257 -0.0031  0.3894
   81MOL   C33043690   4.147   6.811   6.090 -0.2867 -0.3181  0.3004
   81MOL   O33143691   4.251   6.895   6.042 -0.1276  0.2246  0.2310
   81MOL   C33243692   4.232   6.983   5.947  0.0244 -0.5214 -0.4056
   81MOL   O33343693   4.131   6.989   5.875 -0.1215  0.1222  0.3180
   81MOL   C33443694   4.341   7.093   5.944 -0.2858 -0.0667 -0.5597
   81MOL   C33543695   4.438   7.074   6.065  0.3648  0.2843  0.0698
   81MOL   C33643696   4.266   7.229   5.930  0.6252  0.2598 -0.3900
   81MOL   H33743697   4.499   6.501   6.061 -1.3067  2.8872  0.3597
   81MOL   H33843698   4.464   6.350   6.137 -0.8941  0.0852 -1.3079
   81MOL   H33943699   4.420   6.487   6.228 -0.6640  0.1510  0.1376
   81MOL   H34043700   4.215   6.397   6.137 -0.3468  0.6856  0.7927
   81MOL   H34143701   4.290   6.373   5.981  0.8324 -2.6880  2.2509
   81MOL   H34243702   4.146   6.565   5.956  0.7014  1.1794 -2.1211
   81MOL   H34343703   4.315   6.622   5.952 -1.1312 -2.3228 -3.0418
   81MOL   H34443704   4.299   6.683   6.197  0.0894 -3.5740  0.7741
   81MOL   H34543705   4.138   6.636   6.199  0.2639  1.7549  1.6908
   81MOL   H34643706   4.107   6.861   6.178  1.8948  2.3587 -0.1412
   81MOL   H34743707   4.072   6.795   6.012 -0.5226 -0.9504  0.6620
   81MOL   H34843708   4.513   7.153   6.054  0.9417 -0.1003  1.1709
   81MOL   H34943709   4.488   6.977   6.064  1.0805  0.6405  0.6491
   81MOL   H35043710   4.387   7.092   6.160  0.0389  1.3285 -0.2953
   81MOL   H35143711   4.179   7.235   5.864  0.8337  1.5018 -0.5730
   81MOL   H35243712   4.339   7.296   5.883 -0.0325  0.5308 -1.0208
   81MOL   C35343713   4.935   7.322   6.123  0.4834 -0.1472 -0.0289
   81MOL   C35443714   4.792   7.277   6.122 -0.4462 -0.8418  0.5985
   81MOL   C35543715   4.720   7.371   6.019  0.1241  0.1287 -0.2994
   81MOL   C35643716   4.637   7.489   6.076  0.7994  0.5250 -0.3062
   81MOL   C35743717   4.515   7.466   6.171  0.0391  0.0204 -0.1787
   81MOL   O35843718   4.418   7.398   6.095 -0.2966 -0.1466  0.4149
   81MOL   C35943719   4.300   7.357   6.155  0.1478 -1.0187  0.4719
   81MOL   O36043720   4.286   7.359   6.278 -0.5425 -0.5194  0.3488
   81MOL   C36143721   4.203   7.300   6.058  0.3252 -0.5642 -0.8448
   81MOL   C36243722   4.125   7.187   6.130 -0.3625 -0.4215 -0.1218
   81MOL   C36343723   4.092   7.398   6.008  0.0227 -0.2173  0.8537
   81MOL   H36443724   4.973   7.292   6.025 -0.6351 -1.5672 -0.0553
   81MOL   H36543725   4.993   7.263   6.193  1.3569 -2.7367 -2.8271
   81MOL   H36643726   4.957   7.427   6.142 -3.4163  0.7107  0.0854
   81MOL   H36743727   4.779   7.175   6.085  1.2220 -0.4620 -1.1465
   81MOL   H36843728   4.747   7.278   6.221 -0.3049  0.2513  0.6519
   81MOL   H36943729   4.649   7.309   5.963 -0.3140 -0.5935  1.0451
   81MOL   H37043730   4.795   7.404   5.947  0.7809 -0.1357  0.2692
   81MOL   H37143731   4.612   7.553   5.992  1.9950  1.3072 -0.0836
   81MOL   H37243732   4.701   7.560   6.129  1.0090 -0.8624  1.3773
   81MOL   H37343733   4.551   7.406   6.255  1.7191 -0.6298 -1.3322
   81MOL   H37443734   4.479   7.557   6.219  0.6613  0.4416 -0.5035
   81MOL   H37543735   4.185   7.111   6.178  2.6376  2.2273  0.4740
   81MOL   H37643736   4.058   7.227   6.207 -2.0799 -1.2075 -1.1675
   81MOL   H37743737   4.047   7.149   6.064 -3.0823  0.7610  2.2664
   81MOL   H37843738   4.034   7.357   5.925  1.0757  1.7602 -0.9294
   81MOL   H37943739   4.017   7.401   6.087  0.2459  1.7277  1.0345
   81MOL   C38043740   3.679   0.160   6.306  0.1367 -0.0441 -0.6276
   81MOL   C38143741   3.772   0.082   6.407  0.7596 -0.0895 -0.1083
   81MOL   C38243742   3.886   0.009   6.331  0.0627 -0.8676  0.4137
   81MOL   C38343743   3.975   7.724   6.419  0.2454  0.1437  0.3080
   81MOL   C38443744   4.098   7.670   6.347 -0.6263  0.2878  0.5729
   81MOL   O38543745   4.064   7.606   6.223  0.0270 -0.2422  0.2087
   81MOL   C38643746   4.156   7.628   6.119  0.0621  0.7255 -0.2093
   81MOL   O38743747   4.256   7.699   6.123 -0.3009  0.0308 -0.8742
   81MOL   C38843748   4.110   7.560   5.985 -0.1585  0.4039 -0.2499
   81MOL   C38943749   4.216   7.569   5.874  1.0234 -0.4776  0.2731
   81MOL   C39043750   3.966   7.619   5.940  0.4250 -0.0687  0.4492
   81MOL   H39143751   3.640   0.086   6.236  2.7679  1.2451 -3.5689
   81MOL   H39243752   3.603   0.218   6.357  2.2402  2.5169 -0.2867
   81MOL   H39343753   3.737   0.225   6.240  0.4803 -0.9754 -1.2461
   81MOL   H39443754   3.706   0.009   6.451 -1.1142  0.7443 -1.4596
   81MOL   H39543755   3.817   0.149   6.480  1.2027 -0.0845 -0.3817
   81MOL   H39643756   3.846   7.754   6.256 -2.0253  0.8334 -0.1040
   81MOL   H39743757   3.944   0.083   6.276  1.7559 -2.2419  0.3062
   81MOL   H39843758   4.007   7.782   6.505 -0.9299 -0.1698  0.9671
   81MOL   H39943759   3.919   7.637   6.454  1.4858 -1.2485 -1.0818
   81MOL   H40043760   4.136   7.592   6.415 -0.6734 -0.1051  0.1490
   81MOL   H40143761   4.165   7.755   6.337  0.8130 -0.9591 -0.7110
   81MOL   H40243762   4.231   7.672   5.843 -0.0512  0.0835  1.5862
   81MOL   H40343763   4.194   7.508   5.786  0.7319 -0.6865  0.4879
   81MOL   H40443764   4.313   7.543   5.915  1.3883  1.3822  0.6461
   81MOL   H40543765   3.893   7.600   6.018  0.1198 -1.7358 -0.2303
   81MOL   H40643766   3.935   7.545   5.866  0.4894  0.2905  0.0605
   81MOL   C40743767   3.150   0.013   5.759  0.3300  0.0850 -0.2644
   81MOL   C40843768   3.303   0.037   5.777  0.1665 -0.3845  0.0840
   81MOL   C40943769   3.374   7.779   5.657  0.1062 -0.3753 -0.0375
   81MOL   C41043770   3.528   7.788   5.678  0.0059 -0.5559  0.8021
   81MOL   C41143771   3.582   7.714   5.801 -0.1253 -0.3617  0.1946
   81MOL   O41243772   3.722   7.690   5.817  0.4383 -0.0981 -0.0314
   81MOL   C41343773   3.797   7.789   5.879  0.2171 -0.4097 -0.1036
   81MOL   O41443774   3.750   0.080   5.927 -0.4904  0.3686  0.6769
   81MOL   C41543775   3.945   7.758   5.873 -0.2217  1.3690 -0.1696
   81MOL   C41643776   4.018   0.055   5.959  0.8794  0.0600 -0.3597
   81MOL   C41743777   3.986   7.753   5.720  0.1015 -0.3908 -0.6144
   81MOL   H41843778   3.095   0.052   5.844 -2.7338 -0.4721 -1.9303
   81MOL   H41943779   3.121   0.060   5.665 -1.6226  0.3041  0.4398
   81MOL   H42043780   3.129   7.720   5.750  0.5219  0.0207  0.0267
   81MOL   H42143781   3.341   0.007   5.874  2.7152  0.0526 -0.7552
   81MOL   H42243782   3.332   0.142   5.777  0.1836 -0.3874 -0.2063
   81MOL   H42343783   3.357   7.673   5.645  1.1914 -0.4195 -1.3651
   81MOL   H42443784   3.352   0.004   5.557  1.7380 -1.3354 -0.7881
   81MOL   H42543785   3.557   0.078   5.687 -0.9061 -0.2511  0.2742
   81MOL   H42643786   3.583   7.755   5.590  2.1123  1.2013  1.4164
   81MOL   H42743787   3.542   7.762   5.890 -0.1501  1.8865 -1.0126
   81MOL   H42843788   3.520   7.625   5.790  0.8531 -1.0791  0.4098
   81MOL   H42943789   3.986   0.152   5.921  0.5579 -0.0665 -0.4154
   81MOL   H43043790   4.127   0.050   5.962  1.0095  0.7323 -2.6796
   81MOL   H43143791   3.977   0.044   6.059  0.4000 -0.1447 -0.5730
   81MOL   H43243792   3.913   7.687   5.674  1.0062 -1.7744 -0.1028
   81MOL   H43343793   4.079   7.699   5.701 -0.5895 -1.7105 -0.3661
   81MOL   C43443794   4.743   7.711   5.695 -0.1938  0.2731 -0.2791
   81MOL   C43543795   4.725   0.029   5.763  0.2082 -0.3145 -0.3486
   81MOL   C43643796   4.584   0.071   5.808 -0.2013 -0.2037  0.1952
   81MOL   C43743797   4.464   0.050   5.709  0.2292  0.5568 -0.3812
   81MOL   C43843798   4.348   0.128   5.751  0.2715  0.4814  0.4243
   81MOL   O43943799   4.233   0.083   5.684 -0.4539 -0.2930 -0.4556
   81MOL   C44043800   4.123   0.151   5.675 -0.6911  0.6387  0.7804
   81MOL   O44143801   4.110   0.271   5.699 -0.3580  0.2699 -0.0078
   81MOL   C44243802   4.003   0.064   5.630 -0.3125  0.4573  0.5135
   81MOL   C44343803   3.877   0.161   5.640  0.1351  0.5435  0.0691
   81MOL   C44443804   4.044   0.022   5.483 -0.3930  0.0269  0.5686
   81MOL   H44543805   4.711   7.706   5.591  1.1067  0.7798 -0.7161
   81MOL   H44643806   4.850   7.690   5.689 -0.4094 -0.2029 -2.7540
   81MOL   H44743807   4.696   7.623   5.740  1.2985  1.0680  2.9856
   81MOL   H44843808   4.775   0.037   5.859  0.5418  0.7904 -0.6056
   81MOL   H44943809   4.771   0.109   5.705 -1.3395 -0.3778 -1.7250
   81MOL   H45043810   4.558   0.024   5.903 -0.8034 -1.3559 -0.5314
   81MOL   H45143811   4.583   0.178   5.828 -2.2491 -0.1412 -0.1806
   81MOL   H45243812   4.434   7.760   5.699 -1.4814  0.8583  1.2261
   81MOL   H45343813   4.496   0.089   5.613 -0.7020  2.3691  0.0127
   81MOL   H45443814   4.374   0.231   5.726  0.1964  0.6375  0.9691
   81MOL   H45543815   4.333   0.128   5.859  1.0964  1.6844  0.5453
   81MOL   H45643816   3.785   0.109   5.611 -0.0528  0.9759 -0.1116
   81MOL   H45743817   3.863   0.211   5.735 -2.0801  0.1386 -0.0036
   81MOL   H45843818   3.887   0.231   5.557  1.4169 -0.1596 -0.3796
   81MOL   H45943819   4.110   7.750   5.488 -1.3453 -0.9682 -2.9068
   81MOL   H46043820   4.115   0.095   5.443  2.0043 -0.5799  3.5306
   81MOL   C46143821   3.986   0.666   4.967  0.1684 -0.1497 -0.9655
   81MOL   C46243822   3.941   0.692   5.112  0.4618 -0.4978 -0.2278
   81MOL   C46343823   3.868   0.570   5.174  0.7924  0.0902  0.3693
   81MOL   C46443824   3.948   0.458   5.242 -0.0010 -0.1205  0.0806
   81MOL   C46543825   3.857   0.343   5.289  0.4069 -0.8158  0.0187
   81MOL   O46643826   3.930   0.229   5.313 -0.2232  0.1898  0.0715
   81MOL   C46743827   3.854   0.115   5.336 -0.3216 -0.6986  0.2324
   81MOL   O46843828   3.735   0.116   5.335  1.0316 -1.0424  0.1673
   81MOL   C46943829   3.941   7.809   5.368  0.2615  0.3986  0.2209
   81MOL   C47043830   3.849   7.692   5.411 -0.1323 -0.7870 -0.3079
   81MOL   C47143831   4.026   7.761   5.238 -0.4314 -0.1628  0.5008
   81MOL   H47243832   4.035   0.751   4.918  1.0141  0.6031  1.1425
   81MOL   H47343833   3.895   0.637   4.914  0.0473 -1.9350  0.2125
   81MOL   H47443834   4.060   0.587   4.954 -0.8348 -0.9295 -2.0247
   81MOL   H47543835   3.878   0.780   5.116  2.5121  1.0153 -0.6958
   81MOL   H47643836   4.023   0.718   5.179  0.7077  0.6782 -0.9844
   81MOL   H47743837   3.825   0.521   5.086  2.1579 -2.0726  0.8605
   81MOL   H47843838   3.786   0.605   5.236  0.7211 -0.4085  0.5645
   81MOL   H47943839   4.024   0.490   5.313 -1.1920  0.7785  0.9568
   81MOL   H48043840   4.014   0.423   5.162 -0.7176 -0.3126 -0.4348
   81MOL   H48143841   3.793   0.367   5.374 -0.0225  0.3254 -0.6106
   81MOL   H48243842   3.790   0.324   5.206 -0.3633 -0.5939  0.5881
   81MOL   H48343843   3.901   7.599   5.434 -1.1793 -0.8642  1.7858
   81MOL   H48443844   3.759   7.666   5.355 -0.1823 -1.6753  0.1863
   81MOL   H48543845   3.806   7.728   5.504  0.6178 -0.2576 -0.1627
   81MOL   H48643846   4.082   7.677   5.277 -2.4377 -1.8754 -0.2505
   81MOL   H48743847   4.097   0.028   5.215 -0.0641 -1.0227 -1.5090
   81MOL   C48843848   3.918   0.514   4.548 -0.4180  0.0285  0.9259
   81MOL   C48943849   3.920   0.378   4.627 -0.6018 -0.3953  0.0854
   81MOL   C49043850   4.064   0.347   4.678  0.6208 -0.2759  0.8823
   81MOL   C49143851   4.079   0.224   4.764 -0.2682  0.0158 -0.7259
   81MOL   C49243852   4.064   0.253   4.921 -0.4277  0.7357  0.5440
   81MOL   O49343853   4.070   0.126   4.993  0.7192  0.7052  0.5273
   81MOL   C49443854   3.953   0.063   5.026  0.4543  0.2764  0.1156
   81MOL   O49543855   3.843   0.114   5.008  0.3783  0.1253 -0.3295
   81MOL   C49643856   3.974   7.736   5.094 -0.1194  0.5957  0.0834
   81MOL   C49743857   3.843   7.659   5.099 -0.2055 -1.6643 -0.2264
   81MOL   C49843858   4.097   7.648   5.025  0.1542 -0.8163  0.2529
   81MOL   H49943859   3.822   0.537   4.501 -1.1409  0.6739  2.6818
   81MOL   H50043860   3.948   0.603   4.603  1.2914  0.0028  0.0788
   81MOL   H50143861   3.978   0.502   4.458 -1.7686  1.3012 -0.1708
   81MOL   H50243862   3.879   0.305   4.558  2.5179 -1.9274 -0.2134
   81MOL   H50343863   3.846   0.390   4.707 -0.2273 -2.3815  0.7588
   81MOL   H50443864   4.121   0.319   4.590 -2.4023 -0.1489 -1.2041
   81MOL   H50543865   4.125   0.432   4.709  0.1501  1.5016 -2.8124
   81MOL   H50643866   4.177   0.180   4.748 -0.8649 -0.8225 -2.1379
   81MOL   H50743867   4.003   0.156   4.726 -0.2933  0.2262 -1.0500
   81MOL   H50843868   4.151   0.312   4.953 -0.6659  2.0873 -1.2602
   81MOL   H50943869   3.986   0.321   4.956  0.4963  2.4150 -0.6092
   81MOL   H51043870   3.787   7.674   5.006 -0.8437  0.1213  0.4118
   81MOL   H51143871   3.763   7.703   5.159  0.7479  0.8034 -0.7019
   81MOL   H51243872   3.846   7.553   5.124  0.8804 -2.1861 -2.4347
   81MOL   H51343873   4.141   7.578   5.096 -0.6652 -0.8532  0.7359
   81MOL   H51443874   4.174   7.723   5.009 -0.6894 -0.1674 -0.8630
   81MOL   C51543875   3.945   6.994   4.541 -0.4695  0.0230 -0.1570
   81MOL   C51643876   4.003   7.137   4.529 -0.4051 -0.3990 -0.5550
   81MOL   C51743877   3.891   7.249   4.504 -0.3039 -0.5929 -0.3184
   81MOL   C51843878   3.793   7.266   4.624  0.0080  0.1153  0.0058
   81MOL   C51943879   3.864   7.304   4.759 -0.2355  0.4487  0.0740
   81MOL   O52043880   3.940   7.422   4.773  0.5545 -0.7486  0.0898
   81MOL   C52143881   3.991   7.448   4.891  0.4115  0.6128 -0.1992
   81MOL   O52243882   3.985   7.374   4.988 -0.5238  0.9537 -0.1849
   81MOL   C52343883   4.087   7.569   4.883  0.2915  0.4781  0.3037
   81MOL   C52443884   4.220   7.523   4.841 -0.2307  0.0906  0.1357
   81MOL   C52543885   4.031   7.670   4.777 -0.5416 -0.1369 -0.6369
   81MOL   H52643886   3.882   6.980   4.453  0.1206 -1.5865 -0.3379
   81MOL   H52743887   4.023   6.919   4.553 -0.1584  0.4153  0.2705
   81MOL   H52843888   3.885   6.990   4.632 -0.2750 -3.3777 -0.1200
   81MOL   H52943889   4.066   7.169   4.612 -0.8250  0.9417 -0.7451
   81MOL   H53043890   4.069   7.154   4.444 -0.1678  0.0201 -0.2867
   81MOL   H53143891   3.947   7.341   4.488  0.6889 -1.0720  0.3718
   81MOL   H53243892   3.837   7.220   4.414 -0.0870 -1.8934 -0.0371
   81MOL   H53343893   3.730   7.178   4.634 -3.2895  2.4915  0.8592
   81MOL   H53443894   3.732   7.351   4.594  0.5908 -0.0585 -1.7298
   81MOL   H53543895   3.780   7.316   4.828 -1.2590  0.4125 -1.1500
   81MOL   H53643896   3.925   7.223   4.798  1.8211  1.4720 -0.9510
   81MOL   H53743897   4.283   7.604   4.805  0.4998 -0.7181 -0.4382
   81MOL   H53843898   4.212   7.445   4.765  0.1995 -0.7810  0.9693
   81MOL   H53943899   4.273   7.478   4.926 -1.5670  0.0693  0.9750
   81MOL   H54043900   4.096   7.757   4.772 -0.8566  0.1988  0.8398
   81MOL   H54143901   3.929   7.704   4.797 -0.8821 -0.5481 -1.6232
   81MOL   H54243902   4.030   7.646   4.671  3.8782  2.1379 -1.3176
   82MOL     C143903   0.307   0.360   2.130  0.0364 -0.0412 -0.3569
   82MOL     C243904   0.361   0.338   2.274  0.1631  0.0123 -0.3212
   82MOL     C343905   0.255   0.319   2.382 -0.0442  0.0447  0.9778
   82MOL     C443906   0.309   0.270   2.514 -0.2203 -0.0823  1.0358
   82MOL     C543907   0.194   0.230   2.606  0.4020 -0.3549  0.1886
   82MOL     O643908   0.111   0.127   2.554  0.0710  0.8175 -0.2951
   82MOL     C743909   7.813   0.099   2.608  0.2924 -0.3440 -0.1063
   82MOL     O843910   7.767   0.152   2.710 -0.5676 -0.4927  0.0671
   82MOL     C943911   7.746   7.791   2.547 -0.4235 -0.5934  0.0738
   82MOL    C1043912   0.018   7.660   2.573  0.2560 -0.4732  0.6358
   82MOL    C1143913   7.716   7.792   2.393  0.5069  0.2862 -0.9327
   82MOL    H1243914   0.212   0.412   2.119 -0.2315 -0.3908  0.2482
   82MOL    H1343915   0.273   0.263   2.094 -0.1261  0.2232 -0.9173
   82MOL    H1443916   0.382   0.388   2.056 -1.5830 -1.6160 -2.6568
   82MOL    H1543917   0.428   0.253   2.266 -0.1023 -0.1886 -0.4168
   82MOL    H1643918   0.428   0.419   2.304  0.3904 -0.6071  0.8717
   82MOL    H1743919   0.193   0.409   2.386  3.1503  2.3627 -0.1613
   82MOL    H1843920   0.194   0.235   2.347 -0.2888  0.3021  0.7795
   82MOL    H1943921   0.375   0.345   2.557 -1.0930  0.6695  1.0662
   82MOL    H2043922   0.373   0.182   2.501 -0.0203 -0.1197  2.2576
   82MOL    H2143923   0.230   0.209   2.707  0.3522 -2.1940 -0.1465
   82MOL    H2243924   0.130   0.318   2.611  0.0556 -0.7000  2.1285
   82MOL    H2343925   7.768   7.577   2.601  0.1836 -0.5199  0.3301
   82MOL    H2443926   0.090   7.681   2.652 -0.0605  2.3099  0.2311
   82MOL    H2543927   0.080   7.642   2.485 -2.2193  1.8003 -1.6762
   82MOL    H2643928   7.750   7.699   2.348  3.6337  0.8079  0.2462
   82MOL    H2743929   7.800   0.035   2.353  1.3216  0.3706  0.8847
   82MOL    H2843930   7.658   7.772   2.609  1.4918 -0.0764  3.0695
   82MOL    C2943931   7.140   0.651   2.709 -0.2066 -0.1187 -0.7451
   82MOL    C3043932   7.257   0.556   2.692 -0.0601  0.4667  0.4449
   82MOL    C3143933   7.287   0.516   2.552  0.1199  0.3423  0.0232
   82MOL    C3243934   7.343   0.372   2.552 -0.0832  0.2106 -0.5140
   82MOL    C3343935   7.345   0.319   2.408 -0.1013 -0.1911  1.1494
   82MOL    O3443936   7.395   0.187   2.383  0.2789 -0.0294 -0.0059
   82MOL    C3543937   7.528   0.158   2.391  0.0687 -0.4080 -0.2392
   82MOL    O3643938   7.615   0.227   2.442  0.1800  0.2935  0.0560
   82MOL    C3743939   7.573   0.022   2.336  0.3601  0.2755 -1.0917
   82MOL    C3843940   7.466   7.745   2.399 -0.1519  0.5819 -0.3124
   82MOL    C3943941   7.565   0.007   2.183  0.6993  0.6993 -0.6061
   82MOL    H4043942   7.157   0.750   2.666  0.5093  0.4187  0.7398
   82MOL    H4143943   7.051   0.597   2.679 -0.0553 -0.6041 -0.3272
   82MOL    H4243944   7.128   0.670   2.816  0.7393 -0.1032 -0.6361
   82MOL    H4343945   7.243   0.468   2.756 -0.3915  1.4072  1.6970
   82MOL    H4443946   7.350   0.598   2.730  1.4606  0.1761 -2.7888
   82MOL    H4543947   7.359   0.589   2.517  0.4223  0.0112 -0.0473
   82MOL    H4643948   7.188   0.526   2.507  0.6048 -1.6604 -1.5480
   82MOL    H4743949   7.447   0.373   2.583 -1.0124 -1.9561  3.0634
   82MOL    H4843950   7.276   0.302   2.601  0.9700 -0.0659  0.5526
   82MOL    H4943951   7.390   0.394   2.343 -3.4424 -0.5116 -1.7045
   82MOL    H5043952   7.242   0.322   2.370  0.0577 -0.3268  0.7064
   82MOL    H5143953   7.362   7.768   2.379  0.6407  3.9123 -0.9464
   82MOL    H5243954   7.469   7.743   2.508 -0.2350  2.3373 -0.2755
   82MOL    H5343955   7.488   7.640   2.380  0.2939  0.6463 -0.1751
   82MOL    H5443956   7.485   0.074   2.150  0.7782  1.2547  0.2977
   82MOL    H5543957   7.538   7.718   2.160  1.7019  0.2656  0.1065
   82MOL    C5643958   0.500   7.658   1.620 -0.0221 -0.2466  0.7547
   82MOL    C5743959   0.524   7.682   1.767  0.1665  0.3635 -0.4262
   82MOL    C5843960   0.400   7.654   1.853  0.0707 -0.3067 -0.0794
   82MOL    C5943961   0.286   7.757   1.859  0.2194  0.4167 -0.0471
   82MOL    C6043962   0.191   7.717   1.988  0.1764  0.0732 -1.0343
   82MOL    O6143963   0.078   7.804   1.992  0.2474  0.5626  0.1156
   82MOL    C6243964   7.787   7.761   2.065 -0.0609 -0.0363 -0.0386
   82MOL    O6343965   7.787   7.651   2.121  0.2328 -0.3076  0.2528
   82MOL    C6443966   7.678   0.055   2.083  0.4507  0.4839 -0.1739
   82MOL    C6543967   7.736   0.188   2.134  0.1650  0.1706 -0.1135
   82MOL    C6643968   7.618   0.087   1.936 -0.5077 -0.2900 -0.1729
   82MOL    H6743969   0.434   7.733   1.575 -0.3255  0.7848  2.8467
   82MOL    H6843970   0.465   7.558   1.595 -0.4250  0.2575 -0.7314
   82MOL    H6943971   0.596   7.667   1.569 -0.8299 -0.5078 -0.8681
   82MOL    H7043972   0.602   7.617   1.806 -0.9415 -0.6981  0.0363
   82MOL    H7143973   0.561   7.780   1.798  1.3283 -0.1892 -0.0443
   82MOL    H7243974   0.364   7.555   1.823  0.7772 -0.6236  0.1042
   82MOL    H7343975   0.430   7.643   1.957 -0.8989  0.8858  0.3308
   82MOL    H7443976   0.228   7.764   1.766  0.8076  2.5949 -0.2838
   82MOL    H7543977   0.323   0.046   1.862 -0.9373  0.8724 -0.8812
   82MOL    H7643978   0.162   7.612   1.984 -1.6308  0.3614  2.5424
   82MOL    H7743979   0.255   7.727   2.075 -0.6276 -0.2587 -0.3933
   82MOL    H7843980   7.656   0.257   2.161  0.3717  0.7640 -1.0169
   82MOL    H7943981   7.792   0.232   2.053  1.3797  0.2267  0.7483
   82MOL    H8043982   7.812   0.184   2.212 -0.4864  1.7524  0.6259
   82MOL    H8143983   7.710   0.097   1.878 -0.4839  1.2849  0.1083
   82MOL    H8243984   7.581   0.189   1.926 -1.4650 -0.6334 -0.1818
   82MOL    C8343985   0.047   7.515   1.270  0.2968 -0.5579 -0.3008
   82MOL    C8443986   0.110   7.534   1.407  0.3674 -0.1051 -0.4091
   82MOL    C8543987   7.808   7.531   1.508  0.2068 -0.2226 -0.0016
   82MOL    C8643988   0.051   7.541   1.651  0.0470  0.0624  0.1576
   82MOL    C8743989   7.759   7.539   1.762  0.2943  0.4442  0.4277
   82MOL    O8843990   7.692   7.663   1.772  0.0198 -0.3683 -0.3784
   82MOL    C8943991   7.575   7.671   1.840  0.5780  0.2970 -0.1898
   82MOL    O9043992   7.514   7.568   1.882 -0.0662 -0.2987  0.9236
   82MOL    C9143993   7.523   0.002   1.849 -0.0130 -0.4574 -0.2485
   82MOL    C9243994   7.382   7.801   1.915  0.4257 -0.4733  0.2110
   82MOL    C9343995   7.508   0.085   1.712 -0.1124 -0.5334 -0.0418
   82MOL    H9443996   0.120   7.552   1.198  0.6278  0.1959  0.4104
   82MOL    H9543997   0.019   7.412   1.247  0.6366 -0.4364 -1.2509
   82MOL    H9643998   7.771   7.574   1.256 -0.3337 -0.9460  1.7844
   82MOL    H9743999   0.153   7.634   1.419 -0.0795  0.1031 -0.5410
   82MOL    H9844000   0.192   7.464   1.424  1.3150  1.3770  1.2609
   82MOL    H9944001   7.761   7.434   1.491 -0.9135  0.6562 -2.1429
   82MOL   H10044002   7.730   7.606   1.493  0.5631 -0.1312 -1.5474
   82MOL   H10144003   0.120   7.625   1.661  2.7699 -2.2388  1.3550
   82MOL   H10244004   0.121   7.459   1.668  1.3976  0.6684 -2.3873
   82MOL   H10344005   7.801   7.518   1.860 -0.4193 -1.0724  0.4194
   82MOL   H10444006   7.690   7.459   1.738  1.5675 -0.2266 -1.0902
   82MOL   H10544007   7.385   7.755   2.013  1.7523  0.8503  0.8017
   82MOL   H10644008   7.315   7.741   1.852 -0.6473  0.2895  0.6220
   82MOL   H10744009   7.336   0.084   1.929  2.2094  0.5611 -0.8414
   82MOL   H10844010   7.497   0.190   1.738 -1.0828 -0.8480  0.8873
   82MOL   H10944011   7.609   0.079   1.671  0.2918 -2.4396  1.1629
   82MOL   C11044012   7.161   0.479   2.135  0.8163  0.7174  0.6034
   82MOL   C11144013   7.228   0.372   2.044  0.0870  0.0312  0.8462
   82MOL   C11244014   7.262   0.410   1.903  0.0128  0.3696  0.0490
   82MOL   C11344015   7.147   0.401   1.798 -0.4258  0.2828 -0.5123
   82MOL   C11444016   7.127   0.254   1.751 -0.2401  0.1413 -0.5869
   82MOL   O11544017   7.245   0.206   1.681 -0.2093 -0.0053 -0.0336
   82MOL   C11644018   7.258   0.078   1.637 -0.1168 -0.7060 -0.1618
   82MOL   O11744019   7.168   7.807   1.631  0.3201  0.0609  0.2362
   82MOL   C11844020   7.404   0.052   1.594 -0.2897  1.0397 -0.2846
   82MOL   C11944021   7.421   7.714   1.562 -0.1590 -0.4201 -0.4406
   82MOL   C12044022   7.438   0.155   1.476 -0.2827 -0.1660 -0.5886
   82MOL   H12144023   7.234   0.555   2.163  0.4955  2.0765 -2.1407
   82MOL   H12244024   7.072   0.518   2.086  0.5516 -0.6029  0.0017
   82MOL   H12344025   7.130   0.436   2.230  0.3357 -0.8848 -0.2459
   82MOL   H12444026   7.325   0.343   2.084  1.3377  0.4698 -1.7615
   82MOL   H12544027   7.171   0.279   2.049 -0.4866  0.3386  0.1515
   82MOL   H12644028   7.288   0.515   1.910 -0.9194  0.7048 -1.3157
   82MOL   H12744029   7.350   0.353   1.873  1.5732 -0.4181  5.5255
   82MOL   H12844030   7.169   0.465   1.712  0.5925  0.9346  0.2239
   82MOL   H12944031   7.053   0.439   1.837  0.2359  1.2366  0.1559
   82MOL   H13044032   7.110   0.182   1.830  0.3176  0.7483  0.0862
   82MOL   H13144033   7.043   0.245   1.682 -2.1801  0.0183  1.7304
   82MOL   H13244034   7.522   7.682   1.536  0.9393  1.8558  0.8602
   82MOL   H13344035   7.385   7.655   1.646  0.0484 -2.0722 -1.4783
   82MOL   H13444036   7.347   7.701   1.483 -0.9214  1.5617 -0.0758
   82MOL   H13544037   7.409   0.256   1.505 -0.6383 -0.5271  0.3239
   82MOL   H13644038   7.547   0.163   1.476 -0.4204  2.5102  0.7463
   82MOL   C13744039   7.618   7.132   1.247  0.3055 -0.0966  0.0994
   82MOL   C13844040   7.547   7.261   1.299 -0.0344 -0.1225 -0.4027
   82MOL   C13944041   7.526   7.369   1.188  0.5645  0.2028 -0.2330
   82MOL   C14044042   7.456   7.496   1.245 -0.8195  0.4964  0.2870
   82MOL   C14144043   7.446   7.610   1.146 -0.0385  0.6676  0.2852
   82MOL   O14244044   7.382   7.730   1.198 -0.3314  0.6139  0.2104
   82MOL   C14344045   7.466   0.007   1.261  0.4161  0.3121  0.5450
   82MOL   O14444046   7.587   0.005   1.278  0.3987 -0.2066  0.1144
   82MOL   C14544047   7.392   0.128   1.324  0.2009  0.3001 -0.1828
   82MOL   C14644048   7.235   0.109   1.320  0.3797 -0.0431 -0.7450
   82MOL   C14744049   7.440   0.265   1.247 -0.1972  0.1318 -0.0715
   82MOL   H14844050   7.625   7.056   1.324  1.2210 -0.5201 -0.3954
   82MOL   H14944051   7.722   7.153   1.221  0.0277  1.6967  0.4175
   82MOL   H15044052   7.576   7.083   1.159  1.8459 -1.9120  0.3292
   82MOL   H15144053   7.595   7.304   1.387 -0.1634 -3.0882  1.1857
   82MOL   H15244054   7.447   7.230   1.327  1.3104 -3.4174  1.0604
   82MOL   H15344055   7.622   7.401   1.147  0.0170  1.5794 -0.4626
   82MOL   H15444056   7.479   7.317   1.104 -0.2398  0.2733  0.1671
   82MOL   H15544057   7.354   7.468   1.273 -0.3245 -0.1384  1.4851
   82MOL   H15644058   7.494   7.528   1.341 -1.5711  1.9959  0.1016
   82MOL   H15744059   7.400   7.579   1.052  0.3748 -0.1418  0.3464
   82MOL   H15844060   7.547   7.626   1.108 -0.6741 -0.7843 -2.1471
   82MOL   H15944061   7.200   0.015   1.361 -0.9392 -0.0409 -1.8285
   82MOL   H16044062   7.195   0.120   1.219 -0.9189  0.4101 -0.1983
   82MOL   H16144063   7.181   0.191   1.369 -1.5927 -1.5940 -0.2531
   82MOL   H16244064   7.427   0.341   1.324 -2.3904  0.0348 -0.3117
   82MOL   H16344065   7.548   0.257   1.230 -0.4903 -0.2078 -1.8048
   82MOL   C16444066   6.709   0.772   1.211 -1.0324 -0.0669  0.1787
   82MOL   C16544067   6.860   0.753   1.253 -0.0760 -0.1340 -0.6305
   82MOL   C16644068   6.900   0.606   1.278 -0.4821  0.2841 -0.1120
   82MOL   C16744069   7.051   0.594   1.265 -0.3588  0.2516 -0.1955
   82MOL   C16844070   7.071   0.435   1.270 -0.3703 -0.0631  0.3792
   82MOL   O16944071   7.204   0.408   1.244  0.2512  0.1528  0.1049
   82MOL   C17044072   7.233   0.363   1.123  0.6564 -0.1166 -0.2214
   82MOL   O17144073   7.156   0.358   1.027  0.2165 -0.8498  0.1658
   82MOL   C17244074   7.379   0.322   1.110 -1.1369  0.5448  0.1832
   82MOL   C17344075   7.402   0.208   1.000 -0.1325 -0.4538  0.0596
   82MOL   C17444076   7.483   0.437   1.084  0.5057 -0.6330 -0.3875
   82MOL   H17544077   6.644   0.729   1.287  1.9088 -1.0613  2.2187
   82MOL   H17644078   6.694   0.735   1.110  0.0474  1.4088 -0.5472
   82MOL   H17744079   6.688   0.879   1.219  0.7648  0.2561  1.0647
   82MOL   H17844080   6.887   0.811   1.341 -1.5473 -1.6992  0.9038
   82MOL   H17944081   6.911   0.783   1.162 -3.6865  0.3581 -2.5804
   82MOL   H18044082   6.867   0.566   1.374  0.7719 -1.1050 -0.2352
   82MOL   H18144083   6.848   0.541   1.207  0.8444 -1.5267  0.5380
   82MOL   H18244084   7.102   0.650   1.344  0.9803 -1.2375  0.0142
   82MOL   H18344085   7.078   0.632   1.166  0.8025 -1.3341 -0.4950
   82MOL   H18444086   7.002   0.370   1.216 -1.0058  1.1902 -0.3347
   82MOL   H18544087   7.042   0.401   1.370  2.6395  2.3882  2.2056
   82MOL   H18644088   7.506   0.179   0.985 -0.5816 -2.2776  0.4394
   82MOL   H18744089   7.375   0.245   0.901  0.8288  2.1403  0.7075
   82MOL   H18844090   7.342   0.120   1.022  0.3476 -1.4085 -2.2689
   82MOL   H18944091   7.501   0.482   1.182 -1.3658 -0.5961 -0.0423
   82MOL   H19044092   7.578   0.388   1.065  3.9282  4.7118  1.7582
   82MOL   C19144093   6.975   0.663   0.524 -0.1340  0.3332  0.5507
   82MOL   C19244094   6.978   0.688   0.681  0.1326 -0.3207  0.7894
   82MOL   C19344095   7.113   0.742   0.727  0.3561  0.7201 -0.4579
   82MOL   C19444096   7.119   0.751   0.879  0.1347 -0.8858  0.3995
   82MOL   C19544097   7.236   0.836   0.932 -0.2018  0.0168 -0.4267
   82MOL   O19644098   7.344   0.750   0.921  0.3049  0.2024 -0.0596
   82MOL   C19744099   7.371   0.663   1.017 -0.1301  0.8993 -0.1037
   82MOL   O19844100   7.326   0.656   1.128 -0.3927 -0.7949 -0.5401
   82MOL   C19944101   7.471   0.549   0.977  1.0868  0.6006 -0.1805
   82MOL   C20044102   7.436   0.502   0.837 -0.4500  0.1819  0.1242
   82MOL   C20144103   7.610   0.624   0.965  0.1778 -0.1306  0.7324
   82MOL   H20244104   7.045   0.588   0.488 -1.5334 -0.4875 -0.4992
   82MOL   H20344105   6.872   0.650   0.490  0.1751  0.2328 -0.3555
   82MOL   H20444106   6.998   0.758   0.475 -2.8634  1.1529  0.7685
   82MOL   H20544107   6.955   0.592   0.726  1.2562  0.5418  3.2744
   82MOL   H20644108   6.896   0.757   0.704  1.7897  2.3628 -1.0551
   82MOL   H20744109   7.145   0.837   0.686  5.5761 -0.6217  0.1638
   82MOL   H20844110   7.185   0.670   0.689  0.2509  0.2471  0.2339
   82MOL   H20944111   7.035   0.812   0.911  0.4338  1.7092 -3.3525
   82MOL   H21044112   7.103   0.661   0.938 -1.1300  0.2442  1.8285
   82MOL   H21144113   7.242   0.932   0.880  1.3516 -0.1411 -0.5692
   82MOL   H21244114   7.221   0.867   1.036  0.2810  1.5170 -0.7892
   82MOL   H21344115   7.339   0.453   0.828  0.5248 -1.4765 -1.5460
   82MOL   H21444116   7.506   0.427   0.802 -0.6450 -0.7204  1.6223
   82MOL   H21544117   7.442   0.584   0.765  2.7708 -0.9339 -0.9426
   82MOL   H21644118   7.632   0.672   0.869  3.0483  1.5147  2.1711
   82MOL   H21744119   7.680   0.541   0.967  2.3078  1.6460  2.0896
   82MOL   C21844120   0.060   1.221   0.576  0.0379  0.6800  0.2951
   82MOL   C21944121   0.117   1.076   0.590 -0.3470  0.1285 -0.1238
   82MOL   C22044122   0.108   1.018   0.738  0.1298  0.2498  0.3786
   82MOL   C22144123   0.167   0.879   0.747 -0.2317  0.4059  0.0152
   82MOL   C22244124   0.165   0.814   0.887  0.2796  0.2269  0.4029
   82MOL   O22344125   0.030   0.776   0.916 -0.2008  0.3090 -0.1547
   82MOL   C22444126   0.009   0.731   1.028 -0.1049 -0.4847 -0.3013
   82MOL   O22544127   0.096   0.692   1.107  0.4267 -0.4554  0.2093
   82MOL   C22644128   7.671   0.737   1.068  0.2822 -1.0050  0.0751
   82MOL   C22744129   7.647   0.686   1.209  0.3328  0.0755 -0.5106
   82MOL   C22844130   7.613   0.884   1.045 -0.0849 -0.3303 -0.0580
   82MOL   H22944131   0.057   1.253   0.472 -0.0384 -0.8619 -0.1858
   82MOL   H23044132   7.773   1.215   0.617  0.2447  1.4441  0.9361
   82MOL   H23144133   0.123   1.288   0.635  0.1164 -1.9369  3.3433
   82MOL   H23244134   0.222   1.082   0.560 -0.4498  0.3479 -0.4322
   82MOL   H23344135   0.062   1.005   0.528 -0.2069  0.2351 -0.3714
   82MOL   H23444136   0.006   1.002   0.775  0.2512 -1.0093  0.1876
   82MOL   H23544137   0.162   1.081   0.809  0.3227  0.6272 -0.1076
   82MOL   H23644138   0.135   0.809   0.670 -2.5322  0.5852  0.7946
   82MOL   H23744139   0.271   0.904   0.724 -1.3593  2.9594 -2.4612
   82MOL   H23844140   0.173   0.901   0.953  0.7811 -0.5350  1.3513
   82MOL   H23944141   0.237   0.735   0.905 -1.7306 -2.2956 -2.1301
   82MOL   H24044142   7.703   0.750   1.277 -1.5772  1.3963 -0.1748
   82MOL   H24144143   7.693   0.590   1.235  1.3871  0.2526 -1.6395
   82MOL   H24244144   7.544   0.688   1.244  0.4740 -1.6306  0.0764
   82MOL   H24344145   7.506   0.881   1.065  0.0959  1.6016  1.3994
   82MOL   H24444146   7.619   0.898   0.937  0.8240 -0.3883 -0.0198
   82MOL   C24544147   0.505   1.237   1.619 -0.3685 -0.2437 -0.7414
   82MOL   C24644148   0.362   1.227   1.559 -0.5234  0.0515  0.4828
   82MOL   C24744149   0.348   1.123   1.450 -0.1174 -0.2429  0.6846
   82MOL   C24844150   0.202   1.094   1.408  0.3935 -0.0503  0.1196
   82MOL   C24944151   0.187   1.017   1.273  0.2235  0.2573  0.3405
   82MOL   O25044152   0.049   0.995   1.243  0.2668  0.2729 -0.3989
   82MOL   C25144153   7.804   1.040   1.129  0.9071  0.4383  0.1513
   82MOL   O25244154   0.049   1.100   1.043 -0.2122  0.0472  0.0441
   82MOL   C25344155   7.646   1.012   1.123  0.1205 -0.1818 -0.3898
   82MOL   C25444156   7.576   1.008   1.262 -0.2805  0.1842  0.3102
   82MOL   C25544157   7.588   1.122   1.035 -0.4203 -0.7951  0.5884
   82MOL   H25644158   0.567   1.288   1.545  0.5222 -0.3798 -0.0984
   82MOL   H25744159   0.514   1.290   1.714  0.5673  2.2623 -2.1816
   82MOL   H25844160   0.545   1.141   1.650 -1.8244  0.6928  4.5409
   82MOL   H25944161   0.300   1.208   1.647  0.8027  1.8789  1.8496
   82MOL   H26044162   0.319   1.318   1.518  1.9644  0.5708 -1.0556
   82MOL   H26144163   0.386   1.025   1.480  0.5824  0.4384  2.0433
   82MOL   H26244164   0.409   1.154   1.365 -0.4686 -1.3906  0.0072
   82MOL   H26344165   0.151   1.031   1.481  1.5854 -0.4295  0.6362
   82MOL   H26444166   0.150   1.190   1.404  1.6775  0.6457 -0.0067
   82MOL   H26544167   0.235   1.077   1.196  0.4272 -0.6389 -0.2322
   82MOL   H26644168   0.237   0.921   1.267  0.1035  0.1210  1.3093
   82MOL   H26744169   7.580   1.102   1.318 -0.8726 -0.6767  1.8269
   82MOL   H26844170   7.475   0.971   1.246  0.1828  0.2791 -3.1452
   82MOL   H26944171   7.613   0.929   1.327 -1.1949 -0.4039  0.1280
   82MOL   H27044172   7.631   1.114   0.936  0.3513  1.8604  0.6917
   82MOL   H27144173   7.485   1.091   1.016 -0.3487 -0.1873 -0.8087
   82MOL   C27244174   6.945   1.659   1.043 -0.1227  0.1087 -0.4209
   82MOL   C27344175   6.927   1.562   1.161  0.0120 -0.3365 -0.3473
   82MOL   C27444176   7.047   1.546   1.253 -0.1896 -0.3920 -0.2046
   82MOL   C27544177   7.164   1.475   1.183  0.7369 -0.1965  0.9078
   82MOL   C27644178   7.292   1.457   1.267 -0.1459  0.0344 -0.2673
   82MOL   O27744179   7.408   1.416   1.194  0.3813  0.5390  0.0874
   82MOL   C27844180   7.428   1.285   1.161  0.6564 -0.3189  0.2711
   82MOL   O27944181   7.348   1.195   1.174  0.7529  0.1060 -0.1551
   82MOL   C28044182   7.564   1.272   1.079  0.1551 -0.4648 -0.2670
   82MOL   C28144183   7.674   1.320   1.173  0.1349  0.8954  0.0231
   82MOL   C28244184   7.565   1.354   0.942  0.1783 -0.0051  0.1604
   82MOL   H28344185   6.979   1.606   0.955  1.9699  0.3080  0.2203
   82MOL   H28444186   6.855   1.712   1.014 -0.4855 -0.9806 -1.3070
   82MOL   H28544187   7.027   1.728   1.063  1.3254 -1.6222 -0.2461
   82MOL   H28644188   6.847   1.618   1.211  2.3387  2.4167  0.4313
   82MOL   H28744189   6.900   1.461   1.131  3.5212 -0.9389 -1.6466
   82MOL   H28844190   7.075   1.648   1.279  1.9952 -1.0749  0.2543
   82MOL   H28944191   7.017   1.505   1.349  1.4845 -0.2197  0.4017
   82MOL   H29044192   7.135   1.372   1.161 -3.3220  1.2971 -1.2621
   82MOL   H29144193   7.180   1.531   1.091 -1.6258  1.4145  1.4527
   82MOL   H29244194   7.277   1.383   1.346  1.0687 -0.2644 -0.3145
   82MOL   H29344195   7.316   1.555   1.308  0.9876 -1.0037  1.6580
   82MOL   H29444196   7.774   1.326   1.131  0.4555 -0.6803  0.5384
   82MOL   H29544197   7.652   1.427   1.179 -0.2801  0.7756  0.6246
   82MOL   H29644198   7.684   1.279   1.273  0.7965  1.1091  0.0494
   82MOL   H29744199   7.589   1.457   0.967 -1.0634  0.1660  0.7171
   82MOL   H29844200   7.653   1.309   0.897  0.1103 -0.2483  0.2677
   82MOL   C29944201   7.334   0.683   0.347 -0.7837  0.0748  0.5887
   82MOL   C30044202   7.362   0.835   0.353  0.0852  0.0178  0.1173
   82MOL   C30144203   7.434   0.866   0.484 -0.8724  0.4311 -0.1735
   82MOL   C30244204   7.443   1.011   0.513  0.0150  0.4986  0.5252
   82MOL   C30344205   7.519   1.026   0.650  0.0946  0.0670 -0.2324
   82MOL   O30444206   7.521   1.159   0.694 -0.9346 -0.0381  0.7264
   82MOL   C30544207   7.424   1.206   0.775  0.1614 -0.8683  0.4692
   82MOL   O30644208   7.324   1.141   0.806 -0.5731  0.3274  0.0486
   82MOL   C30744209   7.449   1.357   0.829 -0.6950 -0.1802  0.0644
   82MOL   C30844210   7.318   1.414   0.896 -0.1839  0.3158  0.1402
   82MOL   C30944211   7.506   1.453   0.721  0.3602 -0.4537  0.3239
   82MOL   H31044212   7.284   0.652   0.254 -0.7904  1.5678  0.0799
   82MOL   H31144213   7.280   0.639   0.431 -0.8669 -1.5996 -0.3088
   82MOL   H31244214   7.430   0.632   0.348 -0.6141  0.3908  0.3158
   82MOL   H31344215   7.266   0.884   0.338  0.3523  0.2389 -0.9558
   82MOL   H31444216   7.422   0.874   0.270  1.5672 -3.4032 -0.5007
   82MOL   H31544217   7.540   0.842   0.477 -1.3451 -0.9710 -2.9583
   82MOL   H31644218   7.384   0.825   0.571  1.0808 -1.2132  0.2170
   82MOL   H31744219   7.343   1.052   0.521  0.3319  1.5679 -1.0016
   82MOL   H31844220   7.505   1.056   0.436 -0.3297 -0.5699 -0.3929
   82MOL   H31944221   7.468   0.958   0.718 -1.3008  1.3313  0.0165
   82MOL   H32044222   7.619   0.984   0.658 -0.1774 -0.8154 -1.3483
   82MOL   H32144223   7.250   1.422   0.811  0.0724  0.0910 -0.0880
   82MOL   H32244224   7.272   1.340   0.962 -0.0845 -1.9345 -2.2652
   82MOL   H32344225   7.332   1.508   0.949 -1.2211  0.3703  0.3373
   82MOL   H32444226   7.594   1.400   0.685  1.3251 -0.5342  2.7395
   82MOL   H32544227   7.546   1.543   0.767  1.4205  1.3275 -3.7725
   82MOL   C32644228   0.099   1.577   0.953  0.8169 -0.2160 -0.6342
   82MOL   C32744229   0.097   1.553   0.806  0.0142  0.2406 -0.3038
   82MOL   C32844230   0.014   1.656   0.724 -0.0109 -0.0896  0.4309
   82MOL   C32944231   0.014   1.622   0.569 -0.5786 -0.9188 -0.5590
   82MOL   C33044232   7.715   1.695   0.486 -0.3338  0.1817  0.1652
   82MOL   O33144233   7.594   1.675   0.544  0.6285 -0.1305  0.6639
   82MOL   C33244234   7.526   1.559   0.506  0.3133 -0.1420  0.0701
   82MOL   O33344235   7.556   1.492   0.407 -0.3854  0.5131 -0.1982
   82MOL   C33444236   7.421   1.512   0.609  0.9065 -0.0727  0.4850
   82MOL   C33544237   7.333   1.403   0.545 -0.0928  0.0646 -0.8612
   82MOL   C33644238   7.328   1.640   0.650 -0.3780  0.0986 -0.0470
   82MOL   H33744239   0.171   1.509   0.998  0.8891  0.3185  0.0876
   82MOL   H33844240   7.809   1.566   0.985  0.0713 -2.1313 -3.5561
   82MOL   H33944241   0.131   1.678   0.982 -0.9730  0.3569 -0.5563
   82MOL   H34044242   0.054   1.453   0.796  1.0455 -0.3084  0.6511
   82MOL   H34144243   0.199   1.553   0.766  0.4091  1.2634  0.6917
   82MOL   H34244244   0.056   1.757   0.723 -2.6064  1.0153 -0.2047
   82MOL   H34344245   7.726   1.659   0.762 -0.7576 -1.9106 -1.3612
   82MOL   H34444246   0.007   1.514   0.557 -1.9621 -0.8496 -0.4717
   82MOL   H34544247   0.111   1.658   0.534 -1.0772 -1.4889 -2.6446
   82MOL   H34644248   7.713   1.665   0.381 -1.3167  1.3856 -0.1732
   82MOL   H34744249   7.731   1.803   0.487 -2.4090  0.4962  0.5992
   82MOL   H34844250   7.258   1.366   0.615  0.3911  1.0940  0.2068
   82MOL   H34944251   7.390   1.317   0.510 -1.8831 -1.2143 -0.6871
   82MOL   H35044252   7.283   1.438   0.454  0.9582  2.9239 -0.3920
   82MOL   H35144253   7.386   1.721   0.695  0.4481 -0.8306  0.5996
   82MOL   H35244254   7.271   1.620   0.741 -0.8758  0.1448 -0.3525
   82MOL   C35344255   6.959   1.069   0.904 -0.8171  0.3999 -0.2700
   82MOL   C35444256   6.848   1.170   0.895 -0.1188 -0.6214  0.2423
   82MOL   C35544257   6.853   1.258   0.762 -0.4835 -0.0897 -0.0645
   82MOL   C35644258   6.961   1.364   0.754  0.0396  0.1585  0.1883
   82MOL   C35744259   6.944   1.470   0.642  0.1266  0.1297 -0.3228
   82MOL   O35844260   7.045   1.569   0.645 -0.4555 -0.1058  0.1875
   82MOL   C35944261   7.104   1.613   0.528  0.3802 -0.0567  0.0585
   82MOL   O36044262   7.073   1.579   0.415  0.0800  0.1932 -0.3223
   82MOL   C36144263   7.225   1.707   0.553  0.3949  0.1734 -0.0784
   82MOL   C36244264   7.287   1.733   0.416  0.0373 -0.1342 -0.3823
   82MOL   C36344265   7.177   1.851   0.602  0.7528  0.4703 -0.0352
   82MOL   H36444266   6.971   0.999   0.822 -0.5496  0.2052 -0.0647
   82MOL   H36544267   6.932   1.017   0.996  0.5107  1.8773  0.9771
   82MOL   H36644268   7.055   1.120   0.912 -0.6391 -0.1756  1.5816
   82MOL   H36744269   6.749   1.128   0.908 -0.0868 -0.5299  0.7878
   82MOL   H36844270   6.845   1.249   0.970 -4.4737 -0.4180 -0.0369
   82MOL   H36944271   6.755   1.306   0.754 -1.3160 -1.7006  0.3529
   82MOL   H37044272   6.856   1.192   0.675  0.5552 -0.7081  0.4285
   82MOL   H37144273   7.049   1.306   0.725 -1.7589 -1.3797 -2.4532
   82MOL   H37244274   6.970   1.413   0.851 -0.7382 -0.3277  0.5094
   82MOL   H37344275   6.926   1.428   0.543 -0.7009 -0.9222  0.2514
   82MOL   H37444276   6.849   1.520   0.662 -0.6599 -0.9432 -1.2943
   82MOL   H37544277   7.320   1.642   0.367  1.0304  0.0686 -0.0995
   82MOL   H37644278   7.210   1.762   0.345 -1.2220 -0.3764  0.8467
   82MOL   H37744279   7.367   1.807   0.408  0.7121 -0.4896  2.6015
   82MOL   H37844280   7.142   1.832   0.704  2.3851 -0.0914  0.4304
   82MOL   H37944281   7.272   1.901   0.618 -0.5908  3.3337 -0.6625
   82MOL   C38044282   7.065   1.948   7.621  0.6207  0.7291  0.7855
   82MOL   C38144283   7.039   1.866   7.753  0.0764 -0.7343 -0.5554
   82MOL   C38244284   7.089   1.941   0.063 -0.0266 -0.1132 -0.3553
   82MOL   C38344285   7.036   2.086   0.083 -0.2560 -0.9870 -0.2785
   82MOL   C38444286   7.109   2.140   0.205 -0.1810  0.3100  0.5372
   82MOL   O38544287   7.057   2.061   0.315 -0.1434 -1.3331  0.5443
   82MOL   C38644288   7.145   2.017   0.409 -0.3488  0.8358  0.1400
   82MOL   O38744289   7.269   2.042   0.411  0.3723  0.3402  0.0381
   82MOL   C38844290   7.077   1.950   0.525  0.6676  0.4189  0.9114
   82MOL   C38944291   6.950   1.879   0.475  0.5208  0.5611  0.2930
   82MOL   C39044292   7.048   2.059   0.636  0.4484 -0.2753 -0.6666
   82MOL   H39144293   7.051   1.876   7.540 -2.1059  1.9081  0.1519
   82MOL   H39244294   6.995   2.029   7.602  0.2915  0.6001  1.4043
   82MOL   H39344295   7.168   1.977   7.604  1.1021 -1.3538 -0.0033
   82MOL   H39444296   7.081   1.768   7.734  2.5441  0.9031 -4.0651
   82MOL   H39544297   6.933   1.846   7.767  0.3469 -1.5086  0.3933
   82MOL   H39644298   7.083   1.874   0.148 -1.3905  0.6832  0.1827
   82MOL   H39744299   7.197   1.950   0.049  0.0913 -1.3184 -0.2192
   82MOL   H39844300   7.056   2.146   7.808 -0.5418 -1.0641 -0.3961
   82MOL   H39944301   6.929   2.105   0.092  0.0278 -0.0317  1.5049
   82MOL   H40044302   7.093   2.245   0.229 -0.2965  0.0124  1.8034
   82MOL   H40144303   7.216   2.129   0.191 -0.3585  1.7667 -2.5302
   82MOL   H40244304   6.909   1.810   0.548 -2.1388  0.6580 -1.0599
   82MOL   H40344305   6.959   1.826   0.380 -2.9830  1.7403 -0.7786
   82MOL   H40444306   6.868   1.946   0.449 -0.5048 -0.0325  1.9463
   82MOL   H40544307   7.139   2.064   0.695 -1.5189 -1.7024  2.6007
   82MOL   H40644308   6.974   2.015   0.702  1.3222 -0.3458  0.2721
   82MOL   C40744309   7.516   2.772   0.323 -0.5368 -0.1874  0.5533
   82MOL   C40844310   7.441   2.722   0.439  0.5589 -0.4103 -0.6534
   82MOL   C40944311   7.433   2.570   0.444  0.2599  0.1014 -0.1474
   82MOL   C41044312   7.318   2.519   0.538 -0.2433  0.9701  0.2684
   82MOL   C41144313   7.303   2.361   0.526  0.8090 -0.1982  0.3971
   82MOL   O41244314   7.200   2.316   0.608 -0.3446  0.2810 -0.0134
   82MOL   C41344315   7.076   2.302   0.558 -0.3702  0.0722  0.0291
   82MOL   O41444316   7.036   2.357   0.452  0.4908  0.1782 -0.0166
   82MOL   C41544317   6.984   2.206   0.636  0.0035  0.1088 -0.0143
   82MOL   C41644318   6.843   2.198   0.568 -0.0229 -0.8107  0.1468
   82MOL   C41744319   6.981   2.254   0.786  0.0709  0.1011 -0.1791
   82MOL   H41844320   7.621   2.741   0.319 -1.1543 -2.1276 -1.9714
   82MOL   H41944321   7.475   2.727   0.232 -0.0112 -1.2839  0.8480
   82MOL   H42044322   7.512   2.880   0.321 -1.7211 -0.2461 -0.9929
   82MOL   H42144323   7.341   2.762   0.424  1.3025  1.8873  0.2914
   82MOL   H42244324   7.482   2.768   0.529 -0.1605 -1.8699  0.4449
   82MOL   H42344325   7.428   2.529   0.343  1.1795  0.7668 -0.4662
   82MOL   H42444326   7.523   2.528   0.490 -1.5058 -2.2505  1.2984
   82MOL   H42544327   7.226   2.570   0.507 -0.9990 -0.8838 -0.6021
   82MOL   H42644328   7.345   2.551   0.639  0.1960  1.0968  0.1108
   82MOL   H42744329   7.300   2.322   0.425  0.0695  0.0851  0.3036
   82MOL   H42844330   7.396   2.313   0.557  1.2120  1.4052  1.7481
   82MOL   H42944331   6.792   2.291   0.546  1.3341  0.3862  1.8400
   82MOL   H43044332   6.771   2.133   0.619  0.6943 -0.7480  1.2700
   82MOL   H43144333   6.854   2.162   0.466  0.0094 -0.9301  0.1921
   82MOL   H43244334   7.082   2.251   0.828 -0.9370 -0.5774  2.2740
   82MOL   H43344335   6.938   2.170   0.840 -0.5271  1.2344  1.1319
   82MOL   C43444336   6.526   2.569   0.376 -0.6486  0.0639 -0.0674
   82MOL   C43544337   6.495   2.635   0.512  0.4240  0.4126 -0.2141
   82MOL   C43644338   6.549   2.547   0.622  0.3571 -0.2212 -0.3597
   82MOL   C43744339   6.516   2.615   0.757  0.6667 -0.5569 -0.2979
   82MOL   C43844340   6.581   2.541   0.880  0.1370 -0.0318  0.2458
   82MOL   O43944341   6.716   2.515   0.867  0.0669 -0.2423 -0.5192
   82MOL   C44044342   6.768   2.395   0.836  0.1853 -0.1390  0.0460
   82MOL   O44144343   6.696   2.300   0.797  0.1331  0.2598 -0.3741
   82MOL   C44244344   6.921   2.386   0.841  0.1288 -0.1332 -0.6642
   82MOL   C44344345   6.961   2.500   0.743  0.3448  0.2721  0.3210
   82MOL   C44444346   6.987   2.426   0.977  0.0635  0.3913 -0.0508
   82MOL   H44544347   6.489   2.466   0.371  2.9415 -1.4060  2.1509
   82MOL   H44644348   6.492   2.628   0.291  0.3498  0.2953 -0.3092
   82MOL   H44744349   6.634   2.561   0.369 -0.4843  1.7751  0.3408
   82MOL   H44844350   6.532   2.738   0.514  1.0301  0.2054 -0.8316
   82MOL   H44944351   6.386   2.641   0.524  0.3586  0.2352 -0.7062
   82MOL   H45044352   6.517   2.443   0.619 -2.0225  0.4982 -1.3636
   82MOL   H45144353   6.657   2.539   0.617  0.4400 -0.0648  1.0198
   82MOL   H45244354   6.410   2.626   0.780  0.9882 -0.1273  1.0109
   82MOL   H45344355   6.554   2.716   0.751 -2.7102  0.9241  1.7103
   82MOL   H45444356   6.530   2.450   0.913  1.3284 -0.1336  1.8711
   82MOL   H45544357   6.586   2.610   0.964  0.5239  1.8653 -1.2882
   82MOL   H45644358   6.924   2.491   0.641  0.1152  1.0300  0.3322
   82MOL   H45744359   6.923   2.597   0.775  1.5705  0.7074  0.4758
   82MOL   H45844360   7.069   2.514   0.742  0.1537  2.0618  1.4015
   82MOL   H45944361   6.964   2.530   0.998  3.5766  1.4653 -1.1621
   82MOL   H46044362   7.093   2.434   0.953  0.1615 -1.5541 -0.3314
   82MOL   C46144363   7.562   1.852   1.081 -0.4210  0.3569 -0.7178
   82MOL   C46244364   7.464   1.808   0.972  0.4195  0.2251  0.2337
   82MOL   C46344365   7.312   1.841   1.005  0.3128 -0.0334  0.2562
   82MOL   C46444366   7.265   1.987   0.988  0.4871 -0.9704  0.4340
   82MOL   C46544367   7.135   2.008   1.071  0.4774 -0.4390  0.3464
   82MOL   O46644368   7.094   2.145   1.062 -0.2772  0.3645  1.2920
   82MOL   C46744369   6.973   2.190   1.098 -0.6017 -0.5345 -0.0926
   82MOL   O46844370   6.884   2.111   1.132  0.5070  0.5963 -0.3221
   82MOL   C46944371   6.968   2.347   1.113 -0.1622  0.2121  0.5089
   82MOL   C47044372   6.835   2.380   1.186 -0.4842 -0.0740 -0.1469
   82MOL   C47144373   7.093   2.379   1.207 -0.3162 -0.3906  0.8375
   82MOL   H47244374   7.658   1.801   1.088 -0.9545 -0.9849 -2.7441
   82MOL   H47344375   7.516   1.831   1.177  0.4717  0.5699 -0.2386
   82MOL   H47444376   7.582   1.959   1.086  2.5246 -0.1462 -1.2888
   82MOL   H47544377   7.475   1.702   0.947 -2.0256  0.1504 -0.6962
   82MOL   H47644378   7.481   1.857   0.877 -1.5721 -0.8658 -0.7215
   82MOL   H47744379   7.292   1.803   1.105 -1.1068 -0.4303 -0.1752
   82MOL   H47844380   7.243   1.773   0.954  2.2883 -2.2812  0.4694
   82MOL   H47944381   7.238   1.997   0.883 -0.7189  1.9356  0.9871
   82MOL   H48044382   7.334   2.066   1.017 -2.6082  1.5453  1.1682
   82MOL   H48144383   7.058   1.940   1.036 -0.5350  0.2041  1.2885
   82MOL   H48244384   7.141   1.987   1.178 -0.1117  1.6242  0.8061
   82MOL   H48344385   6.815   2.480   1.224  0.8830 -0.3660  1.4030
   82MOL   H48444386   6.831   2.316   1.274 -2.3696 -0.9579 -0.8412
   82MOL   H48544387   6.748   2.350   1.127 -0.6737 -2.4740  1.2674
   82MOL   H48644388   7.184   2.364   1.148  0.9096  3.0220  1.7641
   82MOL   H48744389   7.103   2.300   1.281 -1.5984 -0.7029  0.6804
   82MOL   C48844390   6.532   2.629   1.673 -0.2868  0.5326  0.2888
   82MOL   C48944391   6.629   2.588   1.561  0.1155  0.2193 -0.2722
   82MOL   C49044392   6.730   2.703   1.519  0.4538 -0.5865  0.8830
   82MOL   C49144393   6.827   2.733   1.625 -0.2008 -0.4541 -0.4046
   82MOL   C49244394   6.940   2.630   1.622  0.8602 -0.6257 -0.0640
   82MOL   O49344395   7.010   2.618   1.496  0.2861 -0.6143 -0.1439
   82MOL   C49444396   7.014   2.499   1.430  0.0738 -0.1064  0.6119
   82MOL   O49544397   6.950   2.396   1.461  0.3770  0.1178 -0.0189
   82MOL   C49644398   7.109   2.500   1.304  0.4190  0.0161 -0.2815
   82MOL   C49744399   7.095   2.632   1.218  0.0981  0.0715  0.5511
   82MOL   C49844400   7.252   2.517   1.362  0.0213 -0.2618  0.0141
   82MOL   H49944401   6.577   2.661   1.767 -0.9951 -1.5645  1.3740
   82MOL   H50044402   6.472   2.709   1.631  0.8559 -0.4881 -3.5281
   82MOL   H50144403   6.477   2.539   1.700  0.0670  0.9071  2.2718
   82MOL   H50244404   6.571   2.552   1.477 -0.3212 -0.6214  0.3776
   82MOL   H50344405   6.685   2.501   1.595  0.3201 -0.0560 -1.2951
   82MOL   H50444406   6.780   2.671   1.427  1.3358  1.4915  0.6284
   82MOL   H50544407   6.689   2.799   1.488  2.0778 -1.5732 -5.0078
   82MOL   H50644408   6.782   2.751   1.722 -1.9352 -0.7393 -1.1328
   82MOL   H50744409   6.883   2.822   1.595 -1.4496  0.7030  0.6388
   82MOL   H50844410   6.995   2.658   1.712  0.0472 -0.1212  0.2848
   82MOL   H50944411   6.903   2.531   1.647  0.7233 -0.7129 -0.6001
   82MOL   H51044412   7.171   2.636   1.140  1.4293 -0.6517  1.7706
   82MOL   H51144413   7.116   2.718   1.282 -0.3449  1.1222 -0.7005
   82MOL   H51244414   6.990   2.636   1.191 -0.0999 -0.5092  1.2154
   82MOL   H51344415   7.254   2.597   1.436  2.6690 -1.8408  1.7524
   82MOL   H51444416   7.312   2.556   1.281  2.4657  0.3665  2.0774
   82MOL   C51544417   7.647   2.689   0.854 -0.0796  0.1733  0.4835
   82MOL   C51644418   7.577   2.553   0.861 -0.1778 -0.2393 -0.3679
   82MOL   C51744419   7.587   2.479   0.998  0.2606  0.0738 -0.4075
   82MOL   C51844420   7.528   2.341   0.999  0.1307 -0.0785  0.3877
   82MOL   C51944421   7.545   2.276   1.137  0.3418 -0.4545  0.1564
   82MOL   O52044422   7.483   2.351   1.242  0.5498 -0.5363  0.0362
   82MOL   C52144423   7.386   2.298   1.313  0.4159  0.4033 -0.5209
   82MOL   O52244424   7.348   2.181   1.298  0.0056 -0.3162  0.2127
   82MOL   C52344425   7.327   2.392   1.425  0.0030 -0.5013 -0.1635
   82MOL   C52444426   7.252   2.310   1.536  0.6367 -0.0086  0.3922
   82MOL   C52544427   7.451   2.455   1.501  0.2536  0.5213  0.1362
   82MOL   H52644428   7.582   2.749   0.917 -0.5622  0.3448 -0.1634
   82MOL   H52744429   7.745   2.695   0.901  0.0303  0.3833  0.2304
   82MOL   H52844430   7.654   2.736   0.755 -0.5053 -0.5498  0.1077
   82MOL   H52944431   7.472   2.572   0.838 -0.5561 -0.8755  0.7610
   82MOL   H53044432   7.623   2.490   0.785  1.1924  1.4348 -0.9495
   82MOL   H53144433   7.694   2.466   1.017  0.5733  2.9466 -0.0733
   82MOL   H53244434   7.550   2.549   1.073 -0.2297 -0.2373 -0.3579
   82MOL   H53344435   7.584   2.286   0.923 -1.9271 -0.0126 -1.2440
   82MOL   H53444436   7.425   2.352   0.965 -0.0413 -3.2546 -0.2985
   82MOL   H53544437   7.510   2.174   1.149 -0.0856 -0.3070  0.1581
   82MOL   H53644438   7.652   2.266   1.157  0.1148 -1.1507  1.0506
   82MOL   H53744439   7.163   2.255   1.505  1.5653 -0.9038 -0.7554
   82MOL   H53844440   7.231   2.381   1.616  1.3850  0.3962  0.2312
   82MOL   H53944441   7.314   2.235   1.584 -0.4055 -0.2061  1.4571
   82MOL   H54044442   7.417   2.498   1.595  1.5092 -0.2373  0.9464
   82MOL   H54144443   7.490   2.532   1.434  0.9298  0.3086  0.2822
   82MOL   H54244444   7.525   2.376   1.516  0.5370  0.9846  1.1949
   83MOL     C144445   2.759   1.663   4.982 -0.0230 -0.3286  0.1103
   83MOL     C244446   2.835   1.718   4.869  0.5280 -0.3369  0.9816
   83MOL     C344447   2.768   1.843   4.819  0.0041 -1.0892 -0.0136
   83MOL     C444448   2.823   1.899   4.691 -0.6641  0.6833 -0.3352
   83MOL     C544449   2.740   2.021   4.634 -0.0315 -0.0528 -0.1811
   83MOL     O644450   2.765   2.142   4.706 -0.3509 -0.0485  0.1525
   83MOL     C744451   2.681   2.240   4.687 -0.5965  0.2254 -0.0025
   83MOL     O844452   2.593   2.248   4.603  0.6502  0.8609 -0.4605
   83MOL     C944453   2.702   2.351   4.793  0.1304  0.3489 -0.5622
   83MOL    C1044454   2.842   2.370   4.851 -0.1752  0.0368  0.1880
   83MOL    C1144455   2.604   2.331   4.913  0.4291 -0.4267 -0.5150
   83MOL    H1244456   2.661   1.629   4.951 -0.9239  3.5942 -1.6265
   83MOL    H1344457   2.746   1.736   5.063 -0.2125  0.2135 -0.4019
   83MOL    H1444458   2.811   1.578   5.026  0.4685 -0.3229 -0.4592
   83MOL    H1544459   2.938   1.745   4.896  0.5485  0.9033 -0.2996
   83MOL    H1644460   2.836   1.644   4.789 -0.8215 -1.3268  1.8623
   83MOL    H1744461   2.660   1.834   4.809 -0.3430 -1.2376  3.2963
   83MOL    H1844462   2.769   1.919   4.897  0.6264  0.5455 -1.5976
   83MOL    H1944463   2.824   1.819   4.618 -1.1313 -0.9865  1.4389
   83MOL    H2044464   2.928   1.928   4.689 -1.0981  2.2244 -1.4399
   83MOL    H2144465   2.762   2.035   4.528  1.2123  0.5724  0.1521
   83MOL    H2244466   2.635   1.994   4.635 -0.0410 -0.0455 -0.7410
   83MOL    H2344467   2.863   2.296   4.928 -2.3519  2.3077  3.1260
   83MOL    H2444468   2.857   2.469   4.895 -0.0403  0.1069 -0.0144
   83MOL    H2544469   2.930   2.366   4.787 -0.3111 -1.1116  0.0633
   83MOL    H2644470   2.653   2.309   5.008 -2.1118  0.0674  0.9316
   83MOL    H2744471   2.548   2.240   4.894  0.9844 -1.5030  2.7709
   83MOL    H2844472   2.685   2.450   4.751  0.2065  0.4517 -0.3513
   83MOL    C2944473   1.798   2.402   4.466 -0.0480 -0.2313  0.5817
   83MOL    C3044474   1.896   2.447   4.574  0.7793 -0.0696 -0.3016
   83MOL    C3144475   2.043   2.401   4.550 -0.0346  0.1655 -0.0145
   83MOL    C3244476   2.136   2.415   4.676  0.6374 -0.0202  0.7634
   83MOL    C3344477   2.278   2.352   4.669 -0.3965 -0.7317 -0.5553
   83MOL    O3444478   2.350   2.353   4.791 -0.5114  0.2933  0.3611
   83MOL    C3544479   2.406   2.469   4.830 -0.8041 -0.7304 -0.3446
   83MOL    O3644480   2.396   2.581   4.787 -0.3166  0.4723 -0.3183
   83MOL    C3744481   2.496   2.442   4.958 -0.2325  0.3525  0.6337
   83MOL    C3844482   2.566   2.572   5.006  0.3689  0.8347  0.3071
   83MOL    C3944483   2.416   2.386   5.073 -0.3185 -0.0506 -0.1177
   83MOL    H4044484   1.700   2.449   4.475 -0.7057 -1.4438 -0.1270
   83MOL    H4144485   1.833   2.421   4.365 -0.2327 -0.0562  0.5515
   83MOL    H4244486   1.784   2.296   4.487 -0.1390  0.0774  2.1162
   83MOL    H4344487   1.864   2.405   4.670 -1.2919 -0.2010 -1.0283
   83MOL    H4444488   1.909   2.556   4.571  1.4047 -0.1005  0.9330
   83MOL    H4544489   2.088   2.444   4.461  1.3701 -2.7587 -0.7986
   83MOL    H4644490   2.044   2.294   4.528  1.6973  0.2245 -0.2764
   83MOL    H4744491   2.141   2.521   4.702  1.7455 -0.2774  1.6555
   83MOL    H4844492   2.093   2.358   4.759  0.7292 -0.6940  0.3512
   83MOL    H4944493   2.335   2.408   4.595  0.4350  1.3004  1.5491
   83MOL    H5044494   2.266   2.249   4.635 -0.7608 -1.4273  1.5792
   83MOL    H5144495   2.609   2.556   5.105 -1.8228  0.9661  1.3032
   83MOL    H5244496   2.506   2.663   4.996  0.1496  0.7732  1.0118
   83MOL    H5344497   2.661   2.591   4.954 -0.8791  0.0944 -2.3139
   83MOL    H5444498   2.494   2.375   5.149 -0.7335  0.0496  0.3228
   83MOL    H5544499   2.385   2.284   5.049 -0.8512 -0.2986  1.5574
   83MOL    C5644500   1.678   2.833   4.866  0.1993  0.4102 -0.7717
   83MOL    C5744501   1.762   2.845   4.996  0.1448 -0.2443 -0.1387
   83MOL    C5844502   1.818   2.708   5.033  0.4054  0.3417 -0.2054
   83MOL    C5944503   1.913   2.637   4.936  0.5166 -0.8738 -0.5536
   83MOL    C6044504   1.958   2.502   4.991  0.3219 -0.5671 -0.5072
   83MOL    O6144505   2.080   2.509   5.043 -0.1712  0.1420  0.0243
   83MOL    C6244506   2.159   2.409   5.049  0.0190  0.8164 -0.3789
   83MOL    O6344507   2.144   2.296   5.003 -0.2122  0.4132 -0.7580
   83MOL    C6444508   2.283   2.442   5.137 -0.7863 -0.1425  0.1440
   83MOL    C6544509   2.299   2.598   5.158 -0.6129  0.0163 -0.2762
   83MOL    C6644510   2.268   2.354   5.273 -0.0569  0.9388  0.1628
   83MOL    H6744511   1.747   2.817   4.783 -0.3208  0.3382 -1.1940
   83MOL    H6844512   1.611   2.916   4.848  2.5399  3.0959  2.4032
   83MOL    H6944513   1.614   2.744   4.867  1.2411 -0.3592  0.8124
   83MOL    H7044514   1.839   2.922   4.996 -0.3599  0.2630 -0.2219
   83MOL    H7144515   1.691   2.880   5.070  0.3478  0.6534 -0.3645
   83MOL    H7244516   1.871   2.724   5.126  0.1104 -1.5821  0.3130
   83MOL    H7344517   1.734   2.643   5.058  1.4641 -0.7839  0.5050
   83MOL    H7444518   1.996   2.705   4.917 -1.0567  1.4178  0.4069
   83MOL    H7544519   1.871   2.633   4.836  0.3856  0.3794 -0.5620
   83MOL    H7644520   1.889   2.453   5.060 -1.0566 -2.8910 -3.4406
   83MOL    H7744521   1.941   2.432   4.909  0.2743 -0.1232 -0.8771
   83MOL    H7844522   2.390   2.622   5.211 -1.4029 -0.9144  1.5466
   83MOL    H7944523   2.223   2.630   5.229 -0.9072  2.8974 -1.8259
   83MOL    H8044524   2.292   2.655   5.065 -3.3628  0.8611  0.4136
   83MOL    H8144525   2.353   2.372   5.338 -2.1471  1.1027  2.9408
   83MOL    H8244526   2.273   2.251   5.238  0.1438  1.0035  0.0036
   83MOL    C8344527   2.487   2.993   5.887  0.2142  0.0887 -0.0533
   83MOL    C8444528   2.497   2.905   5.758  0.4116 -0.5467 -0.4315
   83MOL    C8544529   2.376   2.813   5.735 -1.2460  0.2479  0.2519
   83MOL    C8644530   2.384   2.709   5.622  0.0148 -0.9686 -0.1376
   83MOL    C8744531   2.250   2.635   5.607 -0.0108 -0.4800  0.2010
   83MOL    O8844532   2.252   2.518   5.522  0.1968  0.8632  0.0890
   83MOL    C8944533   2.146   2.497   5.438  0.4273  0.3448 -0.7904
   83MOL    O9044534   2.044   2.572   5.422  0.2001 -0.4989 -0.6880
   83MOL    C9144535   2.153   2.358   5.377 -0.9834 -0.6703  0.3773
   83MOL    C9244536   2.011   2.322   5.312 -0.2195  0.0332 -0.1603
   83MOL    C9344537   2.191   2.252   5.488  0.3652  0.1607 -0.1987
   83MOL    H9444538   2.436   2.943   5.969 -1.1210  0.6521 -0.5313
   83MOL    H9544539   2.587   3.024   5.918  0.0898  0.7045 -0.2579
   83MOL    H9644540   2.443   3.087   5.852 -1.7962 -0.7581  0.1145
   83MOL    H9744541   2.585   2.842   5.774  0.8266 -0.1063 -0.9745
   83MOL    H9844542   2.513   2.967   5.670 -0.8513  0.1696 -0.1605
   83MOL    H9944543   2.284   2.871   5.723 -2.2717 -1.4108 -0.1324
   83MOL   H10044544   2.373   2.753   5.825 -1.8551  0.8651  0.6516
   83MOL   H10144545   2.472   2.646   5.638  0.1928 -0.4725  0.8971
   83MOL   H10244546   2.423   2.775   5.545 -0.5699  0.3971  0.7108
   83MOL   H10344547   2.169   2.706   5.589 -0.1967 -0.0813  2.4078
   83MOL   H10444548   2.215   2.589   5.700 -0.9053  1.3158  0.7704
   83MOL   H10544549   1.938   2.307   5.391 -1.1363 -3.1193 -1.5592
   83MOL   H10644550   2.015   2.224   5.266 -1.7960  0.0642 -0.3726
   83MOL   H10744551   1.967   2.387   5.236  0.3120  0.0775 -0.4369
   83MOL   H10844552   2.215   2.161   5.432  3.2601  0.8026 -0.1020
   83MOL   H10944553   2.294   2.263   5.524 -0.8110 -2.9420  4.5225
   83MOL   C11044554   1.914   1.751   5.013 -0.1456 -0.5045  0.2899
   83MOL   C11144555   1.896   1.674   5.147  0.4155  0.0702 -0.6806
   83MOL   C11244556   1.847   1.762   5.266 -0.0377  0.6893  0.5957
   83MOL   C11344557   1.941   1.877   5.296 -0.4339  0.2087  0.1273
   83MOL   C11444558   1.919   1.928   5.437 -0.9573  0.1024 -0.4942
   83MOL   O11544559   2.020   2.028   5.474  0.4452 -0.1322  0.4358
   83MOL   C11644560   1.986   2.120   5.562 -0.4434 -0.7671 -0.6408
   83MOL   O11744561   1.875   2.130   5.620  0.1750  0.1865  0.3641
   83MOL   C11844562   2.105   2.207   5.612  0.1322 -0.1171 -0.8479
   83MOL   C11944563   2.038   2.325   5.691  0.2579 -0.0435 -0.1739
   83MOL   C12044564   2.206   2.127   5.706 -0.3337 -0.3371 -0.0457
   83MOL   H12144565   1.957   1.683   4.939  0.8840  1.4760 -0.9442
   83MOL   H12244566   1.821   1.789   4.971  1.3045  1.1598 -1.4787
   83MOL   H12344567   1.978   1.838   5.024 -2.3527  1.3242 -1.0356
   83MOL   H12444568   1.832   1.586   5.136  2.2065 -1.5110  1.1436
   83MOL   H12544569   1.995   1.634   5.170 -0.4995 -0.5845  2.3484
   83MOL   H12644570   1.748   1.801   5.240  0.6406  2.2094  0.1984
   83MOL   H12744571   1.839   1.698   5.354 -0.1362  0.0910  0.1494
   83MOL   H12844572   1.934   1.960   5.225 -0.5880 -0.3792 -0.5535
   83MOL   H12944573   2.041   1.834   5.286 -0.8104 -0.4971 -0.6328
   83MOL   H13044574   1.816   1.948   5.467 -0.4610  0.3655  1.0974
   83MOL   H13144575   1.929   1.836   5.494 -1.8338 -0.4825 -1.2583
   83MOL   H13244576   1.992   2.285   5.781 -1.5544  0.9540 -0.6302
   83MOL   H13344577   2.107   2.402   5.725  1.2929 -0.7611 -0.6174
   83MOL   H13444578   1.961   2.372   5.629  0.5140  1.2771  0.5032
   83MOL   H13544579   2.245   2.052   5.637  0.5116  1.0155 -1.0691
   83MOL   H13644580   2.290   2.192   5.732  0.1949 -0.8934 -0.3389
   83MOL   C13744581   1.525   2.257   5.843 -0.2976 -0.4267  0.1467
   83MOL   C13844582   1.592   2.349   5.943  0.8795  0.2787 -0.0603
   83MOL   C13944583   1.740   2.326   5.978 -0.0927 -0.4760  0.2649
   83MOL   C14044584   1.757   2.191   6.053 -0.2886  0.2145 -0.5902
   83MOL   C14144585   1.904   2.168   6.079  0.1670  0.3233 -0.0013
   83MOL   O14244586   1.968   2.113   5.961 -0.5887  0.1569  0.0480
   83MOL   C14344587   2.109   2.117   5.948  0.9452 -0.1928 -0.4549
   83MOL   O14444588   2.181   2.183   6.026 -0.1948 -0.4959  0.2869
   83MOL   C14544589   2.180   2.034   5.835 -0.8028 -0.4064  0.0979
   83MOL   C14644590   2.096   1.912   5.807 -0.1310  0.7405 -0.2721
   83MOL   C14744591   2.323   1.980   5.887  0.1931 -0.7166 -0.1661
   83MOL   H14844592   1.501   2.158   5.882  0.5053 -0.5962  0.2125
   83MOL   H14944593   1.594   2.239   5.761  1.1469  0.7806  1.0794
   83MOL   H15044594   1.436   2.293   5.791 -0.8520 -1.7415  0.1554
   83MOL   H15144595   1.530   2.344   6.033  0.1923  1.7607 -0.4300
   83MOL   H15244596   1.584   2.450   5.902 -0.4580 -0.3348 -1.3558
   83MOL   H15344597   1.799   2.321   5.887  0.0700  1.9036  0.2252
   83MOL   H15444598   1.781   2.414   6.026  0.8626 -1.8712  2.0891
   83MOL   H15544599   1.720   2.182   6.155  2.8756  1.0967  0.7143
   83MOL   H15644600   1.709   2.109   5.999 -0.5627 -1.6294  2.3199
   83MOL   H15744601   1.918   2.089   6.153  2.1204 -1.4623 -2.2274
   83MOL   H15844602   1.956   2.261   6.101 -0.5251  0.9792 -1.0857
   83MOL   H15944603   2.126   1.867   5.713  0.6463  2.0563 -0.6599
   83MOL   H16044604   1.993   1.942   5.783 -0.4450 -0.1982 -0.1238
   83MOL   H16144605   2.090   1.836   5.885 -0.9574  0.6053 -0.4556
   83MOL   H16244606   2.385   1.948   5.803 -0.0978  2.9229 -1.8810
   83MOL   H16344607   2.388   2.067   5.902  1.7887 -1.8717 -0.3226
   83MOL   C16444608   1.701   1.609   5.928 -0.0575 -0.6208 -0.2291
   83MOL   C16544609   1.790   1.602   6.049  0.4774  0.6425 -0.5091
   83MOL   C16644610   1.838   1.737   6.097 -0.1961 -0.4215  0.7538
   83MOL   C16744611   1.933   1.725   6.218  0.1339  0.6045  0.3763
   83MOL   C16844612   2.037   1.835   6.222  0.1401  0.1753  0.0021
   83MOL   O16944613   2.129   1.832   6.114  0.2048 -0.7340  0.6059
   83MOL   C17044614   2.251   1.887   6.137 -0.5104  0.1147  0.4267
   83MOL   O17144615   2.293   1.932   6.249  0.2860  0.0664 -0.1696
   83MOL   C17244616   2.342   1.877   6.006 -0.2510 -0.2432 -0.1369
   83MOL   C17344617   2.481   1.922   6.057  0.1165 -0.0758 -0.2298
   83MOL   C17444618   2.351   1.737   5.939 -1.1434  0.4675  0.3517
   83MOL   H17544619   1.721   1.692   5.860 -3.0068  1.4237  1.2951
   83MOL   H17644620   1.595   1.619   5.954 -0.2893  0.1752 -1.4641
   83MOL   H17744621   1.695   1.515   5.873 -2.8591 -0.7018  0.1219
   83MOL   H17844622   1.876   1.542   6.022 -1.3899 -2.0488 -0.6469
   83MOL   H17944623   1.732   1.548   6.124  0.9292 -0.1246 -0.7121
   83MOL   H18044624   1.893   1.772   6.009  1.2704  0.8683  2.1511
   83MOL   H18144625   1.770   1.813   6.134 -0.4519 -1.3260  2.1784
   83MOL   H18244626   1.988   1.631   6.221  0.3290  0.7128  0.1822
   83MOL   H18344627   1.877   1.742   6.310  0.2258 -0.3916  0.6202
   83MOL   H18444628   2.083   1.836   6.321 -2.7318 -1.4983  1.4158
   83MOL   H18544629   1.994   1.934   6.231  1.2078  0.5275  1.5034
   83MOL   H18644630   2.508   1.876   6.152 -1.2507 -0.2717  0.0656
   83MOL   H18744631   2.487   2.030   6.074  1.8537 -0.0184 -1.0575
   83MOL   H18844632   2.561   1.890   5.990  0.8043 -1.1295  1.0799
   83MOL   H18944633   2.256   1.707   5.895 -0.0632 -1.9485 -0.4234
   83MOL   H19044634   2.411   1.747   5.848 -3.3406 -0.9973 -1.3162
   83MOL   C19144635   3.190   1.521   6.207 -0.0055  0.0811  0.0667
   83MOL   C19244636   3.035   1.514   6.170 -0.2555  0.7672 -0.1868
   83MOL   C19344637   3.006   1.513   6.014 -0.1387 -0.2411 -0.0063
   83MOL   C19444638   2.860   1.501   5.980 -0.4314 -0.0298 -0.5788
   83MOL   C19544639   2.799   1.640   5.974 -0.9555 -0.5335 -0.4313
   83MOL   O19644640   2.657   1.627   5.941 -0.3153  0.3621 -0.0267
   83MOL   C19744641   2.573   1.624   6.046  0.0307  0.0502  0.3271
   83MOL   O19844642   2.610   1.645   6.164 -0.0800 -0.3567 -0.3737
   83MOL   C19944643   2.417   1.606   6.008  0.2331  0.1273  0.1303
   83MOL   C20044644   2.419   1.495   5.902 -0.5172  0.6810 -0.4218
   83MOL   C20144645   2.335   1.565   6.136  0.1615  0.7005  0.3892
   83MOL   H20244646   3.197   1.506   6.315  0.8451  1.7868  0.2675
   83MOL   H20344647   3.234   1.436   6.154 -1.0174  0.3081 -1.1460
   83MOL   H20444648   3.243   1.603   6.158 -0.3508  1.0000  1.2233
   83MOL   H20544649   2.992   1.604   6.215 -0.1416  1.2757 -1.0857
   83MOL   H20644650   2.991   1.424   6.213  0.7621  0.0731 -0.5974
   83MOL   H20744651   3.057   1.423   5.979  2.1622  1.4122 -1.0749
   83MOL   H20844652   3.042   1.603   5.965  1.6451 -1.3375 -0.7669
   83MOL   H20944653   2.846   1.441   5.890 -0.2301  0.8803 -1.2207
   83MOL   H21044654   2.813   1.438   6.056  0.5331  0.2038  0.2223
   83MOL   H21144655   2.819   1.673   6.076  2.2339 -0.2686 -1.0870
   83MOL   H21244656   2.860   1.700   5.907  0.4903 -0.9154  0.5257
   83MOL   H21344657   2.319   1.462   5.874 -0.1557  0.2304 -1.2052
   83MOL   H21444658   2.463   1.399   5.929 -0.6294  0.4596 -1.0242
   83MOL   H21544659   2.454   1.525   5.803  2.2068  0.7909  0.5215
   83MOL   H21644660   2.234   1.600   6.116 -0.4378 -1.1976 -0.0888
   83MOL   H21744661   2.349   1.647   6.206  0.1144 -0.7384  2.1136
   83MOL   C21844662   1.997   1.546   5.572 -0.0571 -0.4543  0.2034
   83MOL   C21944663   2.060   1.420   5.633 -0.0478  0.4574  0.1253
   83MOL   C22044664   2.015   1.426   5.781 -0.4538 -0.2738  0.0386
   83MOL   C22144665   2.067   1.305   5.855 -0.4915  0.0624 -0.7678
   83MOL   C22244666   2.043   1.290   6.002  0.0075 -0.0199  0.2321
   83MOL   O22344667   2.134   1.372   6.079  0.3971  0.2246 -0.2270
   83MOL   C22444668   2.253   1.326   6.111 -0.2593 -0.1360  0.5539
   83MOL   O22544669   2.306   1.226   6.060  0.1952  0.0995  0.3685
   83MOL   C22644670   2.327   1.423   6.208  0.4016  0.0407 -0.0734
   83MOL   C22744671   2.235   1.444   6.326 -0.4864  0.3671 -0.5068
   83MOL   C22844672   2.471   1.374   6.246 -0.0274  0.5324 -0.0142
   83MOL   H22944673   1.894   1.521   5.545  0.4614 -0.2834 -1.9758
   83MOL   H23044674   2.012   1.631   5.638  0.0006  0.1371 -0.5733
   83MOL   H23144675   2.045   1.556   5.475 -0.8915 -0.3217 -0.1977
   83MOL   H23244676   2.169   1.419   5.641  0.0207 -0.5530 -0.7918
   83MOL   H23344677   2.024   1.341   5.567 -2.3937  2.7027 -1.3900
   83MOL   H23444678   1.906   1.421   5.779 -0.3887 -1.6057 -1.7819
   83MOL   H23544679   2.053   1.517   5.828  2.5304 -1.7454  0.5716
   83MOL   H23644680   2.029   1.211   5.814 -0.1247 -1.9111  3.1234
   83MOL   H23744681   2.174   1.290   5.839 -0.6054 -1.1599 -0.4406
   83MOL   H23844682   2.056   1.186   6.030  2.2425 -0.6149 -2.7207
   83MOL   H23944683   1.945   1.326   6.032 -0.2494 -0.6409  0.1403
   83MOL   H24044684   2.284   1.491   6.412 -2.0762 -2.8587  2.2847
   83MOL   H24144685   2.191   1.349   6.356 -2.6762  1.1240 -1.2301
   83MOL   H24244686   2.142   1.498   6.308  0.5714  2.0746 -1.0060
   83MOL   H24344687   2.522   1.456   6.297 -0.1831  0.5248  0.1557
   83MOL   H24444688   2.537   1.350   6.163  0.9014 -0.9911  1.1443
   83MOL   C24544689   2.228   1.818   6.783  0.2917  0.0711 -0.1639
   83MOL   C24644690   2.282   1.705   6.700 -0.2076  0.2304 -0.4799
   83MOL   C24744691   2.411   1.660   6.762 -0.8563  0.4137  0.1693
   83MOL   C24844692   2.492   1.569   6.668  0.0372 -0.0201  0.5410
   83MOL   C24944693   2.432   1.429   6.644  0.4355 -0.4044  0.2270
   83MOL   O25044694   2.510   1.361   6.544  0.5942  0.5691  0.3946
   83MOL   C25144695   2.449   1.267   6.469 -0.5442  0.4547 -0.5770
   83MOL   O25244696   2.352   1.208   6.494 -0.2486  0.1641 -0.3048
   83MOL   C25344697   2.515   1.248   6.328  0.2373  0.3041  0.3829
   83MOL   C25444698   2.666   1.264   6.333 -0.4330 -1.0066 -0.8907
   83MOL   C25544699   2.481   1.112   6.261 -0.5033  0.4058 -0.1228
   83MOL   H25644700   2.297   1.901   6.801  1.4337 -0.8036 -0.4326
   83MOL   H25744701   2.134   1.854   6.742  0.7758  1.3658 -0.1582
   83MOL   H25844702   2.200   1.780   6.881  1.1726 -2.8328 -0.9841
   83MOL   H25944703   2.208   1.627   6.684 -1.5729  0.4470  4.2369
   83MOL   H26044704   2.306   1.737   6.598  1.4685 -0.2244 -0.2396
   83MOL   H26144705   2.378   1.615   6.856 -1.0396  1.3375  0.5542
   83MOL   H26244706   2.475   1.745   6.787  2.7415 -2.4309  1.1813
   83MOL   H26344707   2.498   1.625   6.575 -2.5482  0.5794  0.6937
   83MOL   H26444708   2.590   1.550   6.711  0.2690  0.9320  0.4411
   83MOL   H26544709   2.444   1.358   6.726  1.5737  1.0872  1.3912
   83MOL   H26644710   2.325   1.446   6.634  0.8891  2.5094 -0.0524
   83MOL   H26744711   2.727   1.213   6.409  0.7836 -0.0516 -1.1980
   83MOL   H26844712   2.716   1.257   6.236 -1.0115  1.2362 -1.3745
   83MOL   H26944713   2.693   1.368   6.356  1.0725 -1.8101  1.1801
   83MOL   H27044714   2.373   1.116   6.270 -0.4641  1.4222 -0.0879
   83MOL   H27144715   2.510   1.128   6.157  1.2623  1.7777  0.5503
   83MOL   C27244716   3.333   1.131   6.304  0.4367 -0.2663 -0.1423
   83MOL   C27344717   3.182   1.148   6.320 -0.4740 -0.1763 -0.5919
   83MOL   C27444718   3.097   1.101   6.196 -0.2658 -0.1920 -0.6104
   83MOL   C27544719   2.948   1.112   6.238 -0.4774  0.5276 -0.7515
   83MOL   C27644720   2.865   1.013   6.159 -0.0669  0.0411  0.0098
   83MOL   O27744721   2.721   1.023   6.183  0.3175  0.2689  0.2667
   83MOL   C27844722   2.676   0.962   6.293 -0.7933 -0.6770  0.3703
   83MOL   O27944723   2.746   0.907   6.373  0.2441  0.4248 -0.2218
   83MOL   C28044724   2.526   0.971   6.309 -0.3232 -0.1546  0.1613
   83MOL   C28144725   2.483   0.936   6.458 -0.0964  0.0565 -0.0634
   83MOL   C28244726   2.464   0.877   6.206 -0.2030 -0.5343 -0.1727
   83MOL   H28344727   3.358   1.025   6.311  0.6565 -0.1429  1.1383
   83MOL   H28444728   3.370   1.168   6.209  3.1248 -1.7138  0.2872
   83MOL   H28544729   3.390   1.180   6.383  0.8451  1.7653 -1.6609
   83MOL   H28644730   3.148   1.084   6.401  0.7549 -2.1132 -1.5680
   83MOL   H28744731   3.171   1.255   6.340 -0.0422  0.0510 -1.5480
   83MOL   H28844732   3.124   1.158   6.107  2.0675  0.4102  0.4487
   83MOL   H28944733   3.126   0.997   6.182  1.2263 -0.0362  1.1531
   83MOL   H29044734   2.939   1.063   6.335  1.8571 -1.1701 -1.3326
   83MOL   H29144735   2.916   1.216   6.239  0.8379  0.9429  0.3802
   83MOL   H29244736   2.897   0.909   6.172  1.4961  0.7983  2.6971
   83MOL   H29344737   2.872   1.046   6.055  0.4087  1.1346  0.3851
   83MOL   H29444738   2.375   0.942   6.470 -0.1778  2.2264 -1.5241
   83MOL   H29544739   2.515   0.847   6.512  1.2850 -0.2833 -1.3940
   83MOL   H29644740   2.522   1.017   6.520  0.6428  1.1701 -1.9055
   83MOL   H29744741   2.359   0.868   6.233  0.5092 -1.0827  2.5876
   83MOL   H29844742   2.458   0.921   6.106 -0.3533 -0.4431 -0.1217
   83MOL   C29944743   2.540   0.691   5.464 -0.1282  0.4989  0.3354
   83MOL   C30044744   2.459   0.699   5.594 -0.3507  0.5756 -0.5501
   83MOL   C30144745   2.542   0.657   5.712  0.2529  0.4966  0.1311
   83MOL   C30244746   2.666   0.743   5.735  0.0149  0.3213  0.4071
   83MOL   C30344747   2.724   0.742   5.882  0.0921  0.0929  0.1017
   83MOL   O30444748   2.622   0.765   5.978 -0.0196 -0.6743  0.0318
   83MOL   C30544749   2.634   0.707   6.102  0.1881  0.3980  0.1427
   83MOL   O30644750   2.730   0.641   6.137  0.1273  0.2393 -0.1834
   83MOL   C30744751   2.503   0.724   6.184  0.0238  0.6321 -0.1658
   83MOL   C30844752   2.523   0.652   6.320 -0.4018 -0.7165 -0.4680
   83MOL   C30944753   2.383   0.655   6.101 -0.5639 -0.7761  0.0852
   83MOL   H31044754   2.484   0.709   5.372  0.9679 -2.9637 -1.0679
   83MOL   H31144755   2.595   0.600   5.443 -0.4017  0.0140  1.7320
   83MOL   H31244756   2.619   0.767   5.466  0.3027  0.0279  1.8346
   83MOL   H31344757   2.379   0.627   5.578  0.0103 -0.0633  0.4874
   83MOL   H31444758   2.419   0.800   5.600  2.1500  1.6819 -1.6603
   83MOL   H31544759   2.571   0.552   5.701  1.1950  0.7404  0.2651
   83MOL   H31644760   2.468   0.673   5.790  0.5400 -1.5745  0.8620
   83MOL   H31744761   2.643   0.850   5.730  2.9787  1.0311  0.9255
   83MOL   H31844762   2.748   0.723   5.666  0.3241  0.6826  0.6693
   83MOL   H31944763   2.766   0.642   5.885 -1.1933 -0.5817 -2.4953
   83MOL   H32044764   2.807   0.813   5.879  0.3221 -0.0559  2.3752
   83MOL   H32144765   2.613   0.687   6.370  0.8254 -3.5869 -0.5401
   83MOL   H32244766   2.450   0.642   6.400 -0.7387  0.3344 -0.6384
   83MOL   H32344767   2.552   0.549   6.300  0.9719 -0.3761 -0.2630
   83MOL   H32444768   2.361   0.727   6.022 -0.6500  0.9741  1.6747
   83MOL   H32544769   2.299   0.676   6.168 -3.0245 -1.4494 -2.6780
   83MOL   C32644770   1.877   0.970   5.623 -0.6269 -0.1373  0.6499
   83MOL   C32744771   1.993   0.878   5.660  0.3677  1.0041  0.2569
   83MOL   C32844772   1.945   0.760   5.744 -0.5602 -0.8742  0.0908
   83MOL   C32944773   2.055   0.712   5.834  0.6468  0.6161  0.1176
   83MOL   C33044774   2.030   0.579   5.914 -0.3694  0.6645 -0.1015
   83MOL   O33144775   2.136   0.560   6.010  0.3336  0.5969  0.1642
   83MOL   C33244776   2.248   0.490   5.970 -0.1060 -0.1015 -0.7575
   83MOL   O33344777   2.255   0.422   5.866  0.5676 -0.3397  0.1581
   83MOL   C33444778   2.362   0.498   6.077  0.1889 -1.1354  0.9106
   83MOL   C33544779   2.495   0.444   6.014  0.1932 -0.1978 -0.4708
   83MOL   C33644780   2.321   0.421   6.209 -0.3255  0.4594  0.0524
   83MOL   H33744781   1.902   1.057   5.561  3.0357 -1.5282  0.0476
   83MOL   H33844782   1.844   1.014   5.717 -2.4601 -3.7103  1.7492
   83MOL   H33944783   1.802   0.909   5.575  3.2167 -2.2601 -2.9996
   83MOL   H34044784   2.056   0.939   5.725  0.2786  3.7001 -2.0977
   83MOL   H34144785   2.048   0.838   5.575  0.2474 -0.3568  0.8083
   83MOL   H34244786   1.907   0.677   5.686  0.7878 -0.4483 -1.4288
   83MOL   H34344787   1.863   0.790   5.810 -1.4683 -1.0628 -0.9277
   83MOL   H34444788   2.082   0.793   5.902 -1.7826  0.0844  1.8099
   83MOL   H34544789   2.143   0.701   5.772 -0.7890  0.2780 -1.9203
   83MOL   H34644790   2.005   0.487   5.860 -0.7359 -0.3288  1.7074
   83MOL   H34744791   1.929   0.579   5.956 -0.2655 -1.7299  0.2408
   83MOL   H34844792   2.525   0.522   5.945 -1.8487 -0.2317 -1.4502
   83MOL   H34944793   2.472   0.351   5.963  1.2155 -1.3596  1.1505
   83MOL   H35044794   2.576   0.426   6.084  1.1184  0.3270 -1.4026
   83MOL   H35144795   2.234   0.482   6.235 -1.7703 -0.8250 -1.6114
   83MOL   H35244796   2.389   0.444   6.290  2.1126  2.4683 -2.4942
   83MOL   C35344797   1.446   0.244   6.236 -0.3644 -0.3116 -0.4845
   83MOL   C35444798   1.592   0.265   6.287 -0.3708 -0.8372  0.5134
   83MOL   C35544799   1.691   0.295   6.170  0.0341 -0.2133  0.3522
   83MOL   C35644800   1.829   0.299   6.234 -0.6241 -0.2228  0.2787
   83MOL   C35744801   1.928   0.279   6.123  0.2823  0.2552  0.3892
   83MOL   O35844802   2.050   0.318   6.180 -0.5324  0.2083  0.2933
   83MOL   C35944803   2.158   0.239   6.142 -0.2211 -0.2723 -0.5823
   83MOL   O36044804   2.167   0.167   6.043  0.2331  0.3145  0.2338
   83MOL   C36144805   2.285   0.269   6.229 -0.7104  0.4745 -0.6348
   83MOL   C36244806   2.245   0.250   6.373 -0.4895 -0.2061 -0.2269
   83MOL   C36344807   2.403   0.177   6.187 -0.0824 -0.3925  0.5746
   83MOL   H36444808   1.425   0.166   6.164  3.9607 -4.3039  2.2974
   83MOL   H36544809   1.386   0.333   6.214  0.3262 -0.0644 -1.3812
   83MOL   H36644810   1.386   0.224   6.325 -1.3920  1.9826 -0.6035
   83MOL   H36744811   1.583   0.341   6.364 -2.0536 -1.2082  0.6939
   83MOL   H36844812   1.631   0.173   6.332 -1.4976 -1.7314 -0.2870
   83MOL   H36944813   1.664   0.384   6.114  0.2801  1.1161  2.3181
   83MOL   H37044814   1.684   0.202   6.113 -1.7176  0.1028  0.0195
   83MOL   H37144815   1.832   0.215   6.304 -0.5350 -1.5382 -1.2622
   83MOL   H37244816   1.846   0.391   6.289 -1.4614  0.2144 -0.1911
   83MOL   H37344817   1.931   0.174   6.092 -0.6703 -0.0408  1.2252
   83MOL   H37444818   1.909   0.347   6.041 -0.0802 -1.8695 -1.3378
   83MOL   H37544819   2.211   0.156   6.416 -1.5959 -0.3024 -1.2730
   83MOL   H37644820   2.318   0.295   6.440  0.5310 -1.1366 -0.6923
   83MOL   H37744821   2.163   0.320   6.389  0.2811  0.4881  0.7159
   83MOL   H37844822   2.401   0.164   6.079 -1.4485  0.9378  0.4214
   83MOL   H37944823   2.501   0.223   6.188 -0.2740  0.0128  0.4190
   83MOL   C38044824   2.753   0.605   6.634  0.3269 -0.2652  0.0232
   83MOL   C38144825   2.807   0.469   6.593  0.0999 -0.3957 -0.1476
   83MOL   C38244826   2.698   0.368   6.594  0.6194 -0.1129 -0.1975
   83MOL   C38344827   2.748   0.220   6.566  0.0023  0.1399  0.1675
   83MOL   C38444828   2.632   0.121   6.561  0.1805 -0.2663 -0.4054
   83MOL   O38544829   2.563   0.127   6.433  0.2429  0.4116 -0.4526
   83MOL   C38644830   2.466   0.038   6.402 -0.6751  0.7556 -0.4087
   83MOL   O38744831   2.413   7.784   6.491  0.3440  0.3038  0.3016
   83MOL   C38844832   2.428   0.030   6.246 -0.2502 -0.6704 -0.1188
   83MOL   C38944833   2.297   7.763   6.224 -0.6569  0.9697 -0.3316
   83MOL   C39044834   2.546   7.792   6.154 -0.5196 -0.7245  0.0544
   83MOL   H39144835   2.822   0.689   6.623  2.0848 -1.7603 -0.5913
   83MOL   H39244836   2.675   0.631   6.562  0.4466  0.3567  0.1126
   83MOL   H39344837   2.699   0.612   6.728 -0.6010  2.7987 -0.6942
   83MOL   H39444838   2.891   0.438   6.655  1.2935  0.5101 -1.2932
   83MOL   H39544839   2.847   0.470   6.492  0.0661  0.0493 -0.1557
   83MOL   H39644840   2.637   0.361   6.684  0.8892 -0.7932 -0.0643
   83MOL   H39744841   2.626   0.403   6.520 -0.2390 -0.1577  0.6139
   83MOL   H39844842   2.809   0.226   6.476 -0.7434  3.6623 -0.1975
   83MOL   H39944843   2.833   0.192   6.628  2.0260  0.8933 -2.1803
   83MOL   H40044844   2.569   0.147   6.646 -0.2633  2.0070 -1.3672
   83MOL   H40144845   2.676   0.022   6.570  2.8919  0.7156 -2.1412
   83MOL   H40244846   2.276   7.729   6.123 -0.5791  0.1412 -0.0732
   83MOL   H40344847   2.213   0.004   6.268  0.2019  0.5928  1.8183
   83MOL   H40444848   2.299   7.674   6.287  1.5333  0.4212 -1.1426
   83MOL   H40544849   2.625   0.053   6.162  0.7122 -1.9658 -0.4483
   83MOL   H40644850   2.509   7.787   6.052 -0.3300  0.2540 -0.0687
   83MOL   C40744851   1.910   7.544   5.945 -0.7798  0.3197 -0.2105
   83MOL   C40844852   1.975   7.440   6.033  0.3854  0.4675 -0.1637
   83MOL   C40944853   2.111   7.390   5.995 -0.1263  0.2224  0.2245
   83MOL   C41044854   2.211   7.488   6.047  0.0748 -0.1459 -0.2364
   83MOL   C41144855   2.350   7.420   6.030  0.4211  0.6696 -0.0310
   83MOL   O41244856   2.462   7.511   6.052 -0.3455 -0.4748  0.1600
   83MOL   C41344857   2.516   7.535   6.173 -0.0971 -0.5476 -0.2577
   83MOL   O41444858   2.476   7.471   6.274  0.5891 -0.4166 -0.1055
   83MOL   C41544859   2.616   7.658   6.179  0.0077  0.0504  0.0224
   83MOL   C41644860   2.723   7.635   6.065 -0.2101  0.4577  0.7036
   83MOL   C41744861   2.696   7.662   6.320 -0.8320 -0.6888 -0.0949
   83MOL   H41844862   1.911   7.517   5.840  2.1070 -0.0829 -0.1294
   83MOL   H41944863   1.804   7.550   5.968 -0.8279 -0.7676 -0.1464
   83MOL   H42044864   1.964   7.636   5.967 -0.8930  0.4299 -0.3986
   83MOL   H42144865   1.900   7.361   6.039  2.6641 -1.8403 -1.2434
   83MOL   H42244866   1.981   7.455   6.141  0.8084 -0.6937 -0.0165
   83MOL   H42344867   2.117   7.288   6.034 -1.0829 -0.3731 -1.1342
   83MOL   H42444868   2.114   7.397   5.886  2.7305  1.0280  0.2961
   83MOL   H42544869   2.190   7.513   6.151  0.4941  0.1870 -0.2316
   83MOL   H42644870   2.208   7.579   5.987  2.5613 -0.2360 -0.5555
   83MOL   H42744871   2.354   7.334   6.097  1.4821  1.6040  1.1359
   83MOL   H42844872   2.361   7.389   5.927  0.0221  3.6933 -1.0257
   83MOL   H42944873   2.677   7.638   5.966  3.2175  0.4463 -0.9847
   83MOL   H43044874   2.767   7.537   6.083  0.5723  0.6385 -0.1993
   83MOL   H43144875   2.801   7.709   6.083  0.7680  0.4749 -3.2023
   83MOL   H43244876   2.607   7.653   6.383 -0.9771 -3.5099 -0.6126
   83MOL   H43344877   2.728   7.760   6.353 -1.6115 -0.3772 -0.2493
   83MOL   C43444878   3.369   0.290   6.088  0.6157  0.0893  0.1078
   83MOL   C43544879   3.278   0.224   6.191 -0.4406  0.2904  0.1690
   83MOL   C43644880   3.133   0.224   6.144 -0.3048  0.4678  0.6466
   83MOL   C43744881   3.056   0.130   6.236  0.3369 -1.1580 -0.3666
   83MOL   C43844882   3.077   7.794   6.223  0.4758  0.7291  0.0112
   83MOL   O43944883   2.970   7.733   6.294  0.1709  0.2461  0.0860
   83MOL   C44044884   2.942   7.602   6.292 -0.1947 -0.0160  0.2125
   83MOL   O44144885   3.019   7.513   6.261  0.4595 -0.5616 -0.0517
   83MOL   C44244886   2.808   7.564   6.363 -0.0192  0.7829 -0.8282
   83MOL   C44344887   2.773   7.414   6.338  0.4116  0.5693  0.6006
   83MOL   C44444888   2.844   7.596   6.515 -0.8117 -0.4045 -0.2453
   83MOL   H44544889   3.336   0.391   6.067 -0.2243 -0.2157 -0.0774
   83MOL   H44644890   3.472   0.289   6.123  0.5909  1.5933  0.2511
   83MOL   H44744891   3.380   0.228   5.998  1.1124 -0.8800  0.8311
   83MOL   H44844892   3.326   0.130   6.219  0.4811  0.8707  0.5799
   83MOL   H44944893   3.283   0.281   6.283 -0.8043 -1.1491  1.1031
   83MOL   H45044894   3.082   0.320   6.159 -2.4106 -0.7829  1.7932
   83MOL   H45144895   3.110   0.197   6.041  0.4319 -1.0664  0.8730
   83MOL   H45244896   2.952   0.152   6.213  0.3304  0.6098  1.2667
   83MOL   H45344897   3.066   0.172   6.336 -0.1792 -0.6872 -0.5098
   83MOL   H45444898   3.176   7.774   6.263 -0.4497  0.2964  2.1347
   83MOL   H45544899   3.070   7.750   6.124  2.1426 -0.3086  0.3532
   83MOL   H45644900   2.751   7.393   6.233 -1.3127  1.7441  0.7129
   83MOL   H45744901   2.854   7.352   6.377  0.3601  1.2445  1.8043
   83MOL   H45844902   2.687   7.375   6.393  0.6874  0.8450  1.2354
   83MOL   H45944903   2.855   7.704   6.524  2.5771 -0.5343 -2.0223
   83MOL   H46044904   2.942   7.549   6.520 -0.5296  0.2786  0.7705
   83MOL   C46144905   2.721   0.371   7.185 -0.0252 -0.2294  0.3187
   83MOL   C46244906   2.727   0.328   7.042 -0.8873  0.3496 -0.2449
   83MOL   C46344907   2.763   0.184   7.036 -0.2682 -0.4127  0.0127
   83MOL   C46444908   2.775   0.121   6.898 -0.2504 -0.8412  0.5135
   83MOL   C46544909   2.805   7.787   6.914  0.0405  0.3922  0.0121
   83MOL   O46644910   2.789   7.717   6.788 -0.3614  0.0823  0.9305
   83MOL   C46744911   2.832   7.594   6.773 -0.2017  0.3510  0.0727
   83MOL   O46844912   2.896   7.530   6.856  0.1288 -0.4672 -0.0603
   83MOL   C46944913   2.782   7.527   6.642 -0.4270  0.1206 -0.4638
   83MOL   C47044914   2.827   7.372   6.641 -0.0665  0.5477  0.0996
   83MOL   C47144915   2.628   7.540   6.637  0.4828 -0.3419  0.2032
   83MOL   H47244916   2.788   0.327   7.260  1.1963  1.6741  0.3883
   83MOL   H47344917   2.620   0.364   7.226 -0.3457  4.1496  0.4976
   83MOL   H47444918   2.743   0.477   7.181 -1.7695  0.1399  0.2097
   83MOL   H47544919   2.810   0.381   6.994 -0.3680  1.6561  1.9950
   83MOL   H47644920   2.646   0.365   6.980 -1.4637  2.2589  1.5693
   83MOL   H47744921   2.683   0.127   7.082 -1.1949 -1.3856 -2.6999
   83MOL   H47844922   2.853   0.164   7.093 -0.8594  0.2953  1.2087
   83MOL   H47944923   2.855   0.170   6.842  0.0222 -0.3890  1.3008
   83MOL   H48044924   2.680   0.118   6.844 -0.7773 -0.3641  1.4125
   83MOL   H48144925   2.903   7.777   6.961  0.8432 -2.5241 -2.1685
   83MOL   H48244926   2.739   7.736   6.984 -0.5571  0.0370 -0.8019
   83MOL   H48344927   2.933   7.355   6.627 -0.3195 -0.4824 -0.6475
   83MOL   H48444928   2.772   7.329   6.558  1.8012  3.5888 -2.8450
   83MOL   H48544929   2.796   7.330   6.737 -6.3776  1.3428 -1.3212
   83MOL   H48644930   2.602   7.511   6.535  3.5410 -0.1295 -0.6999
   83MOL   H48744931   2.599   7.644   6.647  0.6860 -0.0575 -1.8980
   83MOL   C48844932   1.888   7.128   6.534  0.0383 -0.0818  0.4466
   83MOL   C48944933   2.011   7.164   6.444  0.2067 -0.0432  0.1732
   83MOL   C49044934   2.140   7.194   6.518 -0.5343  0.7512  0.5024
   83MOL   C49144935   2.239   7.234   6.413 -0.5909  0.1489 -0.0259
   83MOL   C49244936   2.385   7.225   6.460  0.5212 -0.5497 -0.4016
   83MOL   O49344937   2.412   7.336   6.542 -0.2092  0.0850 -0.4707
   83MOL   C49444938   2.500   7.323   6.652 -0.0199 -0.4748 -0.2886
   83MOL   O49544939   2.549   7.219   6.700  0.1007  0.3845  0.0254
   83MOL   C49644940   2.528   7.461   6.726 -0.0346 -0.2108  0.2884
   83MOL   C49744941   2.398   7.545   6.716 -0.7058 -0.5811  0.3868
   83MOL   C49844942   2.576   7.451   6.879  0.1142  0.1130  0.1090
   83MOL   H49944943   1.853   7.218   6.586 -0.4081 -0.2098  0.3754
   83MOL   H50044944   1.815   7.103   6.457  1.2302  0.1619 -0.7755
   83MOL   H50144945   1.902   7.043   6.600 -2.0716 -0.3055  0.6358
   83MOL   H50244946   1.987   7.254   6.387  1.8013  0.9411  1.0180
   83MOL   H50344947   2.022   7.080   6.375 -0.7718  0.0504 -0.1077
   83MOL   H50444948   2.124   7.280   6.583  0.4722  2.2133 -1.1507
   83MOL   H50544949   2.172   7.100   6.562  2.2154 -0.1420 -3.1099
   83MOL   H50644950   2.223   7.339   6.390 -0.4214  0.6261  1.9868
   83MOL   H50744951   2.226   7.177   6.320 -0.9993  1.1684 -0.6039
   83MOL   H50844952   2.401   7.134   6.518 -1.2375  1.0956  2.7909
   83MOL   H50944953   2.461   7.229   6.382  1.3793  1.2871  0.4962
   83MOL   H51044954   2.383   7.574   6.612  0.0266 -1.6272 -0.0116
   83MOL   H51144955   2.401   7.637   6.775  1.2655 -0.4931  0.1643
   83MOL   H51244956   2.306   7.493   6.746  0.6876 -2.4816  1.4633
   83MOL   H51344957   2.627   7.542   6.911 -1.7821  0.2415  2.9485
   83MOL   H51444958   2.660   7.382   6.884 -0.2065 -0.4346 -1.8475
   83MOL   C51544959   2.477   0.256   7.505 -0.0393 -1.0709  0.6804
   83MOL   C51644960   2.506   0.108   7.478 -0.0342  1.0390  0.2841
   83MOL   C51744961   2.423   0.075   7.358 -0.1255  0.0052  0.5651
   83MOL   C51844962   2.451   7.753   7.289 -0.0268  0.8219  0.3508
   83MOL   C51944963   2.387   7.741   7.151 -0.1397  0.0016 -0.2088
   83MOL   O52044964   2.453   7.629   7.092 -0.0693  0.1263  0.3164
   83MOL   C52144965   2.387   7.514   7.063  0.0132 -0.1023 -0.0756
   83MOL   O52244966   2.266   7.497   7.086 -0.1994 -0.0886  0.1965
   83MOL   C52344967   2.480   7.398   6.998 -0.0411 -0.2700 -0.3810
   83MOL   C52444968   2.560   7.352   7.121  0.2116 -0.6354 -0.9215
   83MOL   C52544969   2.384   7.283   6.949 -0.1414  0.4501  0.9168
   83MOL   H52644970   2.495   0.275   7.610  0.3620  1.7432  0.1422
   83MOL   H52744971   2.544   0.323   7.451 -0.2257 -1.7358 -0.3962
   83MOL   H52844972   2.374   0.286   7.486 -0.2902 -1.2084  1.8160
   83MOL   H52944973   2.612   0.094   7.454 -0.5947 -1.2750 -0.9759
   83MOL   H53044974   2.462   0.047   7.557  0.2159  0.6212  0.1026
   83MOL   H53144975   2.316   0.066   7.379  0.2139 -2.3637  1.4029
   83MOL   H53244976   2.436   0.145   7.276 -1.4396  1.6756  1.7342
   83MOL   H53344977   2.421   7.665   7.345  0.2482  0.3125 -0.2993
   83MOL   H53444978   2.558   7.751   7.267 -0.2204  1.2594 -0.6433
   83MOL   H53544979   2.278   7.740   7.164 -0.3444 -3.5945 -1.7232
   83MOL   H53644980   2.413   0.007   7.082  1.7280  0.7084  1.2482
   83MOL   H53744981   2.622   7.263   7.116 -0.8314 -1.4869  0.9959
   83MOL   H53844982   2.505   7.331   7.213  0.8780 -3.0478 -1.0493
   83MOL   H53944983   2.632   7.433   7.135  0.4896 -1.2241  1.2748
   83MOL   H54044984   2.437   7.195   6.910 -0.0660  1.3769 -1.1106
   83MOL   H54144985   2.306   7.314   6.881  1.3623  2.0818 -0.0924
   83MOL   H54244986   2.322   7.242   7.029  0.3306 -0.6760  0.7190
   84MOL     C144987   1.166   6.930   1.254 -0.3357 -0.3125  0.5102
   84MOL     C244988   1.127   6.996   1.386 -0.5405  0.1655 -0.2575
   84MOL     C344989   1.005   7.084   1.379 -0.4416  0.1856 -0.1078
   84MOL     C444990   0.962   7.118   1.521 -0.0775 -0.2217  0.2306
   84MOL     C544991   0.840   7.210   1.516  0.0267  0.1206 -0.9678
   84MOL     O644992   0.797   7.242   1.648 -0.5473 -0.3508 -0.3662
   84MOL     C744993   0.707   7.163   1.708  0.5228  0.2504  0.0542
   84MOL     O844994   0.644   7.069   1.664 -0.2815  0.1459  0.2631
   84MOL     C944995   0.691   7.206   1.857  0.4347 -0.0919  0.9386
   84MOL    C1044996   0.639   7.349   1.870  0.0788  0.2501 -0.8148
   84MOL    C1144997   0.818   7.179   1.937 -0.5544  0.4197  0.3934
   84MOL    H1244998   1.093   6.858   1.217 -1.7659  1.3694 -0.0439
   84MOL    H1344999   1.256   6.869   1.262  2.0251  3.2274  2.0802
   84MOL    H1445000   1.185   7.003   1.175 -0.5233  0.3321  1.0606
   84MOL    H1545001   1.116   6.920   1.464  0.9853  0.3636  0.1644
   84MOL    H1645002   1.210   7.055   1.424 -0.8921  0.7725 -0.4293
   84MOL    H1745003   1.021   7.171   1.317  1.7539 -1.9466 -2.6608
   84MOL    H1845004   0.928   7.039   1.317 -1.4348  0.7898  0.6760
   84MOL    H1945005   1.044   7.166   1.575 -0.5963  1.6349 -0.5631
   84MOL    H2045006   0.943   7.020   1.563 -0.7208 -1.1349 -2.1382
   84MOL    H2145007   0.872   7.306   1.476 -2.7373  1.9687  1.0563
   84MOL    H2245008   0.758   7.167   1.457 -0.7649 -0.0707  0.2552
   84MOL    H2345009   0.588   7.372   1.963 -0.3759 -0.3320 -0.9214
   84MOL    H2445010   0.558   7.362   1.798  0.8349  0.3133 -1.6662
   84MOL    H2545011   0.709   7.433   1.868  1.8798 -1.2083  0.0302
   84MOL    H2645012   0.814   7.262   2.007 -0.1838  0.7782 -0.0043
   84MOL    H2745013   0.905   7.196   1.873 -0.4005 -0.2743  0.4207
   84MOL    H2845014   0.616   7.141   1.901 -0.3389  0.8947  1.1128
   84MOL    C2945015   0.460   6.374   1.872 -0.6391  0.0087  0.5030
   84MOL    C3045016   0.600   6.361   1.923  0.6124 -0.6469  0.0844
   84MOL    C3145017   0.698   6.459   1.854 -0.0910  0.7738  0.3777
   84MOL    C3245018   0.698   6.591   1.928 -0.3165 -0.0170 -0.5044
   84MOL    C3345019   0.814   6.687   1.890  0.3430 -0.0950  0.0651
   84MOL    O3445020   0.799   6.809   1.968 -0.0030 -0.1929 -0.1357
   84MOL    C3545021   0.844   6.919   1.916 -0.0790  0.0279 -0.2215
   84MOL    O3645022   0.903   6.932   1.807 -0.5618  0.1856 -0.0403
   84MOL    C3745023   0.834   7.046   2.008 -0.0992 -0.2964 -0.3941
   84MOL    C3845024   0.711   7.024   2.099  0.3332 -0.1015 -0.3664
   84MOL    C3945025   0.958   7.045   2.100 -0.6933 -0.0084 -1.0704
   84MOL    H4045026   0.398   6.318   1.942 -0.3228 -1.3846 -0.3212
   84MOL    H4145027   0.424   6.476   1.859  1.7731  0.5111 -3.0549
   84MOL    H4245028   0.448   6.318   1.779  3.1745 -1.0242  0.5479
   84MOL    H4345029   0.639   6.267   1.885 -0.3188 -0.9770 -0.0566
   84MOL    H4445030   0.610   6.369   2.031 -0.6784 -0.1523  0.1793
   84MOL    H4545031   0.674   6.483   1.750  0.7039 -0.5367 -0.1285
   84MOL    H4645032   0.798   6.415   1.852 -0.8770 -1.0293 -0.3992
   84MOL    H4745033   0.601   6.639   1.921 -1.2535 -1.9595 -1.2870
   84MOL    H4845034   0.701   6.572   2.035  0.9411  1.9863 -0.1705
   84MOL    H4945035   0.827   6.706   1.784 -0.8823 -0.1354 -0.1027
   84MOL    H5045036   0.903   6.642   1.935 -0.2276  0.9235  2.2802
   84MOL    H5145037   0.737   6.945   2.170 -0.7963 -2.7183 -2.7830
   84MOL    H5245038   0.629   6.970   2.053  2.1933 -1.0043 -2.7513
   84MOL    H5345039   0.672   7.107   2.157  0.3484  0.2980 -0.9218
   84MOL    H5445040   1.036   7.024   2.027 -0.0384 -1.4013 -0.0088
   84MOL    H5545041   0.958   6.954   2.161 -1.7822  0.2199 -0.7178
   84MOL    C5645042   0.756   6.760   2.708 -0.1084 -0.0934 -0.3759
   84MOL    C5745043   0.652   6.830   2.618 -0.9897  0.5070 -0.0424
   84MOL    C5845044   0.696   6.938   2.522  0.0079  0.3340 -0.8221
   84MOL    C5945045   0.747   7.064   2.586  0.7746 -0.7715 -0.0773
   84MOL    C6045046   0.785   7.172   2.483  0.4481  0.2768  1.1166
   84MOL    O6145047   0.853   7.122   2.369  0.1973 -0.5281 -0.9503
   84MOL    C6245048   0.910   7.218   2.293  0.1628  0.4569 -0.1722
   84MOL    O6345049   0.901   7.341   2.309 -0.1822  0.0092 -0.5869
   84MOL    C6445050   1.013   7.153   2.196 -0.9091 -0.0614  0.9222
   84MOL    C6545051   1.076   7.273   2.109 -0.3014 -0.2208 -0.4963
   84MOL    C6645052   1.126   7.083   2.283  0.3235  0.2898  0.3436
   84MOL    H6745053   0.709   6.672   2.753 -0.5416 -0.1966 -1.0211
   84MOL    H6845054   0.794   6.823   2.788 -2.3488  0.9271 -0.0930
   84MOL    H6945055   0.833   6.718   2.643  1.4866 -0.0091  1.4125
   84MOL    H7045056   0.597   6.754   2.563 -1.0134 -1.0737  2.0845
   84MOL    H7145057   0.584   6.874   2.691  0.0960 -0.1735  1.4015
   84MOL    H7245058   0.776   6.901   2.457  1.5957 -0.4706  1.5086
   84MOL    H7345059   0.614   6.965   2.457 -1.3142 -1.1580  0.1821
   84MOL    H7445060   0.834   7.045   2.648 -0.5155 -0.3097  1.9078
   84MOL    H7545061   0.678   7.112   2.654  0.4015  0.7961 -1.5141
   84MOL    H7645062   0.695   7.213   2.437  0.9080  0.4581  0.3689
   84MOL    H7745063   0.850   7.246   2.528 -1.9860  2.4240  1.2031
   84MOL    H7845064   1.120   7.344   2.179 -0.0220 -3.1748  2.4497
   84MOL    H7945065   1.006   7.324   2.043 -1.4039 -1.6788 -0.4689
   84MOL    H8045066   1.163   7.237   2.054 -0.9065 -1.1900 -0.8311
   84MOL    H8145067   1.189   7.046   2.202 -0.4913 -0.0166 -0.1517
   84MOL    H8245068   1.082   6.991   2.322 -0.6876  0.2480 -0.9040
   84MOL    C8345069   1.825   6.911   2.153  0.3395 -0.2494 -0.7652
   84MOL    C8445070   1.801   7.062   2.169  0.0449  0.4581 -0.5446
   84MOL    C8545071   1.649   7.102   2.169 -0.1283  0.0361 -0.3358
   84MOL    C8645072   1.617   7.250   2.197 -0.0987 -0.3035  0.5947
   84MOL    C8745073   1.475   7.296   2.162  0.5004 -0.0267 -0.2591
   84MOL    O8845074   1.365   7.219   2.231 -0.0621  0.6703 -0.4855
   84MOL    C8945075   1.307   7.253   2.356 -0.8078  0.3386 -0.0860
   84MOL    O9045076   1.321   7.367   2.398  0.3991  0.2921 -0.2687
   84MOL    C9145077   1.212   7.138   2.407  0.7474 -0.3290 -0.2290
   84MOL    C9245078   1.123   7.188   2.522  0.0643 -0.2945  0.3197
   84MOL    C9345079   1.300   7.013   2.452 -0.6979  0.1295  0.3829
   84MOL    H9445080   1.792   6.878   2.054  0.0745  0.1323 -0.8046
   84MOL    H9545081   1.929   6.881   2.161  0.7374 -0.2417 -4.7454
   84MOL    H9645082   1.762   6.857   2.224 -2.3016  3.1375 -0.4243
   84MOL    H9745083   1.860   7.120   2.097  1.1727  1.2539  0.9865
   84MOL    H9845084   1.849   7.102   2.258 -1.0945  0.3732  0.1157
   84MOL    H9945085   1.606   7.052   2.255 -0.0172  1.5527  0.6247
   84MOL   H10045086   1.602   7.062   2.079  0.2517  0.3495 -0.6800
   84MOL   H10145087   1.700   7.308   2.155  0.7140 -1.2032  0.9600
   84MOL   H10245088   1.627   7.270   2.303 -1.5155  0.4202  0.6120
   84MOL   H10345089   1.458   7.291   2.054 -0.3332 -1.0318 -0.0855
   84MOL   H10445090   1.454   7.401   2.185 -2.0559 -0.3469 -0.9260
   84MOL   H10545091   1.076   7.284   2.500 -0.2339 -0.0646  1.9111
   84MOL   H10645092   1.189   7.217   2.604  0.1332  4.8815 -1.3484
   84MOL   H10745093   1.039   7.121   2.540 -2.2611  2.8267  1.5685
   84MOL   H10845094   1.234   6.927   2.465  0.1378 -0.6047 -0.2059
   84MOL   H10945095   1.362   7.003   2.364  0.6534  1.8562  1.1236
   84MOL   C11045096   1.795   7.032   3.057 -0.3820 -0.6411  0.2321
   84MOL   C11145097   1.733   6.898   3.105 -0.1462  0.0964  0.1251
   84MOL   C11245098   1.613   6.855   3.009  0.8104 -0.5658  0.2087
   84MOL   C11345099   1.482   6.925   3.043  0.0369 -0.0312 -0.1906
   84MOL   C11445100   1.367   6.894   2.935  0.5322 -0.4813 -0.2856
   84MOL   O11545101   1.405   6.968   2.812  0.5791 -0.1704  0.5149
   84MOL   C11645102   1.326   6.964   2.708 -0.0947  0.2094  0.5560
   84MOL   O11745103   1.216   6.915   2.706 -0.0159  0.3107 -0.7026
   84MOL   C11845104   1.395   7.011   2.576  0.4187 -0.5190  0.4016
   84MOL   C11945105   1.467   7.145   2.600 -0.3555  0.4822 -0.7836
   84MOL   C12045106   1.519   6.903   2.546  0.4066  0.1539  0.6665
   84MOL   H12145107   1.874   7.009   2.986  1.7647  2.0105  1.6961
   84MOL   H12245108   1.730   7.103   3.007 -0.1319  0.0337  0.8593
   84MOL   H12345109   1.845   7.087   3.137  2.4122  1.0786 -2.5953
   84MOL   H12445110   1.819   6.831   3.099  0.3435  0.8052 -0.8750
   84MOL   H12545111   1.696   6.895   3.208 -1.5004 -0.8132 -0.3677
   84MOL   H12645112   1.642   6.898   2.913 -2.2162  0.0173 -0.4986
   84MOL   H12745113   1.605   6.748   2.991 -0.0167 -0.8427  2.1082
   84MOL   H12845114   1.512   7.030   3.035  1.0061 -0.3018 -0.0998
   84MOL   H12945115   1.450   6.907   3.145  2.0141 -0.2131  0.4220
   84MOL   H13045116   1.358   6.785   2.934 -0.6451 -0.3828 -0.3106
   84MOL   H13145117   1.279   6.947   2.971  2.7669  2.4630  1.0259
   84MOL   H13245118   1.399   7.230   2.599 -0.2861  0.6011  1.8436
   84MOL   H13345119   1.511   7.150   2.699 -0.1236  0.8161 -0.9022
   84MOL   H13445120   1.541   7.163   2.522  1.5330 -2.6810  0.2056
   84MOL   H13545121   1.576   6.954   2.469 -1.3171  2.2065  0.7026
   84MOL   H13645122   1.586   6.908   2.632 -0.5053 -2.3267  1.5723
   84MOL   C13745123   0.854   6.354   2.382 -0.2003 -0.0071  0.2716
   84MOL   C13845124   0.895   6.493   2.328  0.2337  0.4705 -0.1923
   84MOL   C13945125   1.047   6.514   2.311  0.0847 -0.3143  0.0420
   84MOL   C14045126   1.074   6.666   2.294  0.8901  0.7327  0.1163
   84MOL   C14145127   1.222   6.706   2.271  0.3962 -0.0646  0.2288
   84MOL   O14245128   1.304   6.706   2.384  0.0050  0.4806  0.5361
   84MOL   C14345129   1.436   6.729   2.374  0.0525 -0.2026  0.7945
   84MOL   O14445130   1.494   6.727   2.266  0.4551 -0.3961 -0.1552
   84MOL   C14545131   1.509   6.754   2.509 -0.2430  0.4838 -0.5095
   84MOL   C14645132   1.667   6.722   2.492  0.5305  0.9792 -0.3524
   84MOL   C14745133   1.457   6.672   2.636  0.5051 -0.6423 -0.4279
   84MOL   H14845134   0.919   6.318   2.461  1.2185 -0.8496 -1.2523
   84MOL   H14945135   0.875   6.273   2.312 -2.1346 -1.6100  1.4803
   84MOL   H15045136   0.750   6.353   2.414 -0.2172 -0.4546  0.2087
   84MOL   H15145137   0.856   6.565   2.399  1.8021  0.7058  0.4453
   84MOL   H15245138   0.848   6.507   2.230  1.2251 -0.6019 -0.8377
   84MOL   H15345139   1.090   6.464   2.398 -0.6093 -1.4369 -0.2496
   84MOL   H15445140   1.079   6.461   2.221 -2.8862 -2.8363  0.3903
   84MOL   H15545141   1.013   6.692   2.207  1.3998  2.6200  0.3029
   84MOL   H15645142   1.031   6.717   2.380 -1.5078 -0.2747 -0.4429
   84MOL   H15745143   1.229   6.797   2.212  0.3378 -0.2454 -0.0556
   84MOL   H15845144   1.268   6.647   2.193  0.7008 -0.7825  0.9473
   84MOL   H15945145   1.727   6.760   2.574 -0.0202  1.8605 -0.3412
   84MOL   H16045146   1.699   6.779   2.404 -0.9135  1.8225 -0.3562
   84MOL   H16145147   1.685   6.621   2.456 -0.5655  0.4776  0.4718
   84MOL   H16245148   1.482   6.730   2.725 -0.0372  2.6784 -2.3923
   84MOL   H16345149   1.350   6.693   2.633  0.8632  1.2000 -1.1002
   84MOL   C16445150   2.044   6.957   2.723  0.2237  0.4243  0.0068
   84MOL   C16545151   2.041   6.827   2.807 -0.2750  0.5046 -0.4333
   84MOL   C16645152   1.927   6.733   2.765 -0.2363  0.5205 -0.3624
   84MOL   C16745153   1.914   6.610   2.845  0.2911  0.5678 -0.1795
   84MOL   C16845154   1.823   6.509   2.780 -0.3697 -0.0971 -0.1335
   84MOL   O16945155   1.687   6.543   2.750 -0.2759 -0.2139  0.3045
   84MOL   C17045156   1.617   6.476   2.664 -0.1648  0.5477 -0.5569
   84MOL   O17145157   1.671   6.386   2.602  0.7564  0.0387  0.2830
   84MOL   C17245158   1.469   6.511   2.663 -0.8443  0.0882  0.2694
   84MOL   C17345159   1.398   6.430   2.555  0.5324 -0.0714  1.0075
   84MOL   C17445160   1.399   6.483   2.806  0.0316 -0.4610  0.2437
   84MOL   H17545161   2.062   6.929   2.619  0.3436  0.0902  0.1184
   84MOL   H17645162   2.122   7.026   2.755  3.5361 -3.8422  1.5418
   84MOL   H17745163   1.948   7.009   2.720 -1.0835 -1.9213 -0.2419
   84MOL   H17845164   2.037   6.844   2.915  0.3708 -2.5757  0.1385
   84MOL   H17945165   2.136   6.775   2.797  0.2879  1.1733  1.3283
   84MOL   H18045166   1.827   6.777   2.766  0.0997  1.3149 -0.7859
   84MOL   H18145167   1.950   6.697   2.664  1.4604 -0.3193  0.3024
   84MOL   H18245168   1.874   6.626   2.945 -0.2767  0.1696 -0.3471
   84MOL   H18345169   2.007   6.558   2.870 -0.7419 -1.0120  0.4739
   84MOL   H18445170   1.790   6.439   2.857  1.0494  0.2772  0.8249
   84MOL   H18545171   1.880   6.459   2.702  0.0492 -0.0701  0.1591
   84MOL   H18645172   1.293   6.458   2.551 -0.1682 -2.6033  0.6481
   84MOL   H18745173   1.400   6.323   2.579  1.5204 -0.3880 -0.4424
   84MOL   H18845174   1.446   6.447   2.459  0.9330 -0.6326  1.0976
   84MOL   H18945175   1.444   6.392   2.845 -0.4757 -0.2409  1.3885
   84MOL   H19045176   1.437   6.565   2.867  1.6453 -0.7787 -0.3163
   84MOL   C19145177   1.037   5.933   2.413 -0.7023  0.2941 -0.2185
   84MOL   C19245178   1.093   5.891   2.547 -0.2464 -0.3708 -0.1072
   84MOL   C19345179   1.245   5.933   2.561  0.1770 -0.3199  0.4001
   84MOL   C19445180   1.267   6.085   2.588  0.1025 -0.4402  0.1379
   84MOL   C19545181   1.214   6.115   2.729  0.4004 -0.1376  0.7744
   84MOL   O19645182   1.256   6.241   2.777  0.3641  0.4358 -0.1607
   84MOL   C19745183   1.176   6.346   2.776 -0.6564 -0.4030 -0.1943
   84MOL   O19845184   1.060   6.352   2.737 -0.4658 -0.9087  0.4207
   84MOL   C19945185   1.246   6.474   2.835 -0.4952 -0.4704  0.1000
   84MOL   C20045186   1.169   6.596   2.774  0.3462 -0.2134 -0.3391
   84MOL   C20145187   1.218   6.493   2.988 -0.3344  0.5372 -0.4720
   84MOL   H20245188   0.992   6.031   2.431  1.7857  1.3197  0.5694
   84MOL   H20345189   1.119   5.954   2.344  1.0474 -1.5586  1.2298
   84MOL   H20445190   0.967   5.868   2.361 -0.9102  0.1584  0.2291
   84MOL   H20545191   1.088   5.782   2.555 -1.7876 -0.4163 -1.4521
   84MOL   H20645192   1.042   5.924   2.637  1.2481 -1.9407  1.3516
   84MOL   H20745193   1.289   5.902   2.467 -3.5935 -2.4147 -0.7974
   84MOL   H20845194   1.300   5.881   2.640  1.7995  1.4597  0.4608
   84MOL   H20945195   1.373   6.107   2.581  0.1532 -0.5834  0.4617
   84MOL   H21045196   1.210   6.138   2.511  1.3905 -0.3253 -0.7468
   84MOL   H21145197   1.107   6.094   2.735  0.7081 -1.6317  1.0900
   84MOL   H21245198   1.257   6.052   2.806  0.4013  1.1631  1.8651
   84MOL   H21345199   1.222   6.690   2.793 -1.3778  0.5434  0.7928
   84MOL   H21445200   1.067   6.609   2.808  0.1658 -0.2484 -0.8651
   84MOL   H21545201   1.156   6.592   2.666 -0.3009 -1.3518 -0.2189
   84MOL   H21645202   1.110   6.497   3.002 -0.1445  0.6783  1.0215
   84MOL   H21745203   1.243   6.595   3.017  2.8101 -0.9216  2.3667
   84MOL   C21845204   1.975   6.164   3.565 -0.9752 -0.1917  0.0807
   84MOL   C21945205   1.843   6.152   3.491 -0.6885 -1.2427 -0.1454
   84MOL   C22045206   1.801   6.278   3.416  0.4132 -0.3780 -0.0881
   84MOL   C22145207   1.663   6.258   3.357  0.0225 -0.0549  0.2277
   84MOL   C22245208   1.624   6.373   3.263  0.5090 -0.0685  0.4363
   84MOL   O22345209   1.493   6.339   3.196  0.0883 -0.5732  0.2223
   84MOL   C22445210   1.439   6.429   3.120 -0.1400  0.0348  0.4284
   84MOL   O22545211   1.497   6.530   3.086 -0.7936  0.2113  0.4798
   84MOL   C22645212   1.289   6.411   3.098  0.6348 -0.1878 -0.3342
   84MOL   C22745213   1.274   6.255   3.064  0.0462  0.3668  0.5952
   84MOL   C22845214   1.217   6.430   3.237  0.6468 -0.3366 -0.0713
   84MOL   H22945215   2.046   6.178   3.484 -0.7958  0.4095  0.3379
   84MOL   H23045216   1.970   6.246   3.637 -0.8294 -0.2547  0.1618
   84MOL   H23145217   2.004   6.068   3.608 -2.3742 -0.0443  1.4291
   84MOL   H23245218   1.762   6.131   3.561 -0.1977 -3.6212 -0.2531
   84MOL   H23345219   1.854   6.061   3.433  0.9594 -1.2466  0.1525
   84MOL   H23445220   1.879   6.313   3.349 -1.5314  1.7030 -1.3133
   84MOL   H23545221   1.789   6.360   3.487  0.7645  0.0015 -0.4683
   84MOL   H23645222   1.670   6.167   3.297  2.0573 -0.1572  0.5938
   84MOL   H23745223   1.591   6.237   3.436 -1.4683  1.1337 -0.7856
   84MOL   H23845224   1.700   6.392   3.187 -1.1390 -3.4626 -2.1973
   84MOL   H23945225   1.610   6.457   3.330  0.4629 -0.0777  0.4385
   84MOL   H24045226   1.359   6.208   3.016 -1.6641 -1.7067 -0.5296
   84MOL   H24145227   1.180   6.245   3.010  1.5110 -0.6240 -1.8268
   84MOL   H24245228   1.259   6.184   3.146  2.4279  0.7949  1.4370
   84MOL   H24345229   1.254   6.356   3.309 -1.8728 -1.2761  0.3172
   84MOL   H24445230   1.117   6.389   3.228  1.0999 -1.4647 -0.0937
   84MOL   C24545231   0.365   6.760   3.287  0.7043 -0.2477 -0.3884
   84MOL   C24645232   0.483   6.658   3.276 -0.0950  0.4978  0.6283
   84MOL   C24745233   0.615   6.708   3.198  0.1302  0.5223 -0.3292
   84MOL   C24845234   0.738   6.623   3.225  0.2576 -0.2308  0.1028
   84MOL   C24945235   0.866   6.677   3.162 -0.2501 -0.6310 -0.1278
   84MOL   O25045236   0.975   6.596   3.206 -0.0233 -0.6739  0.3755
   84MOL   C25145237   1.094   6.657   3.226 -0.3836  0.0915  0.2243
   84MOL   O25245238   1.130   6.766   3.184 -0.2814  0.4921 -0.3103
   84MOL   C25345239   1.188   6.568   3.310 -0.7250 -0.4533  0.2476
   84MOL   C25445240   1.315   6.644   3.338 -0.9465  0.1599  0.0741
   84MOL   C25545241   1.108   6.524   3.445  0.1929  0.7398  0.5297
   84MOL   H25645242   0.335   6.790   3.187 -0.4216 -1.5264 -0.4410
   84MOL   H25745243   0.277   6.728   3.343  1.0859 -1.1830 -0.3138
   84MOL   H25845244   0.393   6.851   3.340  0.0951 -1.1413  1.5224
   84MOL   H25945245   0.496   6.634   3.382  1.2367 -0.9684  0.1538
   84MOL   H26045246   0.451   6.568   3.224 -0.3394  1.5097 -1.0040
   84MOL   H26145247   0.644   6.805   3.241 -1.3226 -0.3213  2.7300
   84MOL   H26245248   0.599   6.732   3.093 -2.5786  1.9518  0.3485
   84MOL   H26345249   0.742   6.611   3.334 -0.2722  0.9081  0.2500
   84MOL   H26445250   0.720   6.526   3.179  0.7251  0.9032 -2.5079
   84MOL   H26545251   0.874   6.683   3.053 -1.3200 -2.1679 -0.3090
   84MOL   H26645252   0.884   6.781   3.188 -3.2065 -0.3185  0.8412
   84MOL   H26745253   1.383   6.591   3.405 -1.4839 -1.0731 -0.3295
   84MOL   H26845254   1.360   6.662   3.240  0.7588  0.4603  0.8839
   84MOL   H26945255   1.298   6.740   3.385 -1.9811  0.6079 -1.1840
   84MOL   H27045256   1.013   6.481   3.413  1.2168 -2.9999  2.2949
   84MOL   H27145257   1.158   6.443   3.497 -0.2192  0.9244  1.2345
   84MOL   C27245258   0.845   6.010   4.104  0.5423  0.2303 -0.1984
   84MOL   C27345259   0.905   6.083   3.980 -0.1333 -0.6845 -0.7509
   84MOL   C27445260   0.916   6.236   3.995 -0.3766  0.6818  0.3604
   84MOL   C27545261   0.981   6.293   3.872  0.6315  0.5615  0.0548
   84MOL   C27645262   0.996   6.448   3.890  1.0718 -0.2876  0.8312
   84MOL   O27745263   1.054   6.507   3.781 -0.1137  0.4542 -0.7473
   84MOL   C27845264   0.984   6.545   3.669 -0.3174 -0.6572  0.1227
   84MOL   O27945265   0.864   6.529   3.648  0.2908  0.7069  0.4058
   84MOL   C28045266   1.078   6.627   3.569 -0.0641  0.2798 -0.4566
   84MOL   C28145267   1.215   6.664   3.637 -0.3490 -0.3266 -0.7945
   84MOL   C28245268   1.007   6.756   3.520 -0.2979 -0.3310 -0.5974
   84MOL   H28345269   0.859   5.903   4.092 -1.2278  0.2394 -2.5200
   84MOL   H28445270   0.886   6.039   4.201 -1.0701 -1.6780  1.1089
   84MOL   H28545271   0.737   6.021   4.116  1.1041  3.7797  2.4047
   84MOL   H28645272   1.001   6.044   3.945  0.2314 -0.9017  0.4904
   84MOL   H28745273   0.838   6.075   3.895  2.1638 -2.4311 -2.4868
   84MOL   H28845274   0.816   6.280   3.999 -1.2616 -0.9853 -2.2206
   84MOL   H28945275   0.976   6.249   4.085 -1.9520 -1.3326  1.7433
   84MOL   H29045276   1.077   6.247   3.850  1.0936  0.7249  1.6649
   84MOL   H29145277   0.915   6.277   3.787 -2.8847 -0.6941  2.8957
   84MOL   H29245278   1.052   6.473   3.980  0.8214 -1.7284  1.4077
   84MOL   H29345279   0.906   6.506   3.907  0.3384 -0.7021 -1.3766
   84MOL   H29445280   1.284   6.579   3.631 -1.7342 -1.4793 -0.5544
   84MOL   H29545281   1.255   6.760   3.602  2.1188 -0.7270  0.7564
   84MOL   H29645282   1.195   6.679   3.743  0.5956 -1.8676 -0.3801
   84MOL   H29745283   1.075   6.790   3.441  0.2176 -1.6499 -0.7392
   84MOL   H29845284   0.916   6.731   3.466 -0.4824 -0.7597 -0.0882
   84MOL   C29945285   0.351   7.087   3.607 -0.4331 -1.0359 -0.2767
   84MOL   C30045286   0.299   6.960   3.675 -0.3633 -0.2859  0.3844
   84MOL   C30145287   0.399   6.884   3.756  0.1034 -0.0316 -0.1682
   84MOL   C30245288   0.523   6.844   3.675  0.1157  0.1548 -0.3851
   84MOL   C30345289   0.638   6.785   3.754  0.0198 -0.3016  0.6448
   84MOL   O30445290   0.757   6.797   3.675  0.3988  0.1729 -0.0460
   84MOL   C30545291   0.869   6.854   3.720 -0.1167  0.0267  0.1257
   84MOL   O30645292   0.884   6.882   3.838  0.2101  0.5865 -0.3612
   84MOL   C30745293   0.972   6.887   3.612 -0.2969 -0.3172  0.0998
   84MOL   C30845294   1.097   6.946   3.672 -0.2004 -0.4032 -0.2165
   84MOL   C30945295   0.910   6.988   3.509 -0.0499 -0.0832 -0.2696
   84MOL   H31045296   0.417   7.065   3.523 -1.0566  1.1898 -1.3876
   84MOL   H31145297   0.420   7.131   3.678  0.0743  1.1070 -2.0545
   84MOL   H31245298   0.268   7.153   3.580 -0.0716 -0.5801 -0.2790
   84MOL   H31345299   0.245   6.891   3.610  0.7255  0.1970 -1.0341
   84MOL   H31445300   0.217   6.998   3.737 -0.1371 -0.4432  0.7827
   84MOL   H31545301   0.359   6.793   3.800  0.5391  0.1744  0.6557
   84MOL   H31645302   0.428   6.948   3.839 -0.1133 -1.0807  0.7168
   84MOL   H31745303   0.561   6.936   3.629 -2.6852  1.7799  0.4596
   84MOL   H31845304   0.495   6.788   3.586  0.5800  0.1330 -0.5215
   84MOL   H31945305   0.644   6.834   3.852 -1.7212 -0.4996  0.8699
   84MOL   H32045306   0.613   6.681   3.773  0.2197 -0.5494 -0.4561
   84MOL   H32145307   1.183   6.948   3.604 -1.3159  1.5311 -1.6007
   84MOL   H32245308   1.071   7.044   3.711 -1.4308 -0.1241 -1.6872
   84MOL   H32345309   1.127   6.893   3.763 -0.4128 -0.4313 -0.1637
   84MOL   H32445310   0.822   6.939   3.468  0.7052 -1.2659 -0.5231
   84MOL   H32545311   0.965   6.971   3.416  1.1639  0.3806  0.3554
   84MOL   C32645312   0.592   7.227   4.325  0.4198  0.4906  0.1754
   84MOL   C32745313   0.683   7.163   4.221  0.2868 -0.2464 -0.3415
   84MOL   C32845314   0.636   7.197   4.084 -0.0115 -0.3319 -0.0502
   84MOL   C32945315   0.717   7.130   3.971 -0.2413 -0.3345  0.1770
   84MOL   C33045316   0.666   7.184   3.838 -0.1804  0.4867 -0.5504
   84MOL   O33145317   0.731   7.117   3.725 -0.0559  0.2175 -1.1731
   84MOL   C33245318   0.848   7.175   3.674 -0.4991 -0.7228 -0.1182
   84MOL   O33345319   0.916   7.255   3.734  0.4766 -0.4796 -0.4095
   84MOL   C33445320   0.882   7.140   3.533 -0.4693 -0.3711  0.3901
   84MOL   C33545321   1.010   7.217   3.486  0.2601  0.0847 -0.0264
   84MOL   C33645322   0.760   7.175   3.440 -0.3207  0.1137  0.0377
   84MOL   H33745323   0.485   7.212   4.310  0.5445 -0.5512  0.3286
   84MOL   H33845324   0.623   7.332   4.321  1.1156  0.2257 -2.1225
   84MOL   H33945325   0.616   7.204   4.429 -0.8051 -2.0399 -0.0633
   84MOL   H34045326   0.688   7.055   4.229 -1.5625 -0.2710  0.9997
   84MOL   H34145327   0.787   7.196   4.229  0.5929 -1.0308 -1.1115
   84MOL   H34245328   0.638   7.305   4.074 -1.8867 -0.2716 -0.0006
   84MOL   H34345329   0.534   7.158   4.078 -0.9598  1.9058  0.9518
   84MOL   H34445330   0.704   7.023   3.980  1.0575 -0.8680 -3.5063
   84MOL   H34545331   0.826   7.143   3.973 -0.2726  1.1857 -3.2647
   84MOL   H34645332   0.692   7.289   3.824  0.2273  0.6561  1.3698
   84MOL   H34745333   0.559   7.164   3.836  0.1166 -1.1727 -0.1941
   84MOL   H34845334   1.108   7.197   3.529 -0.1214 -0.9133  0.3913
   84MOL   H34945335   1.003   7.324   3.507 -0.2824  0.1221 -0.3911
   84MOL   H35045336   1.032   7.215   3.380  1.3099  0.7775  0.1650
   84MOL   H35145337   0.674   7.117   3.475  1.4408 -1.5072  1.8014
   84MOL   H35245338   0.779   7.136   3.340  0.0168  0.5276 -0.0659
   84MOL   C35345339   1.343   7.557   3.535 -0.3396  0.1396 -0.0906
   84MOL   C35445340   1.279   7.692   3.488  0.9205  0.4126 -0.0384
   84MOL   C35545341   1.183   7.670   3.366  0.3368  0.6606 -0.8792
   84MOL   C35645342   1.053   7.595   3.415  0.4271 -0.6318 -0.2171
   84MOL   C35745343   0.917   7.620   3.338 -0.3234  0.3986  0.6536
   84MOL   O35845344   0.814   7.532   3.390 -0.1214  0.2327  0.3692
   84MOL   C35945345   0.804   7.411   3.343  0.2840 -0.5607  0.3255
   84MOL   O36045346   0.881   7.366   3.257  1.0243  0.3845 -0.0792
   84MOL   C36145347   0.696   7.324   3.417 -1.0217 -0.4760  0.2743
   84MOL   C36245348   0.656   7.388   3.551 -0.0914  0.3713  0.2554
   84MOL   C36345349   0.573   7.317   3.320  0.1716  0.1093  1.2512
   84MOL   H36445350   1.418   7.568   3.614 -0.0793  1.1615 -0.4794
   84MOL   H36545351   1.391   7.505   3.453  1.4425 -0.5799  1.3764
   84MOL   H36645352   1.267   7.484   3.566 -0.8328  0.2880 -0.9478
   84MOL   H36745353   1.227   7.749   3.564 -2.3799  0.3463 -2.1755
   84MOL   H36845354   1.356   7.754   3.441 -0.9723  3.4941  0.7782
   84MOL   H36945355   1.224   7.618   3.279  3.2904  2.6393 -0.7540
   84MOL   H37045356   1.148   7.766   3.329 -2.3396 -0.5214 -1.5130
   84MOL   H37145357   1.036   7.612   3.521 -3.9657 -2.9041 -0.4079
   84MOL   H37245358   1.070   7.487   3.413 -0.3466 -0.7297 -2.6808
   84MOL   H37345359   0.893   7.725   3.351 -0.6354  0.4373 -0.2184
   84MOL   H37445360   0.936   7.601   3.232  0.0380  2.3455  0.3651
   84MOL   H37545361   0.602   7.310   3.606  1.6402 -0.0344  1.4399
   84MOL   H37645362   0.745   7.416   3.608 -0.9895  0.9064  1.4243
   84MOL   H37745363   0.588   7.472   3.549  0.3903  0.7473 -2.4894
   84MOL   H37845364   0.617   7.310   3.221 -0.4543  0.3952  0.9518
   84MOL   H37945365   0.523   7.221   3.329 -3.8692  2.0102  0.2614
   84MOL   C38045366   7.614   7.717   3.745  0.2858 -0.1384  0.3020
   84MOL   C38145367   7.671   7.701   3.603 -0.7021 -0.1994  0.6371
   84MOL   C38245368   0.005   7.690   3.607 -0.3985  0.0976  0.1024
   84MOL   C38345369   0.074   7.639   3.478  0.6451  0.7597  0.7489
   84MOL   C38445370   0.219   7.619   3.494  1.1344 -0.5543  0.2201
   84MOL   O38545371   0.288   7.556   3.385  0.5381  0.0813  0.1010
   84MOL   C38645372   0.359   7.456   3.406 -0.0710  0.1656 -0.9581
   84MOL   O38745373   0.358   7.387   3.509 -0.0893 -0.4614 -0.1223
   84MOL   C38845374   0.463   7.434   3.293 -0.0933  0.2910 -1.0348
   84MOL   C38945375   0.540   7.565   3.284 -0.2247 -0.3006  0.8091
   84MOL   C39045376   0.389   7.414   3.158  0.0967  0.0771  0.6574
   84MOL   H39145377   7.642   7.636   3.813  1.6734  0.0605 -0.0031
   84MOL   H39245378   7.664   7.803   3.790  2.0578 -1.0091  0.0402
   84MOL   H39345379   7.508   7.740   3.751  0.4962  0.4546  2.1324
   84MOL   H39445380   7.640   7.784   3.540 -0.3502 -0.1943  0.4706
   84MOL   H39545381   7.646   7.604   3.559  0.9441 -0.3864  0.0923
   84MOL   H39645382   0.052   7.787   3.623 -0.3005  0.4592 -2.1952
   84MOL   H39745383   0.047   7.628   3.687  1.2703  0.2086 -0.6587
   84MOL   H39845384   0.025   7.546   3.448  1.6964  0.8407 -1.2432
   84MOL   H39945385   0.063   7.720   3.405 -0.7778  0.0380  0.1409
   84MOL   H40045386   0.230   7.560   3.585 -0.2356  0.6724  1.1845
   84MOL   H40145387   0.266   7.714   3.517  0.7694  0.2783 -2.3208
   84MOL   H40245388   0.612   7.566   3.203 -2.4474  0.8826 -1.2004
   84MOL   H40345389   0.576   7.597   3.382 -0.3755 -0.8123  1.0340
   84MOL   H40445390   0.467   7.643   3.262  2.0924  1.9658  0.9196
   84MOL   H40545391   0.471   7.433   3.088 -0.7940  0.4106 -0.3190
   84MOL   H40645392   0.317   7.494   3.145  1.4271  1.3915  1.2061
   84MOL   C40745393   1.037   7.166   2.868 -0.0968 -0.1154  0.2896
   84MOL   C40845394   1.007   7.114   3.013  0.1299  0.1129  0.5789
   84MOL   C40945395   0.864   7.063   3.025 -0.3498 -0.0235 -0.3651
   84MOL   C41045396   0.745   7.151   2.996  0.2927  0.2154  0.3738
   84MOL   C41145397   0.616   7.087   3.037  0.7494 -0.3342 -0.0675
   84MOL   O41245398   0.514   7.181   3.027  0.4301 -0.4145  0.2896
   84MOL   C41345399   0.399   7.161   3.099  0.2207 -0.7855 -0.5150
   84MOL   O41445400   0.376   7.059   3.157  0.3059 -0.2678  0.1930
   84MOL   C41545401   0.309   7.288   3.110  0.1142  0.4222 -0.0666
   84MOL   C41645402   0.191   7.272   3.209  0.3410 -0.9283  0.3692
   84MOL   C41745403   0.254   7.327   2.968 -0.2244 -0.4882 -0.4909
   84MOL   H41845404   0.978   7.252   2.837 -1.9979 -0.7012  2.2532
   84MOL   H41945405   1.141   7.199   2.856  0.0037 -0.2954  0.6562
   84MOL   H42045406   1.022   7.081   2.801  1.1671  1.3538 -1.9190
   84MOL   H42145407   1.030   7.199   3.077 -1.4195  0.9539  0.0605
   84MOL   H42245408   1.078   7.037   3.043  0.7298  0.4347 -0.0158
   84MOL   H42345409   0.873   6.976   2.960  1.2351  0.2156 -0.4832
   84MOL   H42445410   0.862   7.020   3.126 -1.1234  1.1114  0.1196
   84MOL   H42545411   0.734   7.168   2.889 -0.3475 -2.7529 -0.0604
   84MOL   H42645412   0.761   7.241   3.056 -1.3340  0.0626  1.0733
   84MOL   H42745413   0.589   7.000   2.978 -0.9960  0.4797 -0.5260
   84MOL   H42845414   0.633   7.055   3.140  0.6681 -1.1534 -0.3054
   84MOL   H42945415   0.113   7.200   3.180  0.0721 -1.0550  1.3963
   84MOL   H43045416   0.134   7.365   3.210  0.3622 -0.9169  2.3134
   84MOL   H43145417   0.220   7.245   3.310  0.4918 -0.7713  0.3671
   84MOL   H43245418   0.338   7.347   2.901 -2.3289 -0.4802 -3.2418
   84MOL   H43345419   0.218   7.430   2.972  2.4169  0.5134 -0.9157
   84MOL   C43445420   7.776   6.842   3.283 -0.1618  0.0643  0.0601
   84MOL   C43545421   7.662   6.936   3.254 -0.0387  0.5976  0.3168
   84MOL   C43645422   7.676   7.004   3.114  0.3153 -0.6163 -0.3588
   84MOL   C43745423   7.601   7.138   3.096  0.2415  0.3777 -0.3968
   84MOL   C43845424   7.603   7.185   2.954 -0.3040  0.4908 -0.3568
   84MOL   O43945425   7.733   7.180   2.896  0.4615 -0.1134  0.1331
   84MOL   C44045426   0.012   7.270   2.930  0.8528 -0.2289 -0.1302
   84MOL   O44145427   7.800   7.367   3.003  0.2711  0.3884  0.2516
   84MOL   C44245428   0.151   7.250   2.877  0.2989 -0.3942  0.2982
   84MOL   C44345429   0.175   7.099   2.886  0.3788 -0.4697  0.0772
   84MOL   C44445430   0.156   7.307   2.732  0.3414  0.9310  0.1235
   84MOL   H44545431   0.057   6.895   3.282  1.0864 -1.8899  3.5973
   84MOL   H44645432   7.758   6.801   3.383 -1.9552 -1.0151 -0.6880
   84MOL   H44745433   7.788   6.758   3.215 -0.1174 -2.4516  3.0183
   84MOL   H44845434   7.564   6.889   3.259  0.7008 -0.7777  3.0645
   84MOL   H44945435   7.651   7.010   3.334 -0.8592  1.4768 -0.5931
   84MOL   H45045436   7.782   7.011   3.088  0.9772 -1.9965  1.8817
   84MOL   H45145437   7.636   6.924   3.050 -0.0790 -0.5620 -0.1806
   84MOL   H45245438   7.647   7.219   3.153 -1.1387  1.4575 -0.8047
   84MOL   H45345439   7.501   7.142   3.141  0.7935  2.4379  0.7123
   84MOL   H45445440   7.561   7.285   2.941 -0.4910  0.6784  1.5597
   84MOL   H45545441   7.543   7.120   2.890  1.1309 -2.0046  0.7941
   84MOL   H45645442   0.279   7.081   2.856 -0.3361 -0.0797 -2.8037
   84MOL   H45745443   0.156   7.064   2.987 -0.3695 -0.3906 -0.0345
   84MOL   H45845444   0.111   7.052   2.811  0.1992  0.8004 -0.5763
   84MOL   H45945445   0.158   7.415   2.747 -0.6568  0.8161  1.1119
   84MOL   H46045446   0.055   7.307   2.693 -0.5279 -2.8481  2.1510
   84MOL   C46145447   7.464   6.793   2.590  0.3568  0.0197  1.1321
   84MOL   C46245448   7.529   6.907   2.672  0.1395 -0.3550  0.1355
   84MOL   C46345449   7.684   6.901   2.678  0.4427 -0.4053  0.1159
   84MOL   C46445450   7.753   6.923   2.542 -0.0739  0.8561 -0.0094
   84MOL   C46545451   0.087   6.943   2.551  0.0845 -0.0346 -0.1472
   84MOL   O46645452   0.122   7.080   2.562 -0.1164  0.5056 -0.7506
   84MOL   C46745453   0.243   7.112   2.586 -0.3696 -0.2232  0.1932
   84MOL   O46845454   0.338   7.032   2.578  0.0137  0.3857  0.1662
   84MOL   C46945455   0.256   7.260   2.619  0.6207 -0.1531 -0.5440
   84MOL   C47045456   0.396   7.285   2.670 -0.2241 -0.7970  0.3835
   84MOL   C47145457   0.228   7.349   2.491  0.0884 -0.3145 -0.4322
   84MOL   H47245458   7.478   6.808   2.483  1.0940  2.0830  1.4925
   84MOL   H47345459   7.356   6.805   2.585  0.4310 -0.4481 -2.3431
   84MOL   H47445460   7.480   6.693   2.632 -1.8782 -0.4122  1.0124
   84MOL   H47545461   7.494   6.912   2.776 -0.0631  0.4382  0.0310
   84MOL   H47645462   7.485   6.999   2.633 -1.6248 -1.0492  0.4170
   84MOL   H47745463   7.720   6.803   2.708 -0.7171 -0.8035  0.2152
   84MOL   H47845464   7.711   6.978   2.751  0.1680  2.1462 -2.3942
   84MOL   H47945465   7.708   7.010   2.495 -1.5950  0.3091  0.4211
   84MOL   H48045466   7.735   6.846   2.468 -0.8551 -0.7285  1.7728
   84MOL   H48145467   0.132   6.878   2.627 -0.6593 -0.2965  0.0714
   84MOL   H48245468   0.122   6.917   2.451 -2.1134 -1.8928 -0.4603
   84MOL   H48345469   0.401   7.389   2.704 -1.3643 -0.5007 -0.3402
   84MOL   H48445470   0.469   7.283   2.590  0.6505 -1.2696  1.1760
   84MOL   H48545471   0.435   7.206   2.734 -1.1820 -1.3658  0.2773
   84MOL   H48645472   0.244   7.452   2.523 -1.8115  0.0157 -0.4921
   84MOL   H48745473   0.119   7.357   2.489  0.3055  3.8880 -0.0149
   84MOL   C48845474   0.592   0.107   2.085 -0.4651  0.3052 -0.1281
   84MOL   C48945475   0.621   0.048   2.219 -0.2179  0.2593  0.8124
   84MOL   C49045476   0.566   7.715   2.238  0.5664  0.0979  0.8015
   84MOL   C49145477   0.596   7.681   2.387  0.2979 -0.2645  0.3781
   84MOL   C49245478   0.599   7.525   2.415 -0.7075 -0.0826  0.6171
   84MOL   O49345479   0.467   7.478   2.411  0.3329  0.6663 -0.0062
   84MOL   C49445480   0.430   7.367   2.344  0.4848  0.5051  0.2129
   84MOL   O49545481   0.509   7.298   2.278  0.5867 -0.2270 -0.5709
   84MOL   C49645482   0.274   7.343   2.341 -0.4946  0.2385 -0.0984
   84MOL   C49745483   0.209   7.455   2.272 -0.5052 -0.1683  0.2212
   84MOL   C49845484   0.234   7.209   2.274  0.2112  0.4356  0.0893
   84MOL   H49945485   0.488   0.139   2.085  0.0319  2.0105 -1.0767
   84MOL   H50045486   0.643   0.202   2.066 -0.1937  0.1883  0.0251
   84MOL   H50145487   0.593   0.028   2.010  0.6536  0.5996 -0.4450
   84MOL   H50245488   0.592   0.119   2.297 -0.4990  0.2168  0.7477
   84MOL   H50345489   0.729   0.043   2.227 -0.1091 -1.8350 -1.3097
   84MOL   H50445490   0.464   7.694   2.208 -1.0108  3.3585  3.5588
   84MOL   H50545491   0.627   7.644   2.183 -0.8419 -0.5390  0.0539
   84MOL   H50645492   0.557   7.752   2.460  1.7334  1.6022 -0.6154
   84MOL   H50745493   0.703   7.701   2.399 -0.3160  1.9127  2.7172
   84MOL   H50845494   0.650   7.469   2.337  0.5024 -0.0906  1.4111
   84MOL   H50945495   0.646   7.503   2.511  1.4766  2.1264  0.1030
   84MOL   H51045496   0.205   7.546   2.332  0.7133 -0.5009  0.8181
   84MOL   H51145497   0.111   7.427   2.234 -0.6469 -0.2319  0.6345
   84MOL   H51245498   0.262   7.496   2.185 -0.3260 -0.3368  0.2508
   84MOL   H51345499   0.138   7.189   2.322  0.5454 -0.2897  0.4621
   84MOL   H51445500   0.296   7.131   2.318 -0.7452 -0.9060 -0.9021
   84MOL   C51545501   7.393   7.029   2.314 -0.0767  0.4442  0.3360
   84MOL   C51645502   7.408   7.011   2.167 -0.2044  0.2560  0.1697
   84MOL   C51745503   7.546   7.049   2.116 -0.2635 -0.3805 -0.5283
   84MOL   C51845504   7.555   7.205   2.124 -0.2775 -0.5920 -0.3173
   84MOL   C51945505   7.678   7.262   2.049  0.0974  0.0046 -0.3833
   84MOL   O52045506   7.791   7.201   2.100 -0.0060 -0.2506  0.4174
   84MOL   C52145507   0.100   7.244   2.064  0.3495 -0.0234 -0.6138
   84MOL   O52245508   0.119   7.328   1.973  1.0380  0.2151 -0.4580
   84MOL   C52345509   0.224   7.168   2.125 -0.8165 -0.2084  0.7978
   84MOL   C52445510   0.210   7.015   2.107 -0.3963  0.0447  0.3139
   84MOL   C52545511   0.350   7.218   2.046  0.3037 -0.3197 -0.0678
   84MOL   H52645512   7.311   6.968   2.353  2.1928 -2.3969  0.8541
   84MOL   H52745513   7.484   7.014   2.373 -0.1051  4.0897  1.4564
   84MOL   H52845514   7.366   7.132   2.337 -0.6144 -0.0340  1.9781
   84MOL   H52945515   7.398   6.904   2.146  0.5082  0.6918 -2.4613
   84MOL   H53045516   7.326   7.066   2.123  1.0034  1.2412 -0.8644
   84MOL   H53145517   7.622   6.996   2.174 -2.1425 -0.7858  1.6455
   84MOL   H53245518   7.564   7.014   2.015  0.2238 -1.0758 -0.2046
   84MOL   H53345519   7.561   7.237   2.228 -1.2204  1.1390 -0.7886
   84MOL   H53445520   7.462   7.250   2.088  0.5083  0.2254 -1.3328
   84MOL   H53545521   7.668   7.246   1.941  0.9684 -0.4422 -0.4032
   84MOL   H53645522   7.671   7.370   2.057 -0.9648 -0.0391 -0.6272
   84MOL   H53745523   0.306   6.965   2.127 -1.5906 -2.0004  1.0944
   84MOL   H53845524   0.184   6.993   2.003  0.4333 -0.2265  0.1569
   84MOL   H53945525   0.139   6.970   2.176 -0.3249 -0.1366  0.2713
   84MOL   H54045526   0.433   7.166   2.093  1.7490  0.5262 -1.6537
   84MOL   H54145527   0.364   7.326   2.051  1.5980 -0.4272 -1.0954
   84MOL   H54245528   0.363   7.194   1.941  3.2268 -0.1389  0.2204
   85MOL     C145529   1.011   2.050   6.435 -0.1699 -0.1208  0.5181
   85MOL     C245530   0.993   2.118   6.579  0.4772  0.4466  0.2910
   85MOL     C345531   0.916   2.256   6.585  0.2444  0.3730 -0.8763
   85MOL     C445532   0.892   2.302   6.739  0.2061  0.5534  0.0661
   85MOL     C545533   0.798   2.424   6.748  0.7306  0.9461  0.2577
   85MOL     O645534   0.765   2.470   6.882  0.0128 -0.1342  0.3289
   85MOL     C745535   0.697   2.399   6.967 -0.1573 -0.7467  0.1211
   85MOL     O845536   0.653   2.286   6.939  0.1292  0.3293  0.7518
   85MOL     C945537   0.678   2.464   7.104  0.0290  0.0268  0.0007
   85MOL    C1045538   0.807   2.451   7.198  0.0764  0.5736  0.4857
   85MOL    C1145539   0.552   2.403   7.167  0.0188  0.1473  0.4124
   85MOL    H1245540   1.043   2.127   6.365 -2.0320  0.0784 -0.1429
   85MOL    H1345541   0.927   1.997   6.390 -0.2717  1.1836 -0.8686
   85MOL    H1445542   1.095   1.980   6.430 -0.9099 -0.8588 -2.4015
   85MOL    H1545543   0.934   2.049   6.639  0.9079 -0.7791 -0.6831
   85MOL    H1645544   1.091   2.113   6.627  1.5895 -0.2360 -1.9896
   85MOL    H1745545   0.975   2.333   6.535  4.6659 -1.6938  0.9960
   85MOL    H1845546   0.816   2.241   6.542 -0.6922  1.9998  0.6572
   85MOL    H1945547   0.989   2.327   6.781  0.0761 -1.8654  1.9132
   85MOL    H2045548   0.850   2.215   6.789 -0.9786  2.0464  1.7234
   85MOL    H2145549   0.831   2.508   6.687 -0.3072  1.5241  0.4750
   85MOL    H2245550   0.715   2.381   6.692  1.0399  0.4937  0.1477
   85MOL    H2345551   0.777   2.464   7.302 -2.8497  0.6905 -0.3351
   85MOL    H2445552   0.879   2.527   7.170 -2.1880  2.5463 -0.1658
   85MOL    H2545553   0.859   2.355   7.187  0.7575  0.8743  1.0238
   85MOL    H2645554   0.593   2.323   7.228  0.0894 -0.3639 -0.3104
   85MOL    H2745555   0.483   2.368   7.090 -0.5239  2.8262 -0.3785
   85MOL    H2845556   0.655   2.570   7.094 -1.5336 -0.3259 -0.3933
   85MOL    C2945557   0.646   1.893   7.651  0.7263 -0.0707 -0.2603
   85MOL    C3045558   0.671   2.039   7.620  1.0233  0.3935 -0.3599
   85MOL    C3145559   0.619   2.084   7.487 -0.0988  0.5115  0.3626
   85MOL    C3245560   0.462   2.092   7.480 -0.2416  0.2085  0.2265
   85MOL    C3345561   0.416   2.228   7.519  0.3625  0.0151  0.6455
   85MOL    O3445562   0.465   2.332   7.438  0.1607 -0.1717  0.4806
   85MOL    C3545563   0.385   2.401   7.345 -0.4857  0.1511  0.8622
   85MOL    O3645564   0.260   2.406   7.340  0.6318 -0.1697 -0.0346
   85MOL    C3745565   0.462   2.496   7.260 -0.4922 -0.7043  0.7003
   85MOL    C3845566   0.368   2.576   7.163 -0.2613 -0.0926 -0.3257
   85MOL    C3945567   0.548   2.595   7.344  0.2678  0.2404 -0.2414
   85MOL    H4045568   0.703   1.830   7.583 -1.6194 -0.1250 -2.2524
   85MOL    H4145569   0.680   1.868   7.752  0.0728  0.1305  0.0115
   85MOL    H4245570   0.543   1.860   7.638  1.0155 -1.2852  0.4215
   85MOL    H4345571   0.773   2.073   7.638  1.4206 -0.0594 -1.7330
   85MOL    H4445572   0.625   2.094   7.702 -3.4132  0.1207 -2.5195
   85MOL    H4545573   0.635   2.009   7.409 -2.6048 -1.9452  2.1123
   85MOL    H4645574   0.670   2.175   7.456 -1.1400  0.4577 -1.5418
   85MOL    H4745575   0.437   2.072   7.376  0.8112 -3.3485  0.5829
   85MOL    H4845576   0.414   2.012   7.538 -0.9558  0.0895 -0.5186
   85MOL    H4945577   0.443   2.245   7.624 -0.5707 -0.8922  1.0421
   85MOL    H5045578   0.308   2.241   7.525  0.3025  0.7509 -1.7051
   85MOL    H5145579   0.431   2.655   7.122  2.6375 -1.1974  1.8279
   85MOL    H5245580   0.281   2.622   7.209  0.7375  2.5431 -1.0105
   85MOL    H5345581   0.320   2.530   7.077 -1.7291  0.9404 -0.0682
   85MOL    H5445582   0.624   2.652   7.290  1.1066 -0.7293 -0.1091
   85MOL    H5545583   0.614   2.541   7.413 -0.4170 -0.1398  0.1169
   85MOL    C5645584   1.163   2.563   7.317  0.1478  0.7130 -0.3366
   85MOL    C5745585   1.102   2.705   7.306  0.3155  0.3271  0.9488
   85MOL    C5845586   0.976   2.704   7.402  0.0426 -0.5990  0.3928
   85MOL    C5945587   0.938   2.849   7.453 -0.5984 -0.4389 -0.5006
   85MOL    C6045588   0.815   2.851   7.552 -0.4371 -0.3025 -0.2087
   85MOL    O6145589   0.708   2.798   7.472  0.1647  0.2778  0.3597
   85MOL    C6245590   0.596   2.748   7.534 -0.7739  0.3752 -0.6579
   85MOL    O6345591   0.588   2.738   7.655  0.2835  0.4253 -0.2490
   85MOL    C6445592   0.485   2.708   7.437 -0.3403 -0.4022 -1.0319
   85MOL    C6545593   0.359   2.666   7.504  0.6933  0.0093 -0.5618
   85MOL    C6645594   0.458   2.850   7.356 -0.4493 -0.1507  0.9499
   85MOL    H6745595   1.233   2.550   7.235  1.0793  1.7939  0.2762
   85MOL    H6845596   1.084   2.490   7.302  1.3144 -0.2358 -1.8326
   85MOL    H6945597   1.205   2.540   7.415 -1.2726 -0.5723 -0.0022
   85MOL    H7045598   1.172   2.780   7.342  0.7750  0.6729 -0.6177
   85MOL    H7145599   1.083   2.730   7.202  1.6204  0.1948  0.6661
   85MOL    H7245600   0.890   2.679   7.339 -0.4141  0.4432  0.5969
   85MOL    H7345601   0.994   2.636   7.486  0.5165  1.2740  1.8486
   85MOL    H7445602   0.913   2.923   7.377  0.0929  0.1366 -0.1693
   85MOL    H7545603   1.027   2.880   7.507  0.2002  0.5934 -2.3495
   85MOL    H7645604   0.834   2.786   7.638 -0.3798 -3.0509 -2.2590
   85MOL    H7745605   0.787   2.954   7.576 -2.1504 -0.6871 -0.5020
   85MOL    H7845606   0.325   2.743   7.574 -0.1809 -1.0176  0.1769
   85MOL    H7945607   0.382   2.580   7.567 -0.3210 -1.1938 -1.8055
   85MOL    H8045608   0.277   2.643   7.436  0.1713 -1.0847  0.4269
   85MOL    H8145609   0.385   2.825   7.280  0.4996  1.3770 -0.4969
   85MOL    H8245610   0.547   2.875   7.299 -1.7485  1.1703 -0.5077
   85MOL    C8345611   7.597   2.546   7.446 -0.2294  0.2348 -0.4842
   85MOL    C8445612   7.713   2.570   7.356 -0.1888 -0.2392  0.5100
   85MOL    C8545613   0.007   2.664   7.414  0.5762 -1.1063  0.5762
   85MOL    C8645614   7.769   2.810   7.412  0.5083  0.0827  0.0287
   85MOL    C8745615   0.043   2.904   7.494  0.3219 -0.0647 -0.3339
   85MOL    O8845616   0.168   2.912   7.425  0.5406 -0.6838 -0.2918
   85MOL    C8945617   0.263   2.984   7.489 -0.5344  0.4880 -0.5461
   85MOL    O9045618   0.251   3.039   7.600 -0.0248  0.2812 -0.1303
   85MOL    C9145619   0.397   2.996   7.408 -0.1776 -0.1339 -0.2269
   85MOL    C9245620   0.503   3.061   7.497  0.3661 -0.0961 -0.2453
   85MOL    C9345621   0.373   3.084   7.278  0.3491  0.2136  0.7681
   85MOL    H9445622   7.525   2.469   7.418 -2.0876  0.8926  2.3277
   85MOL    H9545623   7.626   2.514   7.546  0.8855 -1.5038 -1.3404
   85MOL    H9645624   7.543   2.640   7.458 -1.0120 -0.1393 -1.0100
   85MOL    H9745625   7.676   2.604   7.259 -2.5041 -1.4070  0.9527
   85MOL    H9845626   7.766   2.480   7.326 -0.8154 -1.1359  2.0554
   85MOL    H9945627   0.095   2.658   7.350 -1.5546 -3.7630 -2.2821
   85MOL   H10045628   0.038   2.634   7.514  0.8670  0.7909  1.0718
   85MOL   H10145629   7.673   2.805   7.463 -0.6669 -1.3553 -2.2322
   85MOL   H10245630   7.772   2.842   7.308 -0.9208 -1.1696 -0.4019
   85MOL   H10345631   0.057   2.861   7.593  1.0661 -1.9357 -1.2222
   85MOL   H10445632   7.805   2.999   7.488 -1.3577 -0.8951  0.7930
   85MOL   H10545633   0.598   3.081   7.446 -0.1284 -0.8350 -1.4658
   85MOL   H10645634   0.532   3.006   7.587  0.4153  0.1814 -0.0884
   85MOL   H10745635   0.473   3.156   7.541  0.6966  0.3147 -0.9081
   85MOL   H10845636   0.439   3.058   7.196  1.1447  3.4751  0.3080
   85MOL   H10945637   0.278   3.047   7.239  0.9145  0.2122 -0.6363
   85MOL   C11045638   0.128   3.543   0.247  0.0639  0.2163  0.3650
   85MOL   C11145639   0.220   3.493   0.139  0.4001  0.2577  0.4065
   85MOL   C11245640   0.162   3.482   7.809 -0.3034 -0.2598 -0.4594
   85MOL   C11345641   0.272   3.419   7.716 -0.3188 -0.0608  0.3424
   85MOL   C11445642   0.204   3.375   7.582  1.0003 -0.1818 -0.2791
   85MOL   O11545643   0.297   3.328   7.484 -0.3273 -0.8760  0.1816
   85MOL   C11645644   0.246   3.283   7.371 -0.2481 -0.0304  0.0193
   85MOL   O11745645   0.126   3.283   7.341 -0.0776  0.1137 -0.2005
   85MOL   C11845646   0.356   3.239   7.269  0.1599 -0.1587  0.2516
   85MOL   C11945647   0.288   3.262   7.131  0.3083  0.2995 -0.7216
   85MOL   C12045648   0.494   3.311   7.278  0.4382 -0.4006  0.2043
   85MOL   H12145649   0.133   3.651   0.246 -0.4595  0.2661  2.2713
   85MOL   H12245650   0.025   3.515   0.224  0.2355  0.5723 -0.9130
   85MOL   H12345651   0.163   3.512   0.345  0.4804 -0.5140 -0.0053
   85MOL   H12445652   0.310   3.554   0.146 -0.6808  1.8634  0.2947
   85MOL   H12545653   0.266   3.398   0.168  2.1350  0.9380 -0.0512
   85MOL   H12645654   0.070   3.423   7.813  0.8593 -2.0854  0.1459
   85MOL   H12745655   0.138   3.580   7.769 -1.0420 -0.0901  0.3716
   85MOL   H12845656   0.321   3.336   7.767 -0.2179 -0.3016 -0.1452
   85MOL   H12945657   0.362   3.478   7.701 -0.3477 -0.6008 -2.1869
   85MOL   H13045658   0.140   3.291   7.609  1.7598 -0.0174  2.1482
   85MOL   H13145659   0.138   3.450   7.539 -0.7944 -0.2254  2.2959
   85MOL   H13245660   0.345   3.240   7.041 -2.0044  2.4352 -2.8003
   85MOL   H13345661   0.191   3.212   7.127 -0.0492  0.3897  3.6552
   85MOL   H13445662   0.281   3.370   7.118  0.9288  0.4249 -0.0449
   85MOL   H13545663   0.533   3.296   7.379  1.4615  0.4252 -0.0507
   85MOL   H13645664   0.558   3.248   7.216  0.2959  0.4583 -0.8366
   85MOL   C13745665   0.781   3.731   6.510 -0.0220 -0.1481  0.1538
   85MOL   C13845666   0.779   3.695   6.653 -1.2333  0.4387 -0.0629
   85MOL   C13945667   0.728   3.558   6.687  0.1948 -0.2309 -0.0810
   85MOL   C14045668   0.714   3.538   6.836  0.2821  0.1687 -0.7501
   85MOL   C14145669   0.628   3.418   6.875 -0.0330  0.1503  0.3543
   85MOL   O14245670   0.607   3.413   7.007 -0.1332  0.5343 -0.2117
   85MOL   C14345671   0.517   3.480   7.076  0.3067 -0.1998  0.7102
   85MOL   O14445672   0.434   3.557   7.023  0.5320 -0.5665  0.0771
   85MOL   C14545673   0.522   3.459   7.228  0.2088 -0.0730  0.5954
   85MOL   C14645674   0.415   3.559   7.293  0.0960 -0.1550 -0.1856
   85MOL   C14745675   0.665   3.511   7.269 -0.5683  0.1114  0.5713
   85MOL   H14845676   0.843   3.665   6.449 -0.4164 -0.8250  0.4854
   85MOL   H14945677   0.814   3.833   6.489 -1.0049  0.3399  0.9438
   85MOL   H15045678   0.678   3.716   6.476  0.5548 -1.3533 -1.0719
   85MOL   H15145679   0.720   3.771   6.704  1.2302  0.5954  2.7369
   85MOL   H15245680   0.879   3.717   6.691 -0.6917 -1.7022 -0.1864
   85MOL   H15345681   0.633   3.541   6.637  0.9713 -1.5817 -1.1434
   85MOL   H15445682   0.796   3.489   6.636  3.4872  1.2013  2.1336
   85MOL   H15545683   0.812   3.526   6.881  0.3977 -0.3757 -1.1355
   85MOL   H15645684   0.678   3.626   6.889  0.5714 -1.0379  1.5023
   85MOL   H15745685   0.665   3.323   6.835  2.2471  0.1271  2.3585
   85MOL   H15845686   0.533   3.431   6.825  0.3955 -0.6979 -0.7206
   85MOL   H15945687   0.312   3.535   7.266  0.4205 -2.7692  0.7608
   85MOL   H16045688   0.448   3.658   7.261 -1.2105  1.2515  2.6168
   85MOL   H16145689   0.400   3.551   7.400  0.3592  1.7669  0.0153
   85MOL   H16245690   0.735   3.474   7.195 -0.6373  1.3317 -0.1155
   85MOL   H16345691   0.668   3.620   7.264  0.1457  0.1959  2.2225
   85MOL   C16445692   1.308   3.508   7.751 -0.5093 -0.1593  0.0231
   85MOL   C16545693   1.204   3.412   7.806  0.6712 -0.0279 -0.0628
   85MOL   C16645694   1.086   3.386   7.701 -0.1466  0.1054  0.4229
   85MOL   C16745695   0.981   3.283   7.743  0.4876 -0.8198 -0.0386
   85MOL   C16845696   0.904   3.242   7.612  0.0815 -0.2291  0.4530
   85MOL   O16945697   0.814   3.343   7.569 -0.0763 -0.2117 -0.3123
   85MOL   C17045698   0.788   3.362   7.444  0.3736  0.1470 -0.1998
   85MOL   O17145699   0.807   3.284   7.358 -0.0290  0.2800 -0.0156
   85MOL   C17245700   0.731   3.505   7.413  0.1404  0.3670 -0.0997
   85MOL   C17345701   0.639   3.554   7.526 -0.7455  0.2402 -0.2128
   85MOL   C17445702   0.855   3.594   7.429 -0.1615 -0.6111 -0.2783
   85MOL   H17545703   1.368   3.449   7.682 -0.6471  0.6761 -0.8190
   85MOL   H17645704   1.369   3.551   0.017 -0.0269 -1.1372  0.1825
   85MOL   H17745705   1.264   3.599   7.710 -1.8281 -1.6800 -2.0097
   85MOL   H17845706   1.165   3.453   0.085  1.6723  0.6170  0.0818
   85MOL   H17945707   1.257   3.318   0.009 -1.9216 -1.5590 -0.0532
   85MOL   H18045708   1.032   3.476   7.669  0.8932  0.5440 -0.1206
   85MOL   H18145709   1.125   3.356   7.604  1.3721 -0.5853  1.2380
   85MOL   H18245710   0.903   3.313   7.813  0.8421 -2.2303  0.9801
   85MOL   H18345711   1.027   3.195   7.787 -0.8990 -2.3553 -1.5658
   85MOL   H18445712   0.843   3.153   7.629 -0.1489 -0.0161  0.7466
   85MOL   H18545713   0.978   3.222   7.534  2.1217  2.3873  1.6309
   85MOL   H18645714   0.683   3.603   7.613 -2.2020  1.0262  0.0820
   85MOL   H18745715   0.585   3.474   7.577 -1.0505  0.0951 -0.7539
   85MOL   H18845716   0.576   3.637   7.496 -0.4961  0.4007 -0.3009
   85MOL   H18945717   0.822   3.695   7.452  2.8490  0.1356  1.1360
   85MOL   H19045718   0.898   3.576   7.528 -0.2692 -1.4299 -0.3781
   85MOL   C19145719   0.405   4.011   7.049 -0.6708 -0.8350 -0.0916
   85MOL   C19245720   0.522   4.107   7.083 -0.4480 -0.0109 -0.2531
   85MOL   C19345721   0.663   4.043   7.062  0.4136  0.7060  0.8816
   85MOL   C19445722   0.699   3.929   7.153 -1.0218 -0.6679  0.2012
   85MOL   C19545723   0.847   3.905   7.148  0.0316  0.8445 -0.1755
   85MOL   O19645724   0.895   3.816   7.247  0.2447  0.2568  0.2329
   85MOL   C19745725   0.929   3.684   7.205  0.7594 -0.7492 -0.3320
   85MOL   O19845726   0.917   3.639   7.091  0.1738 -0.1168  0.2173
   85MOL   C19945727   0.982   3.605   7.328 -0.6241 -0.5265  0.7952
   85MOL   C20045728   1.038   3.471   7.282  0.2433  0.7493  0.3800
   85MOL   C20145729   1.093   3.687   7.403 -0.6101  0.1874 -0.6137
   85MOL   H20245730   0.310   4.064   7.053 -2.0299 -3.1079 -1.4659
   85MOL   H20345731   0.425   3.977   6.948  1.2098 -3.1448  1.0063
   85MOL   H20445732   0.410   3.921   7.111  0.4822 -0.4463  0.3966
   85MOL   H20545733   0.512   4.138   7.187  0.4901  0.2068 -0.2253
   85MOL   H20645734   0.524   4.198   7.023 -1.7067  1.1250  1.3678
   85MOL   H20745735   0.726   4.129   7.085 -2.3164  3.2222 -0.6684
   85MOL   H20845736   0.679   4.026   6.956  0.0322  1.0602  0.7645
   85MOL   H20945737   0.656   3.948   7.251 -0.9203 -0.8919  0.2895
   85MOL   H21045738   0.650   3.836   7.124 -1.0934 -1.5464  2.9791
   85MOL   H21145739   0.876   3.881   7.046 -1.3959 -1.5715 -0.0642
   85MOL   H21245740   0.892   4.003   7.164  0.9989  0.5195 -0.8365
   85MOL   H21345741   1.124   3.488   7.218 -1.3574  2.8120 -1.2773
   85MOL   H21445742   0.971   3.408   7.224 -0.1253  0.7214  0.8327
   85MOL   H21545743   1.071   3.402   7.361  1.6727  0.8388 -0.1182
   85MOL   H21645744   1.133   3.630   7.487  1.8617 -1.4111 -2.8080
   85MOL   H21745745   1.051   3.774   7.454  0.9478  0.8701 -0.4884
   85MOL   C21845746   1.109   3.501   6.632 -0.1291 -0.6759  0.0033
   85MOL   C21945747   1.110   3.495   6.783  0.1697 -0.1591 -0.5318
   85MOL   C22045748   1.211   3.585   6.860 -0.1760  0.3673  0.4071
   85MOL   C22145749   1.161   3.724   6.875  0.0497 -0.3931  0.0931
   85MOL   C22245750   1.239   3.809   6.976 -0.4305 -0.5148  0.1247
   85MOL   O22345751   1.220   3.750   7.110 -0.2140 -0.2948  0.5016
   85MOL   C22445752   1.218   3.820   7.220  0.5764  0.6360  0.3977
   85MOL   O22545753   1.206   3.940   7.217  0.0427  0.3931 -0.1725
   85MOL   C22645754   1.238   3.730   7.348  0.0305 -0.6843  0.4844
   85MOL   C22745755   1.333   3.605   7.324  0.2276 -0.6186 -0.8440
   85MOL   C22845756   1.298   3.824   7.468  0.1368 -0.3020 -0.6928
   85MOL   H22945757   1.212   3.501   6.596 -1.3720 -1.6315 -3.7280
   85MOL   H23045758   1.059   3.417   6.584 -0.1798 -1.6846  1.7781
   85MOL   H23145759   1.071   3.597   6.597 -0.1794 -1.0564 -1.0059
   85MOL   H23245760   1.140   3.397   6.820  1.2938  0.2829 -0.2374
   85MOL   H23345761   1.008   3.512   6.815  0.0198 -2.2229  0.1524
   85MOL   H23445762   1.307   3.592   6.809  0.3774 -1.2255  1.2071
   85MOL   H23545763   1.227   3.551   6.962  1.4185  1.8737  0.6759
   85MOL   H23645764   1.149   3.772   6.778 -1.5585 -1.7195 -0.3788
   85MOL   H23745765   1.056   3.725   6.905  0.1246 -1.8952  0.4518
   85MOL   H23845766   1.195   3.909   6.970 -0.6895 -0.6765 -0.6129
   85MOL   H23945767   1.347   3.808   6.961 -0.7701  0.1011 -2.5126
   85MOL   H24045768   1.292   3.513   7.367 -0.4980 -0.6184 -1.5264
   85MOL   H24145769   1.425   3.631   7.377 -1.5959  0.8120  1.7501
   85MOL   H24245770   1.349   3.581   7.219 -2.5281  2.4328 -2.0516
   85MOL   H24345771   1.277   3.782   7.566  0.6909  0.7530 -0.1136
   85MOL   H24445772   1.231   3.909   7.484 -0.2345 -0.9622  1.3821
   85MOL   C24545773   1.552   4.467   6.951  0.5385 -0.6287  0.4145
   85MOL   C24645774   1.570   4.325   6.892  0.0056 -0.3265  0.8863
   85MOL   C24745775   1.614   4.206   6.992 -0.2551 -0.0161 -0.1673
   85MOL   C24845776   1.502   4.162   7.096 -0.4513 -0.0797  0.3655
   85MOL   C24945777   1.550   4.034   7.165 -0.0035 -0.5140  0.0205
   85MOL   O25045778   1.468   4.016   7.286 -0.7014  0.6026 -0.0612
   85MOL   C25145779   1.513   3.911   7.364 -0.5322 -0.2599 -0.2055
   85MOL   O25245780   1.617   3.850   7.341  0.2542 -0.1886 -0.1465
   85MOL   C25345781   1.442   3.876   7.491 -0.4832 -0.0615 -0.0669
   85MOL   C25445782   1.525   3.773   7.576  0.3212 -0.4648 -0.5108
   85MOL   C25545783   1.430   4.011   7.580 -0.5900  0.4918 -0.6239
   85MOL   H25645784   1.479   4.472   7.032  2.5448  1.4844  2.1575
   85MOL   H25745785   1.644   4.488   7.005 -0.8330 -0.9756  2.9935
   85MOL   H25845786   1.513   4.545   6.885  3.4065 -0.6836 -1.4114
   85MOL   H25945787   1.491   4.291   6.824  0.3003  1.0304 -0.1373
   85MOL   H26045788   1.650   4.336   6.819 -1.6702 -0.0253 -0.9530
   85MOL   H26145789   1.701   4.234   7.051 -1.4865  1.8490  0.8178
   85MOL   H26245790   1.651   4.122   6.934 -2.0278  0.6528 -2.3267
   85MOL   H26345791   1.481   4.237   7.172 -1.2917 -1.5892  1.6648
   85MOL   H26445792   1.412   4.136   7.040  0.6658 -1.3944 -0.8615
   85MOL   H26545793   1.531   3.945   7.107 -0.4245 -0.4902  0.1248
   85MOL   H26645794   1.656   4.032   7.193 -0.3925 -0.7282  1.5252
   85MOL   H26745795   1.629   3.804   7.586 -0.3784  2.1271 -0.9845
   85MOL   H26845796   1.479   3.760   7.674 -2.5488  0.3873 -1.6828
   85MOL   H26945797   1.537   3.676   7.528  1.7312 -0.3864 -0.3466
   85MOL   H27045798   1.369   4.083   7.525 -1.6615 -1.1174 -1.5874
   85MOL   H27145799   1.358   3.990   7.659 -0.7143  1.3589 -0.5006
   85MOL   C27245800   1.066   3.803   0.298  0.2467 -0.3733  0.0617
   85MOL   C27345801   1.189   3.741   0.225  0.8093 -0.0667 -0.0326
   85MOL   C27445802   1.296   3.847   0.192 -0.1224 -0.0952 -0.5362
   85MOL   C27545803   1.438   3.791   0.177 -0.5101  0.9121  0.4663
   85MOL   C27645804   1.547   3.898   0.163 -0.5572  0.2871  0.0658
   85MOL   O27745805   1.523   3.961   0.040 -0.1117 -0.3277  0.3340
   85MOL   C27845806   1.615   3.997   7.764  0.2334  1.2068 -0.2615
   85MOL   O27945807   1.737   3.974   7.781 -0.2618 -0.0104 -0.3291
   85MOL   C28045808   1.551   4.084   7.644  0.2031  0.1007  0.3569
   85MOL   C28145809   1.661   4.118   7.539 -0.3224 -0.6686 -0.3846
   85MOL   C28245810   1.501   4.232   7.700 -0.4440 -0.1600 -0.0310
   85MOL   H28345811   1.007   3.724   0.345  0.1332  1.0468  2.4156
   85MOL   H28445812   1.106   3.861   0.381 -1.2793  0.2344  0.3803
   85MOL   H28545813   1.004   3.859   0.229 -0.1827 -1.9706 -0.8762
   85MOL   H28645814   1.239   3.658   0.274  3.2404  0.7131 -1.0939
   85MOL   H28745815   1.147   3.703   0.132  0.3084 -1.7913  0.8913
   85MOL   H28845816   1.266   3.912   0.110  1.0050  0.5169 -0.4669
   85MOL   H28945817   1.311   3.913   0.277  0.8979  0.9271 -1.4945
   85MOL   H29045818   1.463   3.737   0.268  1.6609  2.8952  1.0919
   85MOL   H29145819   1.453   3.724   0.093 -1.8746  0.0545  0.8750
   85MOL   H29245820   1.635   3.833   0.161 -0.4945  0.3760 -0.1731
   85MOL   H29345821   1.553   3.975   0.239  0.7880 -0.0676  0.3344
   85MOL   H29445822   1.727   4.038   7.503  2.3735  1.2162  0.1975
   85MOL   H29545823   1.615   4.166   7.453 -0.2664 -0.7440 -0.4560
   85MOL   H29645824   1.743   4.182   7.570 -0.8939 -0.3173  0.3917
   85MOL   H29745825   1.492   4.299   7.615 -1.3263  0.1056  0.2601
   85MOL   H29845826   1.401   4.227   7.745 -0.5559 -0.5872 -0.3251
   85MOL   C29945827   0.956   4.845   0.069  0.3821  0.1826  0.1562
   85MOL   C30045828   1.042   4.718   0.066 -0.7178  0.0269 -0.0653
   85MOL   C30145829   1.111   4.690   0.198  0.0600 -0.2351  0.5875
   85MOL   C30245830   1.208   4.572   0.213  0.9843 -0.0769  0.3194
   85MOL   C30345831   1.323   4.583   0.110  0.1604  0.3725 -0.1286
   85MOL   O30445832   1.408   4.471   0.114  0.3620 -0.4293  0.4362
   85MOL   C30545833   1.497   4.457   0.010  0.2071  0.1423 -0.8973
   85MOL   O30645834   1.504   4.535   7.733 -0.3467 -0.1364  1.0115
   85MOL   C30745835   1.570   4.319   0.009  0.2953  0.9777  0.0724
   85MOL   C30845836   1.550   4.243   0.151 -1.0038 -0.7540  0.5571
   85MOL   C30945837   1.719   4.334   7.791 -0.0506  0.5749 -0.1299
   85MOL   H31045838   0.915   4.855   0.169  1.1114  1.9825  0.3072
   85MOL   H31145839   0.885   4.839   7.800  2.9592  2.0723 -2.2941
   85MOL   H31245840   1.018   4.935   0.063  0.6052  0.0265  0.1195
   85MOL   H31345841   1.121   4.738   7.807 -0.0415 -0.6701  0.4551
   85MOL   H31445842   0.983   4.633   0.032 -0.3612 -0.5092  0.6214
   85MOL   H31545843   1.035   4.677   0.275 -0.0931  0.6204  0.5775
   85MOL   H31645844   1.157   4.783   0.231 -1.8607  0.9640 -0.0150
   85MOL   H31745845   1.148   4.485   0.189  0.8312  0.4344 -1.2272
   85MOL   H31845846   1.244   4.551   0.314  0.2392 -0.2185  0.5536
   85MOL   H31945847   1.279   4.592   0.011  1.1847 -3.6576 -1.0102
   85MOL   H32045848   1.380   4.676   0.108  0.7216  0.0064 -1.8529
   85MOL   H32145849   1.555   4.315   0.232  1.6065  0.0120 -0.2499
   85MOL   H32245850   1.452   4.195   0.155 -1.3696 -0.1908 -1.3010
   85MOL   H32345851   1.633   4.178   0.178  0.2696  0.7993  0.4291
   85MOL   H32445852   1.732   4.370   7.689  2.0039  1.8149  0.5377
   85MOL   H32545853   1.768   4.237   7.791  1.3801  1.2810 -0.4774
   85MOL   C32645854   2.061   3.813   0.309 -0.0815 -0.1955 -0.2427
   85MOL   C32745855   1.932   3.865   0.370 -0.0279 -0.6019  0.9308
   85MOL   C32845856   1.898   3.995   0.303  0.1927 -0.5687  0.3576
   85MOL   C32945857   1.996   4.107   0.345  0.1834  0.4979 -0.3696
   85MOL   C33045858   1.930   4.246   0.352  0.1235 -0.6261 -0.3441
   85MOL   O33145859   1.911   4.282   0.221  0.6394 -0.9423  0.6139
   85MOL   C33245860   1.843   4.394   0.203  0.7691  0.2788  0.3643
   85MOL   O33345861   1.781   4.455   0.293 -0.2166 -0.4567 -0.3880
   85MOL   C33445862   1.824   4.433   0.055 -0.0047 -0.4706 -0.4177
   85MOL   C33545863   1.961   4.405   7.801 -0.3621 -0.3098  0.5313
   85MOL   C33645864   1.788   4.581   0.044 -0.1045 -0.0411 -0.0013
   85MOL   H33745865   2.159   3.847   0.345 -0.9973  0.9017  1.2700
   85MOL   H33845866   2.078   3.809   0.201  0.2007 -3.0497 -0.1241
   85MOL   H33945867   2.060   3.707   0.332  0.0970 -0.4536 -1.4142
   85MOL   H34045868   1.942   3.860   0.479  2.6323 -1.5178  0.6806
   85MOL   H34145869   1.851   3.796   0.349  0.9753 -1.6828  0.5597
   85MOL   H34245870   1.796   4.024   0.325 -0.0552  0.4787 -2.0493
   85MOL   H34345871   1.912   3.982   0.196 -0.6008 -1.1552  0.3181
   85MOL   H34445872   2.089   4.109   0.289 -0.3614 -2.4272 -1.4597
   85MOL   H34545873   2.043   4.085   0.441 -1.4672  2.2483  0.8929
   85MOL   H34645874   1.984   4.318   0.413  0.2093 -2.3224  1.6070
   85MOL   H34745875   1.834   4.221   0.396 -0.1837  0.5424 -0.3281
   85MOL   H34845876   1.983   4.304   7.767  0.0699  0.7175 -2.3972
   85MOL   H34945877   2.041   4.448   0.047  1.4232 -3.0830  0.2423
   85MOL   H35045878   1.969   4.458   7.706 -1.5872 -2.4162 -0.8005
   85MOL   H35145879   1.708   4.605   0.114  0.7827 -1.1579  1.3982
   85MOL   H35245880   1.741   4.595   7.760  0.3288 -0.3204 -0.2469
   85MOL   C35345881   1.801   4.412   7.291 -0.1003  0.2778 -0.3791
   85MOL   C35445882   1.775   4.479   7.430 -0.0353  0.7825 -0.3505
   85MOL   C35545883   1.730   4.621   7.434  0.3446  0.2016 -0.4115
   85MOL   C35645884   1.839   4.728   7.409  0.1233 -0.1252  0.2864
   85MOL   C35745885   1.951   4.737   7.511 -0.7134  0.2738  0.0059
   85MOL   O35845886   1.888   4.745   7.638  0.2177  0.0546 -0.1826
   85MOL   C35945887   1.958   4.717   7.751 -0.5160  0.0466 -0.5815
   85MOL   O36045888   2.078   4.690   7.755 -0.2312  0.2493 -0.0596
   85MOL   C36145889   1.875   4.707   0.063 -0.4603  0.6092  0.3382
   85MOL   C36245890   1.959   4.700   0.193  0.6239  0.5211 -0.6645
   85MOL   C36345891   1.780   4.840   0.074 -0.1021  0.4765 -0.2118
   85MOL   H36445892   1.727   4.437   7.214 -1.5967 -0.1451  0.8885
   85MOL   H36545893   1.800   4.304   7.301  0.3086  0.3346  0.2649
   85MOL   H36645894   1.889   4.456   7.244  0.1909 -1.6924 -1.7219
   85MOL   H36745895   1.689   4.417   7.452  2.8918 -3.4467 -0.2388
   85MOL   H36845896   1.846   4.465   7.512  0.1572 -0.6400 -0.7474
   85MOL   H36945897   1.680   4.638   7.529  3.0262 -1.5995  1.4088
   85MOL   H37045898   1.663   4.634   7.350 -0.9133 -1.6174  0.2904
   85MOL   H37145899   1.809   4.831   7.389  1.7964  0.6962  1.7681
   85MOL   H37245900   1.890   4.707   7.315 -1.3727 -0.2612 -0.5099
   85MOL   H37345901   2.020   4.655   7.493  1.7536  2.1409  0.6453
   85MOL   H37445902   2.011   4.827   7.498  0.7964 -0.8552 -0.8613
   85MOL   H37545903   1.917   4.692   0.294  2.5791  3.9878  0.4852
   85MOL   H37645904   2.033   4.619   0.199  0.7851  0.5495 -2.0882
   85MOL   H37745905   2.025   4.785   0.207 -0.1349  0.8540  1.1099
   85MOL   H37845906   1.720   4.835   7.797 -0.6194  0.1140  0.1478
   85MOL   H37945907   1.719   4.807   0.158 -0.6195 -1.1174 -1.1952
   85MOL   C38045908   1.809   5.706   0.277  0.0323 -0.5079  0.6199
   85MOL   C38145909   1.929   5.613   0.286  0.1938 -0.0053 -0.3970
   85MOL   C38245910   1.881   5.461   0.293 -1.0258  0.1812  0.0088
   85MOL   C38345911   1.992   5.364   0.325  0.4611  0.0164  0.0745
   85MOL   C38445912   1.946   5.217   0.361 -0.5681  0.6001  0.7877
   85MOL   O38545913   1.887   5.161   0.248 -0.5883 -0.0294 -0.3567
   85MOL   C38645914   1.863   5.033   0.228  0.2331  0.8894 -0.0835
   85MOL   O38745915   1.859   4.959   0.317 -0.4597  0.5649 -0.0079
   85MOL   C38845916   1.829   4.992   0.081  0.4603 -0.1891  0.1846
   85MOL   C38945917   1.955   5.024   7.802  0.2789  0.0856  0.4921
   85MOL   C39045918   1.724   5.088   0.015  0.3271 -0.0360 -0.0688
   85MOL   H39145919   1.743   5.682   0.360 -0.4810 -1.3380 -0.0226
   85MOL   H39245920   1.843   5.809   0.272 -0.5877 -0.3360 -0.1961
   85MOL   H39345921   1.754   5.679   0.186  0.2138  0.9471  0.0647
   85MOL   H39445922   1.982   5.640   0.377  0.0137  1.8298 -0.8210
   85MOL   H39545923   2.000   5.629   0.206  0.8640  0.3548  0.2617
   85MOL   H39645924   1.802   5.446   0.367 -1.8720  2.8218 -0.2816
   85MOL   H39745925   1.849   5.434   0.193 -0.2188 -3.1132  0.5751
   85MOL   H39845926   2.065   5.368   0.244  0.8258  0.9246  0.4470
   85MOL   H39945927   2.045   5.421   0.402  2.4099 -0.9359 -0.5229
   85MOL   H40045928   1.866   5.207   0.434  0.1700  0.1330  1.5463
   85MOL   H40145929   2.030   5.153   0.390  0.8115  1.5400 -1.0413
   85MOL   H40245930   1.972   5.132   7.810  0.6832  0.2464 -2.1707
   85MOL   H40345931   1.949   4.990   7.699 -0.7239  5.0674 -1.2379
   85MOL   H40445932   2.040   4.971   0.029 -0.0778  1.2000  2.7736
   85MOL   H40545933   1.712   5.079   7.721 -1.2584  1.8502 -0.0674
   85MOL   H40645934   1.764   5.188   0.028  1.7925 -0.7112  0.8191
   85MOL   C40745935   1.551   4.815   7.138 -0.0823 -0.5079 -0.7526
   85MOL   C40845936   1.447   4.865   7.240 -0.6191  0.1853  0.0909
   85MOL   C40945937   1.491   4.862   7.387  0.0259  0.2733 -0.5133
   85MOL   C41045938   1.384   4.892   7.492 -0.1835 -0.1309  0.4596
   85MOL   C41145939   1.438   4.853   7.631  0.5050  0.1295  0.0839
   85MOL   O41245940   1.483   4.963   7.694 -0.1565  0.2953  0.1171
   85MOL   C41345941   1.508   4.966   0.016  0.6674  0.5956  0.1249
   85MOL   O41445942   1.472   4.875   0.092 -0.3930 -0.3458  0.5218
   85MOL   C41545943   1.574   5.095   0.065  0.6753  0.3262 -0.1494
   85MOL   C41645944   1.564   5.113   0.216  0.5176 -0.3664 -0.5919
   85MOL   C41745945   1.512   5.228   7.814  0.7635  0.8643 -0.7495
   85MOL   H41845946   1.537   4.710   7.114  0.9041 -0.3879 -1.8693
   85MOL   H41945947   1.549   4.876   7.047  1.0927  0.6594 -0.0190
   85MOL   H42045948   1.655   4.821   7.171  0.1567 -1.0535 -1.3872
   85MOL   H42145949   1.358   4.814   7.203 -0.3992 -0.6879  0.7628
   85MOL   H42245950   1.426   4.970   7.220  0.1197  0.5372  1.1474
   85MOL   H42345951   1.525   4.762   7.414  0.1245  0.3817 -0.2281
   85MOL   H42445952   1.580   4.924   7.402  1.2060 -1.7105  0.9360
   85MOL   H42545953   1.297   4.829   7.470 -0.6503  0.1522  1.4640
   85MOL   H42645954   1.352   4.996   7.488  0.6405  0.1258  0.4740
   85MOL   H42745955   1.360   4.815   7.697  1.6533  0.1612  1.4609
   85MOL   H42845956   1.502   4.764   7.636 -0.6045 -0.8754 -2.5299
   85MOL   H42945957   1.460   5.122   0.249  0.7752  2.2669 -0.4024
   85MOL   H43045958   1.621   5.196   0.257 -1.1286  1.1232 -1.2224
   85MOL   H43145959   1.595   5.020   0.262  2.8534 -0.9611 -3.2446
   85MOL   H43245960   1.524   5.213   7.707  2.0546  0.5613 -0.5647
   85MOL   H43345961   1.581   5.307   0.030 -0.2008  0.0890  3.8830
   85MOL   C43445962   1.608   5.444   0.820  0.2388 -0.1454  0.0490
   85MOL   C43545963   1.514   5.372   0.710  0.2196 -0.6465 -0.0729
   85MOL   C43645964   1.498   5.467   0.584  0.4524 -0.6689  0.1664
   85MOL   C43745965   1.468   5.383   0.465  0.7956 -0.5658  0.1529
   85MOL   C43845966   1.470   5.473   0.343  0.4440 -0.7797 -0.1838
   85MOL   O43945967   1.466   5.406   0.216 -0.0934  0.1501 -0.3915
   85MOL   C44045968   1.350   5.344   0.173 -0.2738  0.1650  0.5583
   85MOL   O44145969   1.243   5.362   0.233 -0.3376 -0.6924  0.0331
   85MOL   C44245970   1.364   5.272   0.034 -0.2896  0.4596 -0.2916
   85MOL   C44345971   1.262   5.152   0.045 -0.4049 -0.3215  0.0433
   85MOL   C44445972   1.300   5.349   7.727  0.6122 -0.2673  0.1187
   85MOL   H44545973   1.579   5.401   0.916  1.6559 -0.8860  0.1622
   85MOL   H44645974   1.710   5.419   0.790  0.0310  1.9696 -2.5677
   85MOL   H44745975   1.589   5.551   0.829 -0.7822 -0.4530  1.9018
   85MOL   H44845976   1.548   5.272   0.683  0.1256 -1.0083  1.1059
   85MOL   H44945977   1.420   5.358   0.762  0.0628 -3.7676 -1.0856
   85MOL   H45045978   1.435   5.555   0.603  0.7978 -0.6664  1.3508
   85MOL   H45145979   1.598   5.509   0.572 -0.4042  1.4140  0.0516
   85MOL   H45245980   1.373   5.331   0.476  0.9738 -0.9055  0.0909
   85MOL   H45345981   1.542   5.303   0.457  0.5011 -0.8344  0.1389
   85MOL   H45445982   1.566   5.526   0.344 -0.4093  0.8817 -1.6519
   85MOL   H45545983   1.388   5.545   0.341 -0.0946 -1.3947 -0.1177
   85MOL   H45645984   1.156   5.180   0.054 -0.5816 -1.5851  2.0607
   85MOL   H45745985   1.252   5.100   7.763 -2.8283 -0.7901  0.5111
   85MOL   H45845986   1.287   5.086   0.128 -2.1348  2.4081  2.8559
   85MOL   H45945987   1.191   5.337   7.733  0.3681  1.6857 -0.1231
   85MOL   H46045988   1.325   5.288   7.640 -0.5222  0.6946 -0.9081
   85MOL   C46145989   1.717   5.147   7.250  0.3737 -0.0128  0.4934
   85MOL   C46245990   1.811   5.190   7.370  0.1156 -0.0082 -0.2695
   85MOL   C46345991   1.732   5.264   7.481  0.9868  0.4834  0.2671
   85MOL   C46445992   1.699   5.405   7.434  0.6133 -0.1831 -0.8118
   85MOL   C46545993   1.651   5.493   7.547  0.2882  0.1044  0.0432
   85MOL   O46645994   1.518   5.454   7.575  0.2278 -0.5404  0.0948
   85MOL   C46745995   1.464   5.532   7.671  0.2073 -0.2098 -0.5595
   85MOL   O46845996   1.519   5.617   7.743  0.1278  0.4676  0.0046
   85MOL   C46945997   1.314   5.501   7.691 -0.1080 -0.0924 -0.9054
   85MOL   C47045998   1.247   5.586   7.803  0.9093  0.5369  0.6758
   85MOL   C47145999   1.223   5.517   7.558  0.3591  0.3159  0.1222
   85MOL   H47246000   1.756   5.073   7.181 -0.2415  1.7156 -1.7509
   85MOL   H47346001   1.699   5.235   7.188 -0.3851  0.1701  0.9724
   85MOL   H47446002   1.625   5.104   7.290 -0.0898  0.4898 -0.0325
   85MOL   H47546003   1.898   5.243   7.331  3.1250 -4.8086 -0.6010
   85MOL   H47646004   1.849   5.099   7.417 -0.9308  0.7657  2.1768
   85MOL   H47746005   1.794   5.268   7.571  3.3759 -1.6716 -1.1846
   85MOL   H47846006   1.644   5.207   7.509  1.2916 -0.0085  0.2337
   85MOL   H47946007   1.636   5.405   7.345 -1.7941 -0.4003  0.8450
   85MOL   H48046008   1.793   5.432   7.385  1.8400 -1.3918  0.7691
   85MOL   H48146009   1.718   5.496   7.632  1.1866  0.5020 -0.6723
   85MOL   H48246010   1.641   5.591   7.499 -1.4634  0.0190  0.1812
   85MOL   H48346011   1.310   5.601   0.077  1.1404  1.5179  0.3527
   85MOL   H48446012   1.144   5.555   0.006  1.8932 -2.5759  1.3705
   85MOL   H48546013   1.238   5.691   7.774  1.6695 -0.4790 -3.5453
   85MOL   H48646014   1.123   5.501   7.599  0.6565  2.3062  1.7387
   85MOL   H48746015   1.246   5.430   7.497  0.9202 -0.2664  1.1392
   85MOL   C48846016   1.350   5.176   6.998  0.5062 -0.3102  0.1961
   85MOL   C48946017   1.374   5.325   6.965  0.0700 -0.2957  0.1280
   85MOL   C49046018   1.453   5.400   7.074  0.2327  0.9037  0.6561
   85MOL   C49146019   1.443   5.548   7.068  0.0348  0.4863 -0.1438
   85MOL   C49246020   1.480   5.618   7.196 -0.4432 -0.2475  0.3923
   85MOL   O49346021   1.389   5.576   7.302 -0.5161  0.7203  0.1636
   85MOL   C49446022   1.364   5.662   7.402  0.2366 -0.2410  0.8504
   85MOL   O49546023   1.443   5.751   7.426  0.2332  0.3121 -0.2012
   85MOL   C49646024   1.223   5.643   7.463 -0.2569  0.0141 -0.4688
   85MOL   C49746025   1.180   5.771   7.545 -0.0791  0.4753 -0.2885
   85MOL   C49846026   1.123   5.614   7.343  0.1330 -0.8841 -0.0268
   85MOL   H49946027   1.288   5.133   6.920 -0.3964  0.4612  0.4767
   85MOL   H50046028   1.451   5.138   6.988  0.3852 -0.2075 -1.5549
   85MOL   H50146029   1.310   5.161   7.099 -0.5344  1.2104  0.0394
   85MOL   H50246030   1.274   5.364   6.946  1.0442  1.2694 -2.0416
   85MOL   H50346031   1.435   5.354   6.879 -0.9774  1.5223 -0.0193
   85MOL   H50446032   1.419   5.362   7.171 -1.0034  0.4126  0.0414
   85MOL   H50546033   1.560   5.379   7.066 -0.1822 -1.1781  0.3293
   85MOL   H50646034   1.339   5.565   7.042 -0.5864 -6.3422 -3.2627
   85MOL   H50746035   1.487   5.570   6.971 -1.1653  0.4876 -0.6890
   85MOL   H50846036   1.583   5.609   7.228 -0.1931  0.0729 -0.3058
   85MOL   H50946037   1.463   5.724   7.173  1.1312  0.0423  0.5342
   85MOL   H51046038   1.094   5.759   7.610 -1.3152 -0.7627 -2.1074
   85MOL   H51146039   1.160   5.856   7.480 -0.5197 -0.5324 -1.4898
   85MOL   H51246040   1.270   5.808   7.594  1.3698 -2.1002 -0.9099
   85MOL   H51346041   1.064   5.529   7.376  0.5432 -0.4594  1.8554
   85MOL   H51446042   1.174   5.585   7.251  1.0094 -0.5671  0.3550
   85MOL   C51546043   0.875   5.200   7.769 -0.3352  0.4924  0.6632
   85MOL   C51646044   0.881   5.353   7.790  0.1496 -0.2744 -0.3819
   85MOL   C51746045   0.828   5.428   7.668 -0.5397 -0.4874 -0.0686
   85MOL   C51846046   0.809   5.582   7.674 -0.1796  0.7319 -0.1690
   85MOL   C51946047   0.753   5.645   7.546 -0.7651 -0.0565 -0.4694
   85MOL   O52046048   0.851   5.638   7.437  0.6342 -0.0331  0.1575
   85MOL   C52146049   0.913   5.747   7.396 -0.4167 -0.9029  0.1415
   85MOL   O52246050   0.898   5.870   7.437 -0.1200 -0.4418  0.0569
   85MOL   C52346051   1.022   5.713   7.290  0.4021  0.3345 -0.5041
   85MOL   C52446052   0.951   5.639   7.173  0.4777 -0.3795 -0.0231
   85MOL   C52546053   1.093   5.833   7.231 -0.3004  0.3654  0.0815
   85MOL   H52646054   0.924   5.172   7.675 -0.5908 -0.4729  0.8136
   85MOL   H52746055   0.909   5.131   0.032  1.6988  0.5474 -0.1438
   85MOL   H52846056   0.776   5.157   7.754  0.1988 -0.0087 -1.6259
   85MOL   H52946057   0.829   5.388   0.066 -1.3643 -0.9130 -0.9962
   85MOL   H53046058   0.981   5.389   0.001 -0.3223 -0.9514  2.7424
   85MOL   H53146059   0.890   5.408   7.580  0.2739  0.1840  0.3498
   85MOL   H53246060   0.731   5.385   7.643 -0.0913 -1.4561 -0.1641
   85MOL   H53346061   0.908   5.626   7.685 -0.1212  0.9110 -1.4302
   85MOL   H53446062   0.765   5.617   7.768  0.4021  0.1914  0.3094
   85MOL   H53546063   0.654   5.603   7.531 -0.4089 -1.6458  1.4476
   85MOL   H53646064   0.735   5.751   7.564  1.1020  0.0152  1.1114
   85MOL   H53746065   0.885   5.556   7.198 -0.3912  0.3652  0.1845
   85MOL   H53846066   1.017   5.593   7.100  2.6146 -1.3723  2.4493
   85MOL   H53946067   0.884   5.706   7.118  1.3973  1.8599  1.4777
   85MOL   H54046068   1.084   5.921   7.295  0.0629  0.4121  0.0688
   85MOL   H54146069   1.047   5.870   7.140  0.7656  0.7600 -0.3050
   85MOL   H54246070   1.201   5.827   7.220 -0.5629 -0.3648 -2.3035
   86MOL     C146071   7.798   4.591   4.627 -0.9972  0.1130  0.5435
   86MOL     C246072   0.087   4.693   4.588  0.2115  0.0746  0.2852
   86MOL     C346073   0.182   4.728   4.701 -0.2724  0.4057  0.6503
   86MOL     C446074   0.306   4.802   4.651  0.9934  0.2336 -0.1420
   86MOL     C546075   0.407   4.862   4.754 -0.2511 -0.0417 -1.1679
   86MOL     O646076   0.507   4.946   4.693  0.0681 -0.1859  0.2572
   86MOL     C746077   0.578   5.018   4.775 -0.5146 -0.0496 -0.1259
   86MOL     O846078   0.562   5.032   4.899  0.4272  0.1243 -0.1591
   86MOL     C946079   0.678   5.110   4.699  0.2235 -0.3766  0.2399
   86MOL    C1046080   0.787   5.020   4.649  0.4309 -0.3322 -0.2907
   86MOL    C1146081   0.744   5.222   4.787 -0.2507  0.3045  0.4184
   86MOL    H1246082   7.741   4.646   4.702 -1.4488 -0.5696  0.7091
   86MOL    H1346083   0.023   4.506   4.682 -0.8654  0.2056  0.5920
   86MOL    H1446084   7.729   4.562   4.547  2.5822  0.0817 -2.6561
   86MOL    H1546085   0.149   4.654   4.508 -0.7573 -0.5620 -0.1568
   86MOL    H1646086   0.036   4.783   4.554 -1.8344 -0.8702  0.8122
   86MOL    H1746087   0.134   4.776   4.786 -0.8875 -1.9298  1.6458
   86MOL    H1846088   0.217   4.631   4.737  0.0675 -0.5932 -2.2102
   86MOL    H1946089   0.276   4.882   4.584  1.0931 -0.6924 -1.3008
   86MOL    H2046090   0.359   4.725   4.595  0.6979 -0.8089  0.9804
   86MOL    H2146091   0.350   4.917   4.829  1.1913 -2.5665  1.9061
   86MOL    H2246092   0.467   4.784   4.800  2.3073  1.1352 -2.3829
   86MOL    H2346093   0.748   4.938   4.590  1.6783 -0.8269 -0.4388
   86MOL    H2446094   0.838   4.972   4.732 -1.4283 -4.5247 -1.4718
   86MOL    H2546095   0.850   5.074   4.578 -0.8940  0.6401 -0.7507
   86MOL    H2646096   0.852   5.215   4.777 -0.2422  0.9580  0.0446
   86MOL    H2746097   0.731   5.198   4.893  0.1535 -1.0532  0.1717
   86MOL    H2846098   0.626   5.156   4.615 -0.3239 -0.2550  0.6374
   86MOL    C2946099   1.218   5.992   4.992 -0.2966  0.7446  0.4027
   86MOL    C3046100   1.108   5.909   4.912 -0.1092 -0.0118  0.2012
   86MOL    C3146101   1.085   5.774   4.971  0.2106 -0.0013 -0.3043
   86MOL    C3246102   1.008   5.689   4.881  0.4771 -0.4036  0.0385
   86MOL    C3346103   0.980   5.547   4.931  0.2860  0.0982 -0.0504
   86MOL    O3446104   0.898   5.467   4.843 -0.1134 -0.4684 -0.5344
   86MOL    C3546105   0.771   5.449   4.875 -0.0867 -0.2338 -0.5159
   86MOL    O3646106   0.715   5.490   4.978  0.3555 -0.2403  0.1499
   86MOL    C3746107   0.694   5.364   4.770  0.1667 -0.9488  0.0362
   86MOL    C3846108   0.545   5.362   4.809 -0.0565 -0.3266 -0.1816
   86MOL    C3946109   0.728   5.421   4.622 -0.2666  0.3951 -0.1271
   86MOL    H4046110   1.260   6.077   4.939 -2.0000  1.2326 -0.2146
   86MOL    H4146111   1.175   6.026   5.087 -2.0687 -0.6163  0.1164
   86MOL    H4246112   1.302   5.927   5.015 -0.5243  0.5151  0.5839
   86MOL    H4346113   1.142   5.901   4.809 -0.1114 -0.5250  0.2403
   86MOL    H4446114   1.016   5.968   4.910  1.0664  1.8374 -0.3099
   86MOL    H4546115   1.042   5.772   5.071  0.5248 -0.1192 -0.1714
   86MOL    H4646116   1.184   5.731   4.990  0.7276  1.3530  0.1189
   86MOL    H4746117   0.918   5.731   4.836 -0.4499 -0.9903  1.3333
   86MOL    H4846118   1.072   5.673   4.794  0.0610 -0.4313 -0.2608
   86MOL    H4946119   0.936   5.544   5.031 -1.3405  1.4848 -0.7001
   86MOL    H5046120   1.081   5.506   4.935  0.1701 -0.3975 -2.0563
   86MOL    H5146121   0.520   5.312   4.903 -0.4968 -0.2577 -0.2590
   86MOL    H5246122   0.482   5.314   4.734  0.2340 -2.7146  1.0635
   86MOL    H5346123   0.506   5.463   4.819  0.7955 -0.1138  1.0792
   86MOL    H5446124   0.705   5.345   4.547 -0.1944  0.4805 -0.2360
   86MOL    H5546125   0.836   5.406   4.621 -0.6133 -2.5522  1.1310
   86MOL    C5646126   1.046   5.547   3.775  0.7207 -0.5491 -0.2656
   86MOL    C5746127   0.957   5.503   3.898 -0.1595  0.0766  0.1312
   86MOL    C5846128   0.973   5.580   4.023 -0.6201 -0.3406  0.1151
   86MOL    C5946129   0.877   5.518   4.127 -0.2770  0.0973 -0.6713
   86MOL    C6046130   0.911   5.587   4.263 -0.3617 -0.5526 -0.1135
   86MOL    O6146131   0.815   5.546   4.354  0.6384 -0.7032 -0.3086
   86MOL    C6246132   0.808   5.603   4.475 -0.5903 -0.3943  0.1561
   86MOL    O6346133   0.894   5.682   4.515  0.1350  0.1151  0.5501
   86MOL    C6446134   0.683   5.556   4.555  0.3508 -0.1468 -0.2037
   86MOL    C6546135   0.661   5.670   4.661 -0.1877  0.5877  0.2797
   86MOL    C6646136   0.563   5.526   4.466 -1.3417  0.0348 -0.2933
   86MOL    H6746137   1.005   5.512   3.680 -1.2805  0.7783  0.0638
   86MOL    H6846138   1.152   5.525   3.781  0.6897 -0.3577  1.1167
   86MOL    H6946139   1.029   5.654   3.771 -1.6472 -0.8937 -0.5638
   86MOL    H7046140   0.854   5.497   3.863  0.1583 -0.4910 -0.7316
   86MOL    H7146141   0.989   5.402   3.922 -5.4496 -1.8689 -0.4478
   86MOL    H7246142   1.077   5.581   4.055 -0.3379  2.6598 -0.7351
   86MOL    H7346143   0.951   5.686   4.007 -0.6205 -0.1320  1.4581
   86MOL    H7446144   0.893   5.410   4.130 -1.1417 -0.0072  0.5988
   86MOL    H7546145   0.775   5.544   4.099 -0.7091 -1.8826 -0.9726
   86MOL    H7646146   1.014   5.581   4.299 -0.4104  1.7573  0.5129
   86MOL    H7746147   0.898   5.692   4.237  3.7891  0.3807  1.1124
   86MOL    H7846148   0.746   5.679   4.729  0.8622 -0.5475 -0.8500
   86MOL    H7946149   0.569   5.644   4.713 -1.0605 -0.4325 -1.7103
   86MOL    H8046150   0.651   5.768   4.614  0.7351 -0.4030 -2.0713
   86MOL    H8146151   0.500   5.473   4.537  1.6229  1.6095  3.7159
   86MOL    H8246152   0.593   5.459   4.386  1.0873  1.2416 -0.4309
   86MOL    C8346153   7.775   5.815   4.854  0.1524 -0.4312 -0.2857
   86MOL    C8446154   0.074   5.920   4.872 -0.4984 -0.0397  0.3668
   86MOL    C8546155   0.125   5.973   4.739 -0.3730 -0.2690 -0.5197
   86MOL    C8646156   0.173   5.868   4.640 -0.4628 -0.3672  0.4516
   86MOL    C8746157   0.284   5.785   4.694  0.1588  0.3394  0.1537
   86MOL    O8846158   0.329   5.704   4.585  0.7611  0.0146 -0.1809
   86MOL    C8946159   0.422   5.749   4.492  0.7014  0.5225 -0.1299
   86MOL    O9046160   0.459   5.863   4.482  0.0675  0.0140  0.1528
   86MOL    C9146161   0.472   5.633   4.394 -0.1160 -0.0706  0.0881
   86MOL    C9246162   0.555   5.695   4.276 -0.0468 -0.3050  0.0793
   86MOL    C9346163   0.352   5.552   4.337 -0.1413 -0.3438 -0.4414
   86MOL    H9446164   7.737   5.772   4.946 -0.6376  1.7887  0.4755
   86MOL    H9546165   7.684   5.849   4.803  0.0435  1.1777  0.9252
   86MOL    H9646166   0.004   5.730   4.802  0.2982 -0.2262 -0.4999
   86MOL    H9746167   0.155   5.863   4.919  1.5149 -0.9384 -3.9495
   86MOL    H9846168   0.050   6.000   4.942 -0.4532  0.7835 -0.5536
   86MOL    H9946169   0.213   6.035   4.755  0.1986 -1.4453  0.9075
   86MOL   H10046170   0.048   6.040   4.698 -0.7805  1.1732  2.4913
   86MOL   H10146171   0.208   5.918   4.550 -0.7302 -0.8594  0.0674
   86MOL   H10246172   0.095   5.807   4.594  0.4713  0.0394 -1.7662
   86MOL   H10346173   0.248   5.721   4.775  1.6317  0.3000  0.7857
   86MOL   H10446174   0.369   5.845   4.727 -0.2939  1.7471 -1.2008
   86MOL   H10546175   0.653   5.734   4.303 -0.9054  1.7976  0.2659
   86MOL   H10646176   0.499   5.779   4.235  1.2684  0.3652 -0.3580
   86MOL   H10746177   0.569   5.619   4.200 -1.5937 -1.5775  1.0403
   86MOL   H10846178   0.388   5.459   4.293  1.1928  0.4693 -1.1127
   86MOL   H10946179   0.300   5.520   4.427  0.9468 -0.5011  0.1400
   86MOL   C11046180   0.760   5.153   3.699  0.7131 -0.4488 -0.1647
   86MOL   C11146181   0.700   5.201   3.825  0.6256 -0.4222  0.6602
   86MOL   C11246182   0.580   5.305   3.806  0.0253 -0.0072 -0.5680
   86MOL   C11346183   0.517   5.349   3.940 -0.2378 -0.9834  0.0187
   86MOL   C11446184   0.414   5.468   3.928 -0.2272  0.7719  0.7096
   86MOL   O11546185   0.366   5.492   4.057  0.7659 -0.3013 -0.6420
   86MOL   C11646186   0.312   5.616   4.097  0.5640 -0.2677  0.2148
   86MOL   O11746187   0.319   5.719   4.030  0.5236  0.3932  0.1982
   86MOL   C11846188   0.248   5.614   4.240  0.4230  0.3816 -0.4217
   86MOL   C11946189   0.202   5.758   4.267  0.6696  0.1687 -0.4581
   86MOL   C12046190   0.127   5.501   4.242 -1.0805  0.0072 -0.3470
   86MOL   H12146191   0.829   5.227   3.660  1.0806 -0.0656  1.1905
   86MOL   H12246192   0.822   5.065   3.714  0.3853 -0.3749  1.7719
   86MOL   H12346193   0.693   5.137   3.614  0.0866  2.0433 -0.1770
   86MOL   H12446194   0.673   5.113   3.883  1.7854 -1.6658 -0.6620
   86MOL   H12546195   0.783   5.255   3.871  0.3518 -0.0999  0.7832
   86MOL   H12646196   0.623   5.394   3.761 -0.0045  0.3526  0.1005
   86MOL   H12746197   0.498   5.274   3.741  0.2598 -1.7765 -0.0321
   86MOL   H12846198   0.606   5.373   3.998 -0.6269 -1.6904  0.9066
   86MOL   H12946199   0.462   5.264   3.980  0.1900 -1.5607 -0.6053
   86MOL   H13046200   0.468   5.553   3.885 -0.2500 -0.6200 -2.2078
   86MOL   H13146201   0.334   5.439   3.860  1.5646 -0.7512 -0.8349
   86MOL   H13246202   0.106   5.795   4.231 -0.2543 -0.9587  0.8285
   86MOL   H13346203   0.186   5.767   4.374  1.0520  1.8779 -0.5169
   86MOL   H13446204   0.273   5.836   4.239  1.3622 -0.1861  0.3155
   86MOL   H13546205   0.172   5.411   4.199 -0.3530  0.7754 -1.2149
   86MOL   H13646206   0.097   5.477   4.344  0.2655 -1.4080 -0.2632
   86MOL   C13746207   7.300   5.769   4.821 -0.0425 -0.2117 -0.2174
   86MOL   C13846208   7.396   5.697   4.741 -0.0823  0.1502 -0.9951
   86MOL   C13946209   7.451   5.759   4.612 -0.0509 -0.0958 -0.3369
   86MOL   C14046210   7.553   5.661   4.550  0.0907  0.0089  0.4846
   86MOL   C14146211   7.628   5.728   4.430  0.1235 -0.2292 -0.1734
   86MOL   O14246212   7.705   5.629   4.368 -0.1297 -0.1481 -0.5357
   86MOL   C14346213   7.715   5.637   4.232 -0.7204  0.7221 -0.4210
   86MOL   O14446214   7.652   5.718   4.164 -0.4177 -0.6952 -0.5942
   86MOL   C14546215   7.800   5.527   4.171 -0.4127  0.4931 -0.4235
   86MOL   C14646216   0.018   5.565   4.020  0.0707  0.8785  0.1250
   86MOL   C14746217   7.712   5.397   4.175  0.3454 -0.6298 -0.3702
   86MOL   H14846218   7.361   5.843   4.873 -0.9374  0.1856  0.2829
   86MOL   H14946219   7.271   5.700   4.899 -0.7849  1.1080  0.7003
   86MOL   H15046220   7.216   5.815   4.768  0.9733 -0.4914 -2.1162
   86MOL   H15146221   7.375   5.590   4.735 -1.0807  0.4269 -2.5933
   86MOL   H15246222   7.478   5.690   4.812 -1.6215 -0.3940  0.7802
   86MOL   H15346223   7.373   5.773   4.538 -0.7059 -1.1498  0.1545
   86MOL   H15446224   7.498   5.857   4.626 -0.7760  0.0633  1.1515
   86MOL   H15546225   7.634   5.638   4.620  1.2176  1.8674 -0.1739
   86MOL   H15646226   7.506   5.566   4.524  1.2042 -0.3075 -0.3777
   86MOL   H15746227   7.693   5.807   4.468  0.4192 -2.4524  4.2989
   86MOL   H15846228   7.566   5.784   4.359  0.7892  1.3806  0.4785
   86MOL   H15946229   0.102   5.520   3.966  0.6010  0.0088  1.6406
   86MOL   H16046230   0.048   5.669   4.008  0.9019  0.6478  0.1445
   86MOL   H16146231   7.743   5.559   3.957  0.8533  0.5876 -0.9684
   86MOL   H16246232   7.660   5.392   4.271  1.0458  0.2882  0.0681
   86MOL   H16346233   7.632   5.411   4.102  1.4918  1.4516 -1.2738
   86MOL   C16446234   0.658   5.116   4.324 -1.3584  0.0675  1.0827
   86MOL   C16546235   0.525   5.061   4.361 -0.2276  0.3462 -0.4653
   86MOL   C16646236   0.447   5.024   4.240  0.3328  0.4015 -0.4209
   86MOL   C16746237   0.310   4.966   4.292 -0.3811  0.0517  0.7743
   86MOL   C16846238   0.217   5.076   4.344 -0.1064 -0.0945 -0.1818
   86MOL   O16946239   0.142   5.131   4.239  0.0534  0.7271  0.0871
   86MOL   C17046240   0.033   5.204   4.266 -0.9963  0.2832 -0.3047
   86MOL   O17146241   7.805   5.242   4.375  0.3300 -0.7253  0.0615
   86MOL   C17246242   7.765   5.252   4.146 -0.0483 -1.0981  0.2494
   86MOL   C17346243   0.034   5.253   4.011  0.0997 -0.2690 -0.3183
   86MOL   C17446244   7.639   5.166   4.127 -0.5846  0.3275  0.0201
   86MOL   H17546245   0.702   5.155   4.416 -2.2330  1.0875  1.0789
   86MOL   H17646246   0.654   5.193   4.247 -0.8877 -2.2927 -1.3503
   86MOL   H17746247   0.724   5.033   4.299 -0.0407  0.9199  1.6440
   86MOL   H17846248   0.481   5.141   4.421 -0.6544  0.8962 -1.5064
   86MOL   H17946249   0.544   4.970   4.418 -1.0760  0.5615  0.1797
   86MOL   H18046250   0.436   5.105   4.168  0.1416  0.4881 -0.2976
   86MOL   H18146251   0.499   4.945   4.185 -0.2152  0.9535 -1.7584
   86MOL   H18246252   0.309   4.896   4.375  1.5670 -1.0977 -0.1316
   86MOL   H18346253   0.263   4.907   4.213  0.3895  1.2452 -0.6211
   86MOL   H18446254   0.272   5.148   4.405  2.1410 -2.3405  0.5341
   86MOL   H18546255   0.138   5.028   4.402  0.1348  0.7181  0.8413
   86MOL   H18646256   7.797   5.320   3.942  0.6073  1.3082  0.8047
   86MOL   H18746257   0.047   5.162   3.952  2.4810 -0.0818 -0.1558
   86MOL   H18846258   0.132   5.300   4.013 -0.2566  0.5198 -1.2731
   86MOL   H18946259   7.576   5.185   4.213 -0.9071 -0.4575 -0.0371
   86MOL   H19046260   7.584   5.210   4.044 -0.6886  1.0779  0.4823
   86MOL   C19146261   7.571   5.329   4.765 -0.0475  0.5880 -0.0973
   86MOL   C19246262   7.636   5.193   4.731 -0.1335  0.0138  0.0075
   86MOL   C19346263   7.553   5.115   4.624 -0.0018  0.8121  0.0333
   86MOL   C19446264   7.618   4.987   4.588  0.0003  0.1741 -0.0405
   86MOL   C19546265   7.538   4.922   4.472  0.1231 -0.2148  0.1892
   86MOL   O19646266   7.554   4.980   4.345 -0.4018 -0.2353  0.2511
   86MOL   C19746267   7.656   4.945   4.258 -0.0217  0.1362 -0.5072
   86MOL   O19846268   7.752   4.873   4.291  0.4566  0.3031 -0.0279
   86MOL   C19946269   7.630   5.009   4.119 -0.3069  0.2982  0.2971
   86MOL   C20046270   7.735   4.958   4.018 -0.6863  0.3689  0.8710
   86MOL   C20146271   7.490   4.978   4.064 -0.5185 -0.1017 -0.1368
   86MOL   H20246272   7.576   5.396   4.679 -2.9957  0.7954 -0.1579
   86MOL   H20346273   7.463   5.324   4.778 -0.0906  0.8563 -0.3502
   86MOL   H20446274   7.612   5.366   4.859  0.4989 -0.7955  0.2293
   86MOL   H20546275   7.638   5.131   4.821 -0.4914  1.7106  1.2152
   86MOL   H20646276   7.737   5.207   4.691 -0.1933 -2.7093 -1.1909
   86MOL   H20746277   7.552   5.180   4.537 -3.1171  0.1364 -0.4866
   86MOL   H20846278   7.453   5.100   4.665 -0.3947  0.0657 -1.1812
   86MOL   H20946279   7.722   5.002   4.558 -0.8286  0.6475 -2.8050
   86MOL   H21046280   7.609   4.921   4.674 -0.0966  0.8523  0.4706
   86MOL   H21146281   7.550   4.814   4.468  0.5699 -0.1662  0.2070
   86MOL   H21246282   7.433   4.935   4.500 -0.0454 -0.1469 -0.4588
   86MOL   H21346283   7.739   4.849   4.014 -0.9475  0.3440  1.2325
   86MOL   H21446284   0.019   4.979   4.061 -0.2333 -3.4691  1.9327
   86MOL   H21546285   7.721   5.006   3.921 -1.4597 -0.0309  0.7722
   86MOL   H21646286   7.496   5.026   3.967  0.2818 -0.5799 -0.3281
   86MOL   H21746287   7.418   5.046   4.108  1.9993  1.9320  0.9572
   86MOL   C21846288   0.244   4.594   3.994 -0.1502 -0.8212  0.0899
   86MOL   C21946289   0.164   4.465   4.028 -0.6058 -0.6680  0.1825
   86MOL   C22046290   0.090   4.475   4.166  0.0458  0.2821 -0.6204
   86MOL   C22146291   7.792   4.579   4.189 -0.3952 -0.7409  0.2326
   86MOL   C22246292   7.677   4.569   4.092  0.1834  0.0840 -0.4849
   86MOL   O22346293   7.585   4.674   4.106 -0.1347 -0.3669  0.1144
   86MOL   C22446294   7.507   4.726   4.008 -0.0006  0.7327 -1.1540
   86MOL   O22546295   7.509   4.699   3.889  0.4335  0.3436 -0.2482
   86MOL   C22646296   7.413   4.832   4.059  0.0475  0.1596  0.1511
   86MOL   C22746297   7.294   4.849   3.952  0.0958  0.4639 -0.7883
   86MOL   C22846298   7.353   4.798   4.203  0.1814 -0.2609 -0.4729
   86MOL   H22946299   0.171   4.669   3.966 -2.3360 -2.7151  0.5490
   86MOL   H23046300   0.314   4.637   4.065  1.8327 -1.7092 -1.2689
   86MOL   H23146301   0.310   4.561   3.913 -0.4353 -0.9205 -0.1073
   86MOL   H23246302   0.231   4.380   4.037 -0.0294 -0.0432  1.9127
   86MOL   H23346303   0.101   4.454   3.940 -0.7938  0.1093  0.2138
   86MOL   H23446304   0.155   4.480   4.253 -1.7086 -1.1152  0.8033
   86MOL   H23546305   0.046   4.379   4.193 -3.4064  1.8990 -0.3337
   86MOL   H23646306   7.758   4.558   4.290  1.6113  0.5143  1.1998
   86MOL   H23746307   0.024   4.677   4.178  0.7051 -1.2565  0.1245
   86MOL   H23846308   7.616   4.481   4.112 -0.9114  1.1488  0.9282
   86MOL   H23946309   7.711   4.556   3.989  0.8196  0.4398 -0.3242
   86MOL   H24046310   7.320   4.890   3.855 -1.0423  0.6906 -1.0015
   86MOL   H24146311   7.201   4.896   3.982 -0.5081 -1.4651  0.4635
   86MOL   H24246312   7.246   4.753   3.931 -0.1916  0.1655  1.1458
   86MOL   H24346313   7.325   4.897   4.238  0.0089 -0.9306  1.3137
   86MOL   H24446314   7.438   4.761   4.260 -2.1425 -1.8420  2.1016
   86MOL   C24546315   7.306   5.321   4.324 -0.0997  0.4541 -0.5916
   86MOL   C24646316   7.155   5.286   4.284  0.3941  0.0657 -0.0614
   86MOL   C24746317   7.131   5.133   4.283 -0.5761  0.3464  0.0122
   86MOL   C24846318   7.012   5.077   4.208  0.0510  0.2201  0.5996
   86MOL   C24946319   6.960   4.946   4.274  0.0896  0.2108  0.3889
   86MOL   O25046320   7.062   4.850   4.295 -0.6527 -0.4653 -0.2042
   86MOL   C25146321   7.094   4.763   4.205 -0.2553 -0.0657  0.0726
   86MOL   O25246322   7.024   4.734   4.111  0.1733  0.0108  0.5997
   86MOL   C25346323   7.232   4.699   4.230  0.7210 -0.2292  0.1045
   86MOL   C25446324   7.241   4.671   4.382  0.0150 -0.2696  0.4439
   86MOL   C25546325   7.250   4.565   4.155 -0.0588  0.0542  0.4989
   86MOL   H25646326   7.373   5.251   4.273 -0.1073 -0.8576  1.1556
   86MOL   H25746327   7.339   5.424   4.309  0.1537  0.1729 -2.0521
   86MOL   H25846328   7.313   5.307   4.432 -0.0610 -0.5380 -0.7147
   86MOL   H25946329   7.081   5.339   4.345 -0.6252 -0.4290 -0.8664
   86MOL   H26046330   7.156   5.332   4.185 -0.0066 -0.3324 -0.2457
   86MOL   H26146331   7.145   5.084   4.379  0.0950 -1.6194 -1.0587
   86MOL   H26246332   7.216   5.091   4.229 -0.1452 -0.9860  1.6577
   86MOL   H26346333   6.928   5.143   4.187  0.0341 -0.1712 -0.6289
   86MOL   H26446334   7.040   5.059   4.104 -0.7770 -1.8336  0.7118
   86MOL   H26546335   6.929   4.968   4.376 -0.6750 -3.4708  1.0132
   86MOL   H26646336   6.877   4.915   4.210 -0.0437  2.1377 -0.3946
   86MOL   H26746337   7.330   4.615   4.410  1.0832  1.6296  0.8835
   86MOL   H26846338   7.261   4.764   4.435 -1.0873  1.0046 -1.2841
   86MOL   H26946339   7.152   4.631   4.430 -0.3656  1.3293  1.0768
   86MOL   H27046340   7.212   4.584   4.055 -0.1818 -1.1828  0.3016
   86MOL   H27146341   7.353   4.535   4.138 -0.3203  0.8874 -2.9633
   86MOL   C27246342   0.062   4.143   4.662 -0.3218 -0.8799 -0.0234
   86MOL   C27346343   7.811   4.205   4.539 -0.0279 -0.3030  0.3907
   86MOL   C27446344   7.659   4.252   4.560  0.7380 -0.0693 -0.0995
   86MOL   C27546345   7.591   4.299   4.434 -0.0566 -0.0006  0.1473
   86MOL   C27646346   7.442   4.309   4.450  0.8235 -0.3357 -0.0107
   86MOL   O27746347   7.379   4.353   4.326 -0.1381  0.2213 -0.3348
   86MOL   C27846348   7.240   4.374   4.334  0.7432 -0.0546 -0.1534
   86MOL   O27946349   7.173   4.356   4.437 -0.0740  0.2878  0.2341
   86MOL   C28046350   7.171   4.427   4.200  0.2006  0.5199 -0.3490
   86MOL   C28146351   7.024   4.442   4.225 -0.6438 -0.2490  0.5593
   86MOL   C28246352   7.203   4.317   4.097  0.1575 -0.8838  0.0098
   86MOL   H28346353   0.170   4.129   4.653  0.0326  1.8807 -0.5977
   86MOL   H28446354   0.043   4.202   4.752  0.6899 -0.3566 -0.1495
   86MOL   H28546355   0.024   4.043   4.679  3.3311 -2.4278 -0.5966
   86MOL   H28646356   0.063   4.285   4.506  0.4367  0.5527  3.2954
   86MOL   H28746357   7.808   4.138   4.453  1.2992 -0.5603  0.5413
   86MOL   H28846358   7.600   4.178   4.615  1.1874 -1.3040 -1.2497
   86MOL   H28946359   7.660   4.337   4.628 -0.2031 -1.7974  2.1242
   86MOL   H29046360   7.629   4.398   4.408 -1.5909  0.0856 -1.9319
   86MOL   H29146361   7.616   4.236   4.348 -3.2421  1.5260 -1.9981
   86MOL   H29246362   7.414   4.363   4.541  0.0299 -1.0325  0.1678
   86MOL   H29346363   7.399   4.209   4.462 -0.5005  0.2067 -0.1276
   86MOL   H29446364   6.955   4.444   4.141 -1.1538  1.1719  0.9812
   86MOL   H29546365   6.987   4.352   4.274 -1.9529 -0.4750 -0.8257
   86MOL   H29646366   7.003   4.518   4.301  0.7502 -0.9525  1.6831
   86MOL   H29746367   7.307   4.322   4.067 -0.0248 -0.2817 -0.5325
   86MOL   H29846368   7.190   4.217   4.139 -1.2484 -0.2867  1.0314
   86MOL   C29946369   7.034   3.619   4.004 -0.4241  0.2880 -0.0615
   86MOL   C30046370   6.983   3.718   4.105  0.2807 -0.3782 -0.6971
   86MOL   C30146371   6.899   3.828   4.035  0.2704 -0.0968  0.1836
   86MOL   C30246372   6.861   3.944   4.136 -0.3102  0.0819 -0.4849
   86MOL   C30346373   6.832   4.081   4.078 -0.3075  0.6958 -0.3712
   86MOL   O30446374   6.960   4.129   4.042  0.6062  0.1695 -0.5564
   86MOL   C30546375   6.976   4.244   3.976 -0.3868 -0.3333 -0.3835
   86MOL   O30646376   6.883   4.302   3.926  0.5472  0.8656  0.4363
   86MOL   C30746377   7.126   4.289   3.961 -0.0392  0.8342 -0.5855
   86MOL   C30846378   7.121   4.420   3.880  0.5439  0.4309  0.8054
   86MOL   C30946379   7.207   4.179   3.883 -0.0331 -0.6297 -0.0741
   86MOL   H31046380   7.093   3.668   3.927 -0.5476  2.2147  1.0519
   86MOL   H31146381   6.949   3.581   3.946  0.0949 -0.8606 -0.0950
   86MOL   H31246382   7.097   3.540   4.045 -1.8179 -2.0661 -2.2202
   86MOL   H31346383   7.063   3.765   4.163 -0.4020 -2.4779  2.0051
   86MOL   H31446384   6.915   3.652   4.158  1.8288 -0.6158  1.0273
   86MOL   H31546385   6.807   3.783   3.997 -1.2708  3.8488 -1.0773
   86MOL   H31646386   6.961   3.856   3.950 -0.1479  1.7718  0.4701
   86MOL   H31746387   6.938   3.970   4.209 -0.1902  0.9158 -0.9015
   86MOL   H31846388   6.770   3.908   4.183  0.4513  0.4687  1.3350
   86MOL   H31946389   6.760   4.074   3.997 -2.2948 -1.4727  1.5281
   86MOL   H32046390   6.794   4.141   4.160  0.9205 -1.4630  1.8488
   86MOL   H32146391   7.218   4.465   3.862 -0.2287  2.4337  1.5461
   86MOL   H32246392   7.080   4.399   3.781 -0.7884 -2.1184  1.8455
   86MOL   H32346393   7.060   4.501   3.920 -2.1727  0.1488 -2.4993
   86MOL   H32446394   7.195   4.086   3.939  2.5033 -0.0706  1.5044
   86MOL   H32546395   7.312   4.207   3.892  0.2591 -1.6915 -0.0531
   86MOL   C32646396   6.692   3.660   3.447  0.2592  0.2790  0.6419
   86MOL   C32746397   6.836   3.683   3.503  0.7217  0.4283 -0.0258
   86MOL   C32846398   6.840   3.783   3.618 -0.3289 -0.2912 -0.4537
   86MOL   C32946399   6.813   3.938   3.579 -0.1591  0.4922  0.5178
   86MOL   C33046400   6.842   4.038   3.693 -0.2405 -0.2844 -0.3769
   86MOL   O33146401   6.979   4.040   3.720  0.0260 -0.0168 -0.2899
   86MOL   C33246402   7.053   4.150   3.675 -0.4674  0.1753  0.4220
   86MOL   O33346403   7.015   4.227   3.586 -0.3683 -0.1230  0.4396
   86MOL   C33446404   7.202   4.143   3.724 -0.0425 -0.2846 -0.4747
   86MOL   C33546405   7.289   4.244   3.650  0.0485 -0.6870 -0.3739
   86MOL   C33646406   7.260   4.005   3.707 -0.2250 -0.1960  0.0525
   86MOL   H33746407   6.664   3.755   3.400 -0.6733 -0.5263 -0.4660
   86MOL   H33846408   6.617   3.615   3.511 -0.0270 -0.6164 -0.3069
   86MOL   H33946409   6.709   3.588   3.366 -0.2943 -0.8432  1.5178
   86MOL   H34046410   6.902   3.724   3.426  0.5475 -0.7074 -0.7919
   86MOL   H34146411   6.882   3.591   3.539  1.9861  0.0196 -2.5675
   86MOL   H34246412   6.939   3.779   3.665  0.2890 -0.6355 -1.7495
   86MOL   H34346413   6.765   3.758   3.693 -1.6079 -1.6233 -2.1478
   86MOL   H34446414   6.706   3.948   3.562 -0.5346 -1.7811  1.2979
   86MOL   H34546415   6.869   3.966   3.490 -1.2426 -0.1778 -0.3940
   86MOL   H34646416   6.788   4.002   3.780  0.3832  2.6524  1.2968
   86MOL   H34746417   6.808   4.140   3.678  1.9053  0.6262  0.7234
   86MOL   H34846418   7.395   4.230   3.670  0.0431 -0.6478 -0.3161
   86MOL   H34946419   7.266   4.349   3.666 -0.3621 -1.0696  1.7487
   86MOL   H35046420   7.272   4.241   3.543 -0.3393  1.3221 -0.3854
   86MOL   H35146421   7.198   3.942   3.771  0.2226  1.9201  2.6661
   86MOL   H35246422   7.345   4.003   3.775  1.2203 -1.6948 -1.7392
   86MOL   C35346423   7.810   3.960   2.871  0.3817  0.3639  0.1184
   86MOL   C35446424   7.688   3.922   2.948  0.7045  0.1932  0.1755
   86MOL   C35546425   7.701   3.954   3.103 -0.3835 -0.3767  0.0918
   86MOL   C35646426   7.571   3.937   3.176  0.1545 -0.6724 -0.3412
   86MOL   C35746427   7.583   3.961   3.326 -0.7576 -0.6455 -0.9416
   86MOL   O35846428   7.464   3.924   3.393  0.6799 -0.0087 -0.1274
   86MOL   C35946429   7.430   3.975   3.511 -0.2709 -0.7806  0.2835
   86MOL   O36046430   7.500   4.057   3.567 -0.5325 -0.2954  0.1630
   86MOL   C36146431   7.292   3.928   3.569 -0.1264 -0.1326 -1.0166
   86MOL   C36246432   7.180   3.945   3.460 -0.3799  0.7745  0.0612
   86MOL   C36346433   7.293   3.775   3.603 -0.0499 -0.3933 -0.4464
   86MOL   H36446434   0.033   4.055   2.911 -1.3568  0.7702  0.7868
   86MOL   H36546435   7.795   3.969   2.764 -0.8612  1.0573  0.3373
   86MOL   H36646436   0.091   3.906   2.876  0.8623  0.9903 -2.0572
   86MOL   H36746437   7.615   3.997   2.919 -0.6209 -0.6479  1.2830
   86MOL   H36846438   7.639   3.827   2.927  1.2500  0.0582 -0.5130
   86MOL   H36946439   7.741   4.053   3.121  0.8524 -1.2884  2.5655
   86MOL   H37046440   7.773   3.890   3.155 -0.3041  0.2505  0.7664
   86MOL   H37146441   7.524   3.839   3.163  0.8165 -0.9099 -0.9976
   86MOL   H37246442   7.493   4.002   3.138  3.1800  2.2214 -1.8267
   86MOL   H37346443   7.668   3.921   3.381  1.6301  2.2944 -2.3465
   86MOL   H37446444   7.604   4.068   3.333  1.3463 -0.9366 -2.3676
   86MOL   H37546445   7.160   4.050   3.440  0.9850  1.3930  1.8167
   86MOL   H37646446   7.201   3.894   3.366 -0.7526  0.7587 -0.0151
   86MOL   H37746447   7.090   3.899   3.502  0.4097 -1.1081 -0.2403
   86MOL   H37846448   7.208   3.756   3.670  0.6751  2.0718  1.2686
   86MOL   H37946449   7.262   3.726   3.511  2.7127  0.1786 -1.6998
   86MOL   C38046450   7.263   3.755   3.064  0.1264 -0.6623 -0.7945
   86MOL   C38146451   7.298   3.657   3.174 -0.3145  0.3559  0.2163
   86MOL   C38246452   7.403   3.553   3.115  0.2607  0.3568  0.1139
   86MOL   C38346453   7.478   3.478   3.223  0.2501  0.1953  0.0938
   86MOL   C38446454   7.540   3.553   3.334  0.0747 -0.2403 -0.9074
   86MOL   O38546455   7.457   3.600   3.442  0.2069 -0.2697  0.4073
   86MOL   C38646456   7.510   3.662   3.545 -0.6323  0.8523 -0.2475
   86MOL   O38746457   7.627   3.702   3.556  0.0787 -0.0748 -0.0999
   86MOL   C38846458   7.413   3.688   3.663 -0.1351 -1.2435  0.0831
   86MOL   C38946459   7.480   3.750   3.786 -0.1179  0.4849  0.7562
   86MOL   C39046460   7.355   3.548   3.691  0.6317 -0.4157  0.0912
   86MOL   H39146461   7.172   3.805   3.096  2.0433  2.1918  0.3828
   86MOL   H39246462   7.345   3.826   3.055  1.5035 -2.2767 -1.3929
   86MOL   H39346463   7.255   3.703   2.968  0.4389  0.4207 -1.4159
   86MOL   H39446464   7.208   3.614   3.217 -1.2453  2.2909  0.2459
   86MOL   H39546465   7.344   3.712   3.256 -0.9386  2.8237 -1.0174
   86MOL   H39646466   7.362   3.484   3.041  0.7144 -0.5018  0.6605
   86MOL   H39746467   7.483   3.614   3.075 -0.9179  1.0405 -1.2572
   86MOL   H39846468   7.410   3.400   3.256  1.0370 -1.5546 -2.3519
   86MOL   H39946469   7.554   3.419   3.173  1.1470  0.5123  1.0601
   86MOL   H40046470   7.613   3.621   3.291 -1.6548 -0.1136 -3.7342
   86MOL   H40146471   7.598   3.478   3.388  0.8635  0.5530 -0.6402
   86MOL   H40246472   7.408   3.761   3.867  0.4165 -1.0662  1.4508
   86MOL   H40346473   7.510   3.852   3.762 -1.4405  1.2479  2.3030
   86MOL   H40446474   7.567   3.696   3.823  1.3550  0.7478 -2.1281
   86MOL   H40546475   7.299   3.510   3.606  0.6366  0.2577 -0.2159
   86MOL   H40646476   7.272   3.566   3.760  0.9030 -1.6627  0.7630
   86MOL   C40746477   7.681   2.926   3.344  0.5339 -0.2126 -0.5036
   86MOL   C40846478   7.777   3.031   3.290  0.3652 -0.6263  0.2260
   86MOL   C40946479   7.812   3.144   3.386 -0.2782  0.0710 -0.7682
   86MOL   C41046480   7.692   3.221   3.435 -0.5975 -0.1038  0.0158
   86MOL   C41146481   7.719   3.309   3.555 -1.0803  0.3790 -0.1725
   86MOL   O41246482   7.587   3.350   3.598 -0.7443  0.1490  0.0075
   86MOL   C41346483   7.579   3.407   3.716  0.6241  0.3750  0.4579
   86MOL   O41446484   7.670   3.441   3.785 -0.0403  0.4695 -0.3601
   86MOL   C41546485   7.431   3.428   3.763  0.8402 -1.1346  1.0294
   86MOL   C41646486   7.431   3.450   3.915 -0.1011 -0.3046 -0.9243
   86MOL   C41746487   7.341   3.305   3.721 -0.3291  1.0403  0.9296
   86MOL   H41846488   7.724   2.896   3.439  0.8710  3.6169  0.6012
   86MOL   H41946489   7.580   2.965   3.337 -0.1241 -1.7229  0.3313
   86MOL   H42046490   7.694   2.841   3.276  1.2603  2.5339 -3.9699
   86MOL   H42146491   7.743   3.064   3.192  0.1071 -0.1965  0.4614
   86MOL   H42246492   0.062   2.989   3.270  0.8795  1.5711 -2.1252
   86MOL   H42346493   0.058   3.089   3.458  0.3867  1.2764 -0.3892
   86MOL   H42446494   0.063   3.216   3.334 -0.1616  1.0155  0.6740
   86MOL   H42546495   7.614   3.152   3.469  1.3989 -1.7966  1.2821
   86MOL   H42646496   7.640   3.270   3.353  1.1806  0.6004 -0.7074
   86MOL   H42746497   7.769   3.244   3.627  0.2890  0.6504 -0.8489
   86MOL   H42846498   7.771   3.402   3.530  1.9498 -1.1717  0.0685
   86MOL   H42946499   7.500   3.531   3.939 -1.2258  0.4927 -0.3442
   86MOL   H43046500   7.486   3.379   3.976 -0.7422  1.9377  2.3493
   86MOL   H43146501   7.332   3.473   3.955  0.0755 -0.3099 -0.4939
   86MOL   H43246502   7.353   3.279   3.616 -1.0498 -2.7510  1.7410
   86MOL   H43346503   7.239   3.343   3.711 -0.6913 -0.2809 -0.6333
   86MOL   C43446504   7.411   3.063   3.060 -0.5749  0.7663  0.5499
   86MOL   C43546505   7.306   3.132   3.138  0.0525  0.1223 -0.3435
   86MOL   C43646506   7.291   3.111   3.290 -0.2315  0.1390 -0.4220
   86MOL   C43746507   7.288   2.963   3.346 -0.4625  0.9543  0.4442
   86MOL   C43846508   7.239   2.968   3.490  0.2369 -0.3210  0.5301
   86MOL   O43946509   7.316   3.045   3.582 -0.1994 -0.6221  0.4305
   86MOL   C44046510   7.256   3.075   3.701 -0.5819 -0.5903  0.1459
   86MOL   O44146511   7.143   3.038   3.729 -0.6682 -0.6197  0.2113
   86MOL   C44246512   7.335   3.167   3.797 -0.0836 -0.5100 -0.1880
   86MOL   C44346513   7.255   3.189   3.932 -0.7075 -0.2505 -0.2208
   86MOL   C44446514   7.474   3.114   3.826 -0.1368 -0.2615  0.3772
   86MOL   H44546515   7.383   3.056   2.955 -2.6145 -2.5075  1.2451
   86MOL   H44646516   7.517   3.080   3.081 -0.9689  0.2228  3.1438
   86MOL   H44746517   7.402   2.959   3.091  0.2338  0.7931  0.9105
   86MOL   H44846518   7.304   3.241   3.130  2.0465  0.1119 -1.1908
   86MOL   H44946519   7.214   3.092   3.097  0.7295 -2.3438  0.4792
   86MOL   H45046520   7.361   3.177   3.341 -0.1336 -0.8257  0.7116
   86MOL   H45146521   7.196   3.154   3.320  0.6606  0.7276  1.6147
   86MOL   H45246522   7.386   2.915   3.348 -0.8594  0.1558  1.2162
   86MOL   H45346523   7.229   2.900   3.280  0.2416 -0.5900  1.2580
   86MOL   H45446524   7.222   2.866   3.525  2.1695 -0.5720  0.7563
   86MOL   H45546525   7.136   3.003   3.483  0.9907  1.7457 -0.6849
   86MOL   H45646526   7.175   3.262   3.919 -0.8634 -0.3862 -0.0240
   86MOL   H45746527   7.209   3.099   3.972  0.1285  0.4217  2.3345
   86MOL   H45846528   7.325   3.236   4.001  1.1594  2.2207 -3.6255
   86MOL   H45946529   7.508   3.186   3.900  1.3058  0.1244 -0.6348
   86MOL   H46046530   7.534   3.139   3.738  0.1737 -0.8611  0.4197
   86MOL   C46146531   7.349   2.351   3.266 -0.7495  0.5310  0.4372
   86MOL   C46246532   7.313   2.439   3.377 -0.9212 -0.0727  0.0047
   86MOL   C46346533   7.420   2.543   3.408 -0.2536 -0.1215 -0.1257
   86MOL   C46446534   7.393   2.620   3.541 -0.0505 -0.0265  0.5360
   86MOL   C46546535   7.506   2.715   3.591  0.3178 -0.4259  0.2559
   86MOL   O46646536   7.470   2.796   3.701  0.3470  0.1840  0.2609
   86MOL   C46746537   7.555   2.886   3.751  0.2797 -0.4368  0.1532
   86MOL   O46846538   7.659   2.920   3.695 -0.1776  0.4852  0.4959
   86MOL   C46946539   7.501   2.966   3.876 -0.2318 -0.2498  0.3592
   86MOL   C47046540   7.391   2.890   3.949 -0.2111 -0.4346  0.3270
   86MOL   C47146541   7.621   2.979   3.981  0.4000 -0.8844 -0.1476
   86MOL   H47246542   7.397   2.391   3.177 -2.4522 -1.2140 -1.3093
   86MOL   H47346543   7.261   2.299   3.229  1.4102 -2.7925 -0.2100
   86MOL   H47446544   7.411   2.275   3.314 -1.7490 -0.6941 -0.1848
   86MOL   H47546545   7.286   2.388   3.470 -1.2220  1.7098  0.9209
   86MOL   H47646546   7.223   2.492   3.347 -0.4740  0.0239 -1.1737
   86MOL   H47746547   7.422   2.614   3.325 -0.3240 -1.4180 -1.2494
   86MOL   H47846548   7.522   2.503   3.411  1.2291  3.3606 -1.3147
   86MOL   H47946549   7.379   2.549   3.622 -1.6683 -1.6532 -1.1422
   86MOL   H48046550   7.299   2.675   3.538 -0.5862 -1.0361 -1.7726
   86MOL   H48146551   7.591   2.656   3.625  1.3085  1.3065  0.8395
   86MOL   H48246552   7.528   2.780   3.506 -1.9313 -0.2102 -0.1907
   86MOL   H48346553   7.424   2.787   3.965  0.8876 -0.3472 -1.2780
   86MOL   H48446554   7.302   2.886   3.886  0.4825 -0.2555 -0.6802
   86MOL   H48546555   7.366   2.935   4.045 -2.4398  0.8006 -0.8142
   86MOL   H48646556   7.578   3.051   4.050 -2.0193 -1.3494 -1.1056
   86MOL   H48746557   7.693   3.040   3.927 -0.3557  1.6602  1.6087
   86MOL   C48846558   7.067   3.020   4.390  0.1884 -0.4894 -0.8855
   86MOL   C48946559   7.162   3.040   4.276 -0.6114  0.5993  0.2479
   86MOL   C49046560   7.296   2.973   4.307 -0.3809  0.7940  0.1635
   86MOL   C49146561   7.305   2.821   4.302  0.0738 -0.6628 -0.0236
   86MOL   C49246562   7.441   2.751   4.315 -0.2022 -0.1413  0.7571
   86MOL   O49346563   7.515   2.764   4.193 -0.0952 -0.2372  0.3312
   86MOL   C49446564   7.611   2.852   4.193 -0.7186 -0.2661  0.3101
   86MOL   O49546565   7.644   2.918   4.288 -0.0049 -0.1199 -0.0405
   86MOL   C49646566   7.694   2.869   4.060  0.1698  0.3172 -0.4266
   86MOL   C49746567   0.022   2.943   4.097  0.3695  0.3164 -0.6911
   86MOL   C49846568   7.716   2.732   3.988 -0.2527 -0.8033 -0.5922
   86MOL   H49946569   7.107   3.082   4.471  1.0670 -2.6371  0.3674
   86MOL   H50046570   6.974   3.071   4.363  1.0678  1.6020 -0.1357
   86MOL   H50146571   7.056   2.917   4.423  0.5251  0.0317  0.9024
   86MOL   H50246572   7.186   3.145   4.265  0.6452  0.3297  0.3829
   86MOL   H50346573   7.112   3.006   4.185  0.0240 -2.8862  1.1179
   86MOL   H50446574   7.364   3.016   4.234 -2.5703 -1.1221 -3.0903
   86MOL   H50546575   7.318   3.011   4.407 -0.2354  0.3581  0.2976
   86MOL   H50646576   7.261   2.799   4.205  1.2212 -3.4416  0.0441
   86MOL   H50746577   7.228   2.777   4.365  0.9927 -3.0288 -0.5123
   86MOL   H50846578   7.493   2.791   4.402 -0.6766 -0.3828  1.1528
   86MOL   H50946579   7.435   2.643   4.330 -1.1092  0.1921  2.9699
   86MOL   H51046580   0.076   2.902   4.182 -2.3766  0.4877  1.2177
   86MOL   H51146581   0.012   3.044   4.136  0.1422  0.3000 -0.7043
   86MOL   H51246582   0.092   2.955   4.014  0.6565 -2.6095 -0.9232
   86MOL   H51346583   7.741   2.750   3.883  0.4477 -0.4190 -0.3562
   86MOL   H51446584   7.622   2.677   3.993 -0.6651 -0.0927 -0.5540
   86MOL   C51546585   7.801   2.451   4.786  0.4369 -0.1660  0.0950
   86MOL   C51646586   0.030   2.577   4.702  0.6143  1.1571  1.1751
   86MOL   C51746587   7.735   2.649   4.621 -0.0964 -0.6613  0.3354
   86MOL   C51846588   7.787   2.710   4.491  0.2501  0.3641  0.4646
   86MOL   C51946589   0.022   2.603   4.391  0.2140  0.0008 -1.4659
   86MOL   O52046590   0.031   2.645   4.256  0.0649  0.5435 -0.1792
   86MOL   C52146591   7.792   2.563   4.159  0.3620  0.4067 -0.0513
   86MOL   O52246592   7.731   2.461   4.186 -0.4771 -0.6211 -0.5470
   86MOL   C52346593   0.004   2.623   4.022  0.0031 -0.0685 -0.1194
   86MOL   C52446594   0.151   2.669   4.007  0.1195  0.1177 -0.1138
   86MOL   C52546595   7.797   2.513   3.921  0.6296  0.5408 -0.5915
   86MOL   H52646596   7.801   2.362   4.722 -0.7951 -2.2263  2.8769
   86MOL   H52746597   0.052   2.434   4.872  0.8360  0.8671  0.0013
   86MOL   H52846598   7.698   2.460   4.819  0.1008  0.1616 -1.0226
   86MOL   H52946599   0.083   2.645   4.768 -0.5069  2.0015  1.2235
   86MOL   H53046600   0.119   2.556   4.643 -0.0608 -2.0601  1.1764
   86MOL   H53146601   7.660   2.574   4.596 -1.2684 -0.8390  4.0942
   86MOL   H53246602   7.686   2.721   4.687  4.4030  1.3500  1.7068
   86MOL   H53346603   0.044   2.789   4.514  0.2164  0.2662  0.8984
   86MOL   H53446604   7.699   2.766   4.460 -0.3218 -1.7315 -1.9165
   86MOL   H53546605   0.125   2.581   4.416 -0.2513 -0.3349  0.1829
   86MOL   H53646606   7.793   2.503   4.399  2.3599 -0.7783  0.9189
   86MOL   H53746607   0.215   2.584   4.032  0.3330  0.0325 -0.9130
   86MOL   H53846608   0.175   2.752   4.073  1.5146  1.5486 -2.3659
   86MOL   H53946609   0.170   2.712   3.908 -0.2403  2.7806  0.9340
   86MOL   H54046610   0.022   2.418   3.958 -0.9332 -0.0803 -0.4906
   86MOL   H54146611   0.028   2.533   3.825 -1.2315 -1.0254 -1.8521
   86MOL   H54246612   7.690   2.492   3.908  0.6388  0.8663 -1.1927
   87MOL     C146613   6.849   0.275   3.434  0.1778  0.2768 -0.1772
   87MOL     C246614   6.767   0.148   3.400  1.0543 -0.6312 -0.5237
   87MOL     C346615   6.615   0.160   3.423  0.4612  0.1117 -0.2088
   87MOL     C446616   6.530   0.038   3.363  0.6163 -0.5563  0.1662
   87MOL     C546617   6.373   0.054   3.369 -0.1759 -0.1669  0.6522
   87MOL     O646618   6.361   0.167   3.286  0.7441  0.1792 -0.5570
   87MOL     C746619   6.263   0.258   3.316 -0.8910 -0.1890  0.0585
   87MOL     O846620   6.208   0.262   3.424 -0.0064  0.0082 -0.1437
   87MOL     C946621   6.246   0.358   3.207 -1.2441  0.5102 -0.2651
   87MOL    C1046622   6.347   0.475   3.206 -0.2497  0.4368 -0.1663
   87MOL    C1146623   6.101   0.416   3.191  0.6882  0.1083  0.2708
   87MOL    H1246624   6.788   0.365   3.426  0.4390  0.5025  0.3336
   87MOL    H1346625   6.932   0.282   3.365  1.3408 -1.2386  1.0288
   87MOL    H1446626   6.899   0.266   3.531  2.1181  1.9281 -1.0123
   87MOL    H1546627   6.770   0.126   3.293  0.7090  0.8165 -0.8368
   87MOL    H1646628   6.811   0.059   3.444 -2.5801 -1.7903  0.9905
   87MOL    H1746629   6.598   0.183   3.528  0.2959 -2.7567  0.4461
   87MOL    H1846630   6.572   0.243   3.366 -0.2438  1.3259  2.0436
   87MOL    H1946631   6.559   7.761   3.416 -2.1754 -1.8568 -0.4581
   87MOL    H2046632   6.563   0.029   3.260  1.3720 -0.4532  0.3890
   87MOL    H2146633   6.324   7.780   3.328 -1.1806  0.6224  0.1534
   87MOL    H2246634   6.329   0.073   3.467 -1.0497 -3.0980  0.8654
   87MOL    H2346635   6.417   0.460   3.289 -1.1589 -1.2571  0.2994
   87MOL    H2446636   6.300   0.572   3.221 -1.8535 -0.1792 -1.1360
   87MOL    H2546637   6.402   0.496   3.114 -1.3047  1.0530 -0.6681
   87MOL    H2646638   6.097   0.525   3.181  1.1656  0.0028 -1.1315
   87MOL    H2746639   6.035   0.402   3.277 -0.2571  2.4935 -0.0199
   87MOL    H2846640   6.267   0.293   3.122 -0.6162 -2.1332  1.8500
   87MOL    C2946641   6.666   0.130   2.913 -0.1136 -0.5301 -0.9721
   87MOL    C3046642   6.542   0.147   2.826 -0.3682 -0.8909 -0.1124
   87MOL    C3146643   6.453   0.257   2.870  0.6532  0.1088 -0.3694
   87MOL    C3246644   6.365   0.319   2.757 -0.4472  0.4945 -0.5258
   87MOL    C3346645   6.259   0.425   2.797  0.4699  0.7420  0.6541
   87MOL    O3446646   6.190   0.377   2.910 -0.3719 -0.1580  0.9428
   87MOL    C3546647   6.064   0.418   2.932  0.0394 -0.3383 -0.5883
   87MOL    O3646648   6.004   0.502   2.868  0.0399  0.0491 -0.4480
   87MOL    C3746649   6.010   0.366   3.068  0.4088  1.1973 -0.5502
   87MOL    C3846650   5.874   0.435   3.086 -0.1307  0.0439 -0.5950
   87MOL    C3946651   5.998   0.205   3.077 -0.7593 -0.3365  0.1935
   87MOL    H4046652   6.746   0.199   2.888  0.0851  0.2821  1.7583
   87MOL    H4146653   6.634   0.136   3.017 -1.4064 -1.1364 -1.3331
   87MOL    H4246654   6.717   0.034   2.899  0.2610 -0.2125 -1.7942
   87MOL    H4346655   6.478   0.058   2.819 -0.8267 -0.5212 -0.6407
   87MOL    H4446656   6.577   0.166   2.725  2.0610 -2.4657  0.4013
   87MOL    H4546657   6.514   0.341   2.903  0.7574  1.3538 -3.6174
   87MOL    H4646658   6.387   0.223   2.950  3.2908 -0.5146  1.6304
   87MOL    H4746659   6.431   0.356   2.679  0.7039  0.7846  0.5615
   87MOL    H4846660   6.321   0.227   2.718 -0.5940  0.4403 -0.2348
   87MOL    H4946661   6.197   0.459   2.714  0.3219 -0.2725  0.3382
   87MOL    H5046662   6.314   0.517   2.816  3.0541 -0.9522  1.6491
   87MOL    H5146663   5.892   0.542   3.089  1.5396 -0.2338 -0.2604
   87MOL    H5246664   5.830   0.410   3.182  1.0715  1.0672  0.2285
   87MOL    H5346665   5.792   0.425   3.014 -0.5597  0.8587 -0.2293
   87MOL    H5446666   5.940   0.189   3.168  1.1463 -1.2604  1.2886
   87MOL    H5546667   6.096   0.167   3.106 -0.2175  0.8423 -0.0485
   87MOL    C5646668   6.062   0.420   2.344 -0.3603 -0.2309 -0.2712
   87MOL    C5746669   5.946   0.463   2.443  0.3246 -0.1443  0.5388
   87MOL    C5846670   5.902   0.361   2.556  0.6815  0.1102 -0.0750
   87MOL    C5946671   5.773   0.408   2.637 -0.4612 -0.0672 -0.2334
   87MOL    C6046672   5.717   0.305   2.741 -0.6930 -0.1624  0.1975
   87MOL    O6146673   5.821   0.274   2.829 -0.8472 -0.7527 -0.6148
   87MOL    C6246674   5.805   0.173   2.913 -0.3033 -0.1683 -0.7263
   87MOL    O6346675   5.700   0.145   2.969  0.5760 -0.0705  0.0455
   87MOL    C6446676   5.939   0.111   2.963  0.5473 -0.5242  0.2256
   87MOL    C6546677   5.905   7.790   3.031 -0.1678  0.2218 -0.0336
   87MOL    C6646678   6.050   0.099   2.848 -0.0980 -0.3547  0.0082
   87MOL    H6746679   6.145   0.405   2.413 -1.7926 -0.1607  1.5217
   87MOL    H6846680   6.097   0.499   2.277 -0.5134 -1.3947 -1.7440
   87MOL    H6946681   6.038   0.330   2.289  0.4719 -0.7665  0.2348
   87MOL    H7046682   5.975   0.551   2.500  0.9725 -1.9635  3.1162
   87MOL    H7146683   5.855   0.485   2.387  1.5087 -0.5299 -1.5981
   87MOL    H7246684   5.879   0.262   2.516 -0.5448  0.2918  0.1732
   87MOL    H7346685   5.990   0.353   2.620  1.0437 -0.0795 -0.5990
   87MOL    H7446686   5.693   0.432   2.567 -0.1369  0.6708 -0.3606
   87MOL    H7546687   5.813   0.496   2.689 -0.3201 -0.8768  1.0401
   87MOL    H7646688   5.623   0.343   2.782  0.2159  4.1670 -1.4749
   87MOL    H7746689   5.684   0.213   2.693 -2.1192  0.1524  0.5547
   87MOL    H7846690   5.834   7.805   3.112 -1.3248 -2.3139 -0.5215
   87MOL    H7946691   5.995   7.738   3.062 -1.7720 -2.0311  0.9894
   87MOL    H8046692   5.856   7.723   2.960 -0.3488  0.3641 -0.0409
   87MOL    H8146693   6.154   0.109   2.880 -0.5082  1.0245  0.9201
   87MOL    H8246694   6.059   0.187   2.785 -0.9515 -0.6314 -0.5075
   87MOL    C8346695   5.574   7.221   2.864  0.2053  0.3110  0.2156
   87MOL    C8446696   5.723   7.209   2.894  0.2181  0.2831 -0.8024
   87MOL    C8546697   5.803   7.340   2.889  0.0149  0.0846 -0.0586
   87MOL    C8646698   5.957   7.314   2.890  0.6346 -0.0860  0.0803
   87MOL    C8746699   6.042   7.444   2.902 -0.0484  0.0500  0.1030
   87MOL    O8846700   6.021   7.555   2.807 -0.2982  0.4834  0.1013
   87MOL    C8946701   6.098   7.667   2.833  0.1846 -0.2769 -0.5363
   87MOL    O9046702   6.193   7.673   2.915  0.0030  0.2594  0.5022
   87MOL    C9146703   6.063   7.788   2.754 -0.1815  0.7814 -0.3949
   87MOL    C9246704   5.929   7.779   2.677  0.2343 -0.5723  0.1067
   87MOL    C9346705   6.186   7.801   2.655 -0.2545 -0.0713  0.3332
   87MOL    H9446706   5.519   7.128   2.874  0.7404  0.2118  2.4265
   87MOL    H9546707   5.518   7.272   2.942  2.7976 -0.3823  2.5952
   87MOL    H9646708   5.550   7.263   2.766  0.1071  0.9965  0.5287
   87MOL    H9746709   5.764   7.144   2.817  2.1212 -0.4639  0.8222
   87MOL    H9846710   5.748   7.170   2.992  0.5873  0.2063 -0.9266
   87MOL    H9946711   5.779   7.402   2.975  2.6450  2.4817 -0.9952
   87MOL   H10046712   5.767   7.398   2.804 -0.7818 -0.5649 -0.1697
   87MOL   H10146713   5.989   7.255   2.805 -0.7513 -0.8964  0.1008
   87MOL   H10246714   5.978   7.263   2.985 -0.2782 -0.4644  0.0806
   87MOL   H10346715   6.145   7.408   2.898 -0.5193 -1.4922  1.4854
   87MOL   H10446716   6.023   7.481   3.003 -0.2006  0.9759 -0.2627
   87MOL   H10546717   5.930   7.713   2.591  2.7151  0.3754 -0.6380
   87MOL   H10646718   5.921   0.064   2.632 -2.3727 -0.2758  1.1094
   87MOL   H10746719   5.842   7.753   2.738 -2.2266  3.6336 -1.4213
   87MOL   H10846720   6.165   0.082   2.606  2.1002  0.9385  1.2298
   87MOL   H10946721   6.271   0.012   2.718  0.6747 -1.1245 -0.4688
   87MOL   C11046722   5.656   7.764   1.904 -0.5913 -0.4227 -0.2547
   87MOL   C11146723   5.794   7.793   1.970  0.4411  0.7821  0.3000
   87MOL   C11246724   5.815   7.698   2.100 -0.2333 -0.1000 -0.4553
   87MOL   C11346725   5.952   7.727   2.165  0.0037  0.1730  0.1705
   87MOL   C11446726   5.983   7.624   2.282  0.4879  0.0783 -0.3028
   87MOL   O11546727   6.076   7.683   2.366 -0.0475  0.0621 -0.3939
   87MOL   C11646728   6.128   7.616   2.468 -0.2741 -0.5092  0.2396
   87MOL   O11746729   6.105   7.500   2.496  0.0879 -0.4868  0.7666
   87MOL   C11846730   6.238   7.703   2.543 -0.4168  0.0740  0.3457
   87MOL   C11946731   6.336   7.609   2.621  0.1531  0.3543 -0.0810
   87MOL   C12046732   6.312   7.805   2.441 -0.1242 -0.0351  0.8966
   87MOL   H12146733   5.671   7.668   1.855 -1.6231 -1.4516  1.4167
   87MOL   H12246734   5.574   7.771   1.975 -0.8612 -0.7409 -0.5382
   87MOL   H12346735   5.636   0.036   1.840  1.0091  0.0604 -0.1456
   87MOL   H12446736   5.864   7.769   1.889 -1.1179  0.0533 -0.8631
   87MOL   H12546737   5.802   0.087   1.981 -0.1977  0.9059 -0.3760
   87MOL   H12646738   5.738   7.728   2.171  0.9018  2.6985 -0.3628
   87MOL   H12746739   5.799   7.595   2.068 -0.0759  0.2339 -1.6156
   87MOL   H12846740   5.951   0.017   2.197  1.0325  0.4336 -0.5975
   87MOL   H12946741   6.037   7.711   2.098 -0.5571 -0.4235 -0.4162
   87MOL   H13046742   5.891   7.595   2.332  1.6713 -1.8456  0.8111
   87MOL   H13146743   6.037   7.537   2.245 -0.2496 -1.8486  2.9913
   87MOL   H13246744   6.364   7.529   2.553 -2.3257 -0.9165  0.3318
   87MOL   H13346745   6.428   7.658   2.652  0.2896  0.8222 -1.1773
   87MOL   H13446746   6.287   7.558   2.703 -1.5416  0.8856 -0.7204
   87MOL   H13546747   6.235   0.057   2.401 -1.2934 -1.3521  0.9255
   87MOL   H13646748   6.374   0.050   2.508  0.8695  0.5970 -0.5583
   87MOL   C13746749   6.766   6.973   2.312  0.3013 -0.4976  0.0943
   87MOL   C13846750   6.660   7.083   2.312  0.3100  0.2707 -0.3199
   87MOL   C13946751   6.705   7.220   2.371 -0.6732  0.0113  0.4114
   87MOL   C14046752   6.600   7.335   2.350 -0.3845 -0.1327  0.3854
   87MOL   C14146753   6.647   7.475   2.400  0.3034  0.3410 -0.5210
   87MOL   O14246754   6.539   7.550   2.365  0.2733  1.2056 -0.6389
   87MOL   C14346755   6.538   7.678   2.392  0.7953 -0.4543  0.7186
   87MOL   O14446756   6.625   7.736   2.462  0.0973 -0.7133 -0.3329
   87MOL   C14546757   6.418   7.757   2.333 -0.4796 -0.1961 -0.7123
   87MOL   C14646758   6.346   7.692   2.216 -0.2691  0.0634 -0.3146
   87MOL   C14746759   6.490   0.072   2.281 -0.6266 -0.1979  0.5341
   87MOL   H14846760   6.789   6.940   2.413 -0.2987  1.6017  0.9468
   87MOL   H14946761   6.853   6.991   2.249  0.1293 -1.2735 -0.3771
   87MOL   H15046762   6.711   6.896   2.256 -0.3262 -0.7157  0.9918
   87MOL   H15146763   6.559   7.059   2.345  0.2241 -0.2280 -0.9411
   87MOL   H15246764   6.642   7.105   2.206 -0.3955  0.5365 -0.1497
   87MOL   H15346765   6.730   7.212   2.476 -0.9488 -0.4905  0.4411
   87MOL   H15446766   6.791   7.253   2.313 -0.8665 -1.2858 -0.6263
   87MOL   H15546767   6.583   7.339   2.243  1.5782 -0.1163  0.0489
   87MOL   H15646768   6.507   7.304   2.397 -1.3743 -2.5627 -3.0149
   87MOL   H15746769   6.738   7.506   2.348 -0.6654  0.3509 -2.2665
   87MOL   H15846770   6.673   7.476   2.505 -0.5819  0.0868 -0.2967
   87MOL   H15946771   6.401   7.650   2.132 -1.0681 -0.8537 -0.3944
   87MOL   H16046772   6.270   7.763   2.187 -0.1147  0.4999  0.3234
   87MOL   H16146773   6.278   7.613   2.250 -0.1707  1.0176  2.1739
   87MOL   H16246774   6.417   0.152   2.268  1.6762  1.7218 -1.0966
   87MOL   H16346775   6.550   0.119   2.358  0.8575 -1.2286  0.0251
   87MOL   C16446776   5.862   0.316   1.715 -0.0463 -0.7874  0.0010
   87MOL   C16546777   5.951   0.339   1.842  0.3343 -0.5841 -0.0590
   87MOL   C16646778   6.077   0.253   1.829  0.3313 -0.2770 -0.0364
   87MOL   C16746779   6.172   0.269   1.946  0.2137 -0.2326  0.6612
   87MOL   C16846780   6.291   0.180   1.925 -0.1342 -0.4253  0.0937
   87MOL   O16946781   6.372   0.160   2.033 -0.1464  0.1965 -0.3304
   87MOL   C17046782   6.490   0.084   2.010 -0.1027  0.7417 -0.1837
   87MOL   O17146783   6.531   0.051   1.899 -0.6361  0.2574  0.3408
   87MOL   C17246784   6.576   0.077   2.146  0.3842  0.0620  0.4993
   87MOL   C17346785   6.685   7.779   2.139 -0.1644 -0.0326  0.2999
   87MOL   C17446786   6.647   0.218   2.160 -0.6763  0.3868 -0.4461
   87MOL   H17546787   5.773   0.380   1.722 -0.4998 -1.1987 -1.7631
   87MOL   H17646788   5.820   0.216   1.716  1.1146 -1.3245 -2.0466
   87MOL   H17746789   5.911   0.333   1.620  0.7215 -0.6177  0.4288
   87MOL   H17846790   5.895   0.323   1.934 -0.5730 -0.9450 -0.6637
   87MOL   H17946791   5.977   0.443   1.857  1.4031 -0.7341 -0.7874
   87MOL   H18046792   6.037   0.151   1.832  0.4403 -0.2819  1.6618
   87MOL   H18146793   6.128   0.258   1.733  0.4120 -1.7343 -0.0896
   87MOL   H18246794   6.117   0.259   2.040 -1.1391 -0.1105 -0.1036
   87MOL   H18346795   6.214   0.370   1.951  0.3780 -0.1520 -2.0424
   87MOL   H18446796   6.355   0.218   1.846 -0.4048  1.7186  0.8792
   87MOL   H18546797   6.246   0.086   1.893 -1.1158 -0.8020  2.5037
   87MOL   H18646798   6.748   7.775   2.228  2.7129 -0.7522 -1.7106
   87MOL   H18746799   6.752   7.783   2.053  0.4167 -1.5723  0.6602
   87MOL   H18846800   6.642   7.679   2.132  1.2139 -0.8865  3.1759
   87MOL   H18946801   6.573   0.296   2.178 -1.9021 -0.9807  0.6108
   87MOL   H19046802   6.697   0.214   2.257 -1.4905 -2.0062 -0.0852
   87MOL   C19146803   6.843   0.005   1.434  0.5387  0.1736 -0.0989
   87MOL   C19246804   6.859   0.159   1.445  0.4861  0.2713  0.3537
   87MOL   C19346805   6.755   0.224   1.542  0.2610 -0.3580  0.3976
   87MOL   C19446806   6.777   0.368   1.583 -0.4374  0.2130  0.2593
   87MOL   C19546807   6.698   0.422   1.707 -0.2100 -0.7643  0.4278
   87MOL   O19646808   6.753   0.376   1.826  0.6181 -0.2150  0.1197
   87MOL   C19746809   6.673   0.346   1.932 -0.1483  0.5806  0.4618
   87MOL   O19846810   6.555   0.371   1.933  0.0542 -0.6570 -0.4817
   87MOL   C19946811   6.744   0.299   2.067 -0.0809 -0.2081  0.0600
   87MOL   C20046812   6.865   0.215   2.037  0.0189 -0.1427  0.3444
   87MOL   C20146813   6.808   0.425   2.136  0.2069  0.1227  0.0671
   87MOL   H20246814   6.738   7.801   1.408  0.6607  0.4996 -0.8462
   87MOL   H20346815   6.891   7.785   1.342  0.0309 -2.0421  0.4336
   87MOL   H20446816   6.887   7.762   1.515 -2.1984 -0.1987  1.1899
   87MOL   H20546817   6.859   0.214   1.350 -1.1484  2.3772  1.5348
   87MOL   H20646818   6.957   0.178   1.488  0.6402  1.5501 -0.5207
   87MOL   H20746819   6.746   0.155   1.625 -1.0935 -1.7482 -0.8567
   87MOL   H20846820   6.660   0.224   1.489  0.2662  1.3471  0.3538
   87MOL   H20946821   6.884   0.383   1.598 -0.6692 -0.2590  2.6322
   87MOL   H21046822   6.753   0.435   1.501 -0.7125 -0.8327 -0.5381
   87MOL   H21146823   6.704   0.530   1.716 -1.7616 -0.7628  1.6870
   87MOL   H21246824   6.591   0.405   1.698  0.1599 -3.8718  1.3683
   87MOL   H21346825   6.827   0.138   1.969 -0.0504 -1.3577  1.7351
   87MOL   H21446826   6.900   0.163   2.126 -0.6446 -1.1150  0.0475
   87MOL   H21546827   6.943   0.261   1.975  0.0130  0.1033  0.5214
   87MOL   H21646828   6.847   0.483   2.052 -2.9696  0.5680 -1.1729
   87MOL   H21746829   6.894   0.393   2.194  0.0889 -0.9035 -0.3202
   87MOL   C21846830   7.084   7.776   2.415 -0.7028 -0.2500  0.0098
   87MOL   C21946831   7.056   0.066   2.520 -0.1731  0.1590 -0.4309
   87MOL   C22046832   6.932   0.141   2.482  0.3938  0.0782  0.0789
   87MOL   C22146833   6.895   0.257   2.589 -0.2410  0.5424  0.3583
   87MOL   C22246834   6.767   0.334   2.541 -0.0534  0.6878 -0.8247
   87MOL   O22346835   6.804   0.419   2.431 -0.5100  0.0078 -1.0531
   87MOL   C22446836   6.698   0.474   2.362  0.0836  0.8260  0.3830
   87MOL   O22546837   6.580   0.481   2.401 -0.1636 -0.1639  0.4309
   87MOL   C22646838   6.738   0.536   2.226 -0.2290  0.2038 -0.4252
   87MOL   C22746839   6.612   0.590   2.156 -0.2000 -0.3648  0.5752
   87MOL   C22846840   6.844   0.655   2.239  0.9189 -0.2028 -0.4326
   87MOL   H22946841   7.168   7.723   2.460 -0.6703  0.2066  0.4908
   87MOL   H23046842   6.993   7.717   2.403 -0.9801  0.7037 -2.9739
   87MOL   H23146843   7.116   0.001   2.318 -3.2344  1.3740 -0.2372
   87MOL   H23246844   7.137   0.139   2.520 -0.9583  1.1355  2.9002
   87MOL   H23346845   7.051   0.037   2.625  0.2855 -1.6464 -0.8744
   87MOL   H23446846   6.852   0.066   2.482  0.0792  0.3555 -2.3702
   87MOL   H23546847   6.938   0.176   2.379 -1.5202 -2.4828 -0.9797
   87MOL   H23646848   6.857   0.212   2.680  0.8227 -1.4927 -0.1771
   87MOL   H23746849   6.974   0.325   2.619 -0.8101  0.5151  1.9582
   87MOL   H23846850   6.725   0.393   2.622  0.0722 -0.0026 -0.2519
   87MOL   H23946851   6.689   0.259   2.523 -0.6601  0.6010  2.0021
   87MOL   H24046852   6.644   0.630   2.059  1.3018  0.1034  1.2548
   87MOL   H24146853   6.558   0.669   2.208  2.8619  1.7100  0.7110
   87MOL   H24246854   6.541   0.511   2.130 -0.2321 -0.1251 -0.0709
   87MOL   H24346855   6.877   0.683   2.139  1.0171  1.2706  0.0003
   87MOL   H24446856   6.929   0.604   2.284  1.7290  0.8357 -0.7710
   87MOL   C24546857   6.016   0.912   2.599 -1.1053  0.6667 -0.2975
   87MOL   C24646858   6.129   0.887   2.490  0.1672 -0.1312  0.0366
   87MOL   C24746859   6.261   0.839   2.549  0.0485  0.0359  0.5132
   87MOL   C24846860   6.372   0.827   2.446 -0.3062  0.1633  0.4669
   87MOL   C24946861   6.504   0.768   2.498  0.4444 -0.5483  0.0755
   87MOL   O25046862   6.607   0.766   2.401 -0.1650 -0.4222 -0.1675
   87MOL   C25146863   6.738   0.778   2.435  0.7708  0.0360  0.4436
   87MOL   O25246864   6.787   0.772   2.550 -0.3402 -0.3760  0.2516
   87MOL   C25346865   6.824   0.795   2.308  0.0184  0.1682  0.4443
   87MOL   C25446866   6.757   0.897   2.214 -0.1831  0.1661  0.5768
   87MOL   C25546867   6.967   0.850   2.343  0.0231 -0.4969 -0.5295
   87MOL   H25646868   5.994   0.824   2.659  2.0794  0.1023  0.1289
   87MOL   H25746869   6.034   1.007   2.649 -1.2022 -0.4252  1.8533
   87MOL   H25846870   5.927   0.948   2.547 -1.9365  2.0394  2.0180
   87MOL   H25946871   6.091   0.817   2.416 -0.7308  0.6696 -0.2833
   87MOL   H26046872   6.156   0.979   2.438  0.5416 -0.8926 -1.1309
   87MOL   H26146873   6.240   0.749   2.607 -1.9104  0.0013 -0.2266
   87MOL   H26246874   6.289   0.916   2.621 -0.0290  0.1630  0.4082
   87MOL   H26346875   6.338   0.773   2.358 -0.1567 -1.2955  1.2990
   87MOL   H26446876   6.390   0.928   2.408 -0.4581 -0.1070 -0.3344
   87MOL   H26546877   6.536   0.832   2.580 -0.3333 -2.0056  1.5444
   87MOL   H26646878   6.495   0.666   2.534 -0.7328 -0.5778 -0.2552
   87MOL   H26746879   6.664   0.865   2.167 -0.9212 -0.5513  2.5052
   87MOL   H26846880   6.737   0.995   2.256  0.6662 -0.8171  3.3927
   87MOL   H26946881   6.821   0.915   2.127  0.4954  0.9053  1.2237
   87MOL   H27046882   7.009   0.787   2.420 -0.5359 -1.5463 -1.0698
   87MOL   H27146883   7.019   0.838   2.247 -0.8923 -0.4326 -1.0400
   87MOL   C27246884   6.679   1.208   1.862 -0.2307  0.1406 -0.9710
   87MOL   C27346885   6.717   1.321   1.957  0.0597  0.0420 -0.0725
   87MOL   C27446886   6.850   1.287   2.039 -0.4522 -0.3941 -0.1026
   87MOL   C27546887   6.871   1.380   2.159 -0.5743 -0.0262 -0.9531
   87MOL   C27646888   6.998   1.344   2.231  0.2342 -0.1041  0.1592
   87MOL   O27746889   6.979   1.239   2.317 -0.4493 -0.0989  0.4497
   87MOL   C27846890   6.994   1.108   2.278  0.2241 -0.5692  0.1178
   87MOL   O27946891   7.010   1.074   2.162  0.0976  0.0932  0.0683
   87MOL   C28046892   6.990   1.000   2.386 -0.2806 -0.0778 -0.0573
   87MOL   C28146893   6.896   1.051   2.491  0.0745  0.2213  0.2095
   87MOL   C28246894   7.130   1.009   2.472  0.3322 -0.9755  0.9409
   87MOL   H28346895   6.764   1.179   1.800 -0.9588 -1.4497 -1.2719
   87MOL   H28446896   6.645   1.117   1.911 -0.9830  1.2551  0.6316
   87MOL   H28546897   6.603   1.247   1.794  0.3302  1.4823 -0.8446
   87MOL   H28646898   6.736   1.413   1.901 -1.6280  0.3856 -0.1107
   87MOL   H28746899   6.639   1.344   2.029  0.4460  1.7494 -0.1706
   87MOL   H28846900   6.823   1.190   2.080  0.7742 -0.0291  1.6181
   87MOL   H28946901   6.935   1.273   1.971 -0.0699  1.7598 -0.0826
   87MOL   H29046902   6.879   1.480   2.116  1.5267 -0.1578 -0.8852
   87MOL   H29146903   6.789   1.370   2.231 -0.2366  1.8245 -0.2707
   87MOL   H29246904   7.033   1.429   2.289  0.8152 -0.3537  0.1806
   87MOL   H29346905   7.077   1.336   2.156 -1.3274 -0.7887 -1.4574
   87MOL   H29446906   6.797   1.029   2.451  1.4357  0.5115 -3.5113
   87MOL   H29546907   6.892   0.983   2.577 -2.9599  0.2200  0.1411
   87MOL   H29646908   6.893   1.157   2.516 -3.6330 -0.1388  1.6279
   87MOL   H29746909   7.134   1.113   2.506  2.2696 -0.6828 -0.1337
   87MOL   H29846910   7.122   0.939   2.555  1.9637  0.0794  2.0212
   87MOL   C29946911   7.025   0.811   1.711  0.2081  0.6313 -0.3528
   87MOL   C30046912   7.030   0.934   1.809 -0.1309  0.5704 -0.4934
   87MOL   C30146913   7.160   0.945   1.891 -0.4845  0.2560  0.2003
   87MOL   C30246914   7.183   0.824   1.979  0.2042  0.3148  0.0451
   87MOL   C30346915   7.301   0.844   2.074 -0.1512 -0.4179  0.4634
   87MOL   O30446916   7.267   0.927   2.178 -0.5271 -0.1218 -0.2278
   87MOL   C30546917   7.283   0.882   2.304 -0.0160 -0.5108 -0.1789
   87MOL   O30646918   7.308   0.763   2.333  0.5739 -0.7359  0.0952
   87MOL   C30746919   7.276   0.991   2.415 -1.0491 -0.1212 -0.1861
   87MOL   C30846920   7.326   1.115   2.341  0.4968  0.2442 -0.5352
   87MOL   C30946921   7.376   0.940   2.531  0.0190 -0.0319  0.1978
   87MOL   H31046922   6.981   0.723   1.757  2.9164 -0.7725 -0.3146
   87MOL   H31146923   7.129   0.788   1.686 -0.5392 -2.3354 -0.9522
   87MOL   H31246924   6.974   0.822   1.615 -0.6882 -1.6143 -0.1694
   87MOL   H31346925   6.947   0.946   1.879  0.9465  1.1829  0.6806
   87MOL   H31446926   7.020   1.016   1.737 -2.3498  0.3475 -0.4754
   87MOL   H31546927   7.160   1.044   1.935 -0.7509 -0.0230  0.8317
   87MOL   H31646928   7.240   0.949   1.817  0.8958 -3.1560  1.3979
   87MOL   H31746929   7.184   0.737   1.913 -0.7901 -0.8298  1.5247
   87MOL   H31846930   7.095   0.817   2.043  1.7989 -1.5708  2.0844
   87MOL   H31946931   7.337   0.747   2.109  2.6393  0.5706  0.4923
   87MOL   H32046932   7.397   0.871   2.029  1.4795 -0.0460  4.0031
   87MOL   H32146933   7.428   1.098   2.307  1.4701 -0.8984  2.7239
   87MOL   H32246934   7.268   1.158   2.260 -1.7540  0.6800  1.2424
   87MOL   H32346935   7.332   1.199   2.410 -0.8387 -0.5041  0.5298
   87MOL   H32446936   7.461   0.890   2.484  0.0026  1.0701 -1.0224
   87MOL   H32546937   7.320   0.860   2.580 -0.4306  0.3747  0.3503
   87MOL   C32646938   0.330   1.286   2.506 -0.0449 -0.0933  0.0859
   87MOL   C32746939   0.214   1.388   2.488  0.4369 -0.1752  0.3520
   87MOL   C32846940   0.088   1.338   2.412 -0.0175  0.4644  0.0856
   87MOL   C32946941   0.014   1.233   2.500 -0.1693  0.0299 -0.7696
   87MOL   C33046942   7.708   1.175   2.423  0.1626 -0.3211 -0.1779
   87MOL   O33146943   7.621   1.094   2.509 -0.1051 -0.0469  0.0646
   87MOL   C33246944   7.518   1.142   2.582  0.6178 -0.4307  0.1567
   87MOL   O33346945   7.481   1.263   2.574  0.0772  0.3588 -0.0056
   87MOL   C33446946   7.430   1.039   2.645  0.6367  0.0473 -0.7176
   87MOL   C33546947   7.315   1.099   2.727  0.6360  0.5194  0.2072
   87MOL   C33646948   7.521   0.931   2.734 -0.0964  0.1828  0.2380
   87MOL   H33746949   0.412   1.346   2.545 -0.9098  0.3187  1.3034
   87MOL   H33846950   0.344   1.242   2.408  0.0631  1.8429 -0.7828
   87MOL   H33946951   0.302   1.206   2.575 -0.6887  1.4911  1.7063
   87MOL   H34046952   0.250   1.471   2.427  0.4540 -0.4828 -0.0631
   87MOL   H34146953   0.186   1.426   2.586  1.4661 -0.1129  0.6225
   87MOL   H34246954   0.118   1.293   2.317 -2.0873 -2.2015  0.6362
   87MOL   H34346955   0.022   1.420   2.385 -0.8207 -0.5963 -1.3235
   87MOL   H34446956   7.790   1.292   2.584  1.7097  0.6141 -0.2926
   87MOL   H34546957   0.080   1.166   2.556 -1.5023 -0.5606  0.1171
   87MOL   H34646958   7.745   1.114   2.340 -0.6933  0.9452 -1.5119
   87MOL   H34746959   7.648   1.256   2.381  1.9863  0.1877 -1.9214
   87MOL   H34846960   7.361   1.171   2.795 -0.3582  0.6231  0.7703
   87MOL   H34946961   7.250   1.031   2.781  0.5302  0.5132  0.0732
   87MOL   H35046962   7.260   1.162   2.657  0.5544 -1.0463 -1.1583
   87MOL   H35146963   7.592   0.889   2.663 -0.9419 -0.8919  0.0100
   87MOL   H35246964   7.445   0.856   2.756 -2.4198  1.8661 -1.6038
   87MOL   C35346965   6.955   0.976   3.372  0.1756  0.1436 -0.2777
   87MOL   C35446966   7.037   0.992   3.246  0.5695  0.4598  0.2520
   87MOL   C35546967   7.074   0.861   3.184  0.0461 -0.4775  0.0838
   87MOL   C35646968   7.163   0.874   3.060  0.0451  0.4359 -0.1563
   87MOL   C35746969   7.304   0.926   3.089  0.3402 -0.3434 -0.2460
   87MOL   O35846970   7.391   0.927   2.977  0.0154 -0.1016 -0.2239
   87MOL   C35946971   7.497   1.011   2.968 -0.8150 -0.4431  0.0434
   87MOL   O36046972   7.519   1.102   3.050  0.2797 -0.4165 -0.2289
   87MOL   C36146973   7.602   0.974   2.865 -0.5969  0.1182  0.9162
   87MOL   C36246974   7.707   1.081   2.826  0.9095 -0.3810  0.0634
   87MOL   C36346975   7.685   0.845   2.915 -0.3417  0.5688 -0.0969
   87MOL   H36446976   6.904   1.061   3.416 -2.4677 -0.1590 -2.5917
   87MOL   H36546977   7.015   0.931   3.451 -1.2782 -0.7596  0.3390
   87MOL   H36646978   6.877   0.908   3.338  0.1917  0.1005 -0.2309
   87MOL   H36746979   6.978   1.049   3.175 -2.0134 -1.3279  0.8536
   87MOL   H36846980   7.131   1.046   3.260  1.5256 -1.2570  0.6165
   87MOL   H36946981   6.985   0.814   3.142 -0.1017  0.1293 -0.2807
   87MOL   H37046982   7.122   0.796   3.258 -1.5684 -1.7767  0.0281
   87MOL   H37146983   7.117   0.940   2.986 -0.5505 -0.4617 -0.5901
   87MOL   H37246984   7.170   0.775   3.015  1.6488  0.6792 -0.4850
   87MOL   H37346985   7.290   1.031   3.113  2.5787 -0.1233  0.2240
   87MOL   H37446986   7.345   0.870   3.174 -1.0423 -0.0354  0.6526
   87MOL   H37546987   7.750   1.045   2.733  0.2986  0.2762 -0.4740
   87MOL   H37646988   7.652   1.173   2.805  2.3988  0.1201 -1.7062
   87MOL   H37746989   7.784   1.100   2.902  0.4851  2.4080 -0.1684
   87MOL   H37846990   7.607   0.770   2.935 -0.6298  1.2332  1.2623
   87MOL   H37946991   7.731   0.807   2.824  0.5153  3.1065 -0.7617
   87MOL   C38046992   0.359   0.704   2.363  0.1887  0.4658 -0.1705
   87MOL   C38146993   0.314   0.816   2.449  0.3450 -0.1237  0.1862
   87MOL   C38246994   0.302   0.780   2.602  0.0202  0.0732 -0.1677
   87MOL   C38346995   0.277   0.905   2.683 -0.5080 -0.0899  0.1796
   87MOL   C38446996   0.283   0.889   2.836 -0.3064  0.1371 -0.2333
   87MOL   O38546997   0.154   0.859   2.872 -0.0017  0.1290 -0.3945
   87MOL   C38646998   0.118   0.878   2.998 -0.6604  0.3111 -0.2455
   87MOL   O38746999   0.201   0.926   3.081  0.7242  0.1100  0.7296
   87MOL   C38847000   7.793   0.834   3.034  0.1563  0.1406 -0.1887
   87MOL   C38947001   7.748   0.923   3.154  0.0376 -0.0477 -0.2606
   87MOL   C39047002   7.797   0.691   3.098 -0.5827  0.3844 -0.3764
   87MOL   H39147003   0.360   0.730   2.257  0.0357  0.0019 -0.2826
   87MOL   H39247004   0.461   0.674   2.388 -0.0747  1.0874  1.7545
   87MOL   H39347005   0.298   0.618   2.390  2.8669 -1.3907  0.1798
   87MOL   H39447006   0.227   0.871   2.412 -0.2124 -1.7737 -1.0024
   87MOL   H39547007   0.397   0.886   2.453  0.4033 -0.2803  1.9222
   87MOL   H39647008   0.241   0.692   2.622  1.3102 -0.2406  2.6748
   87MOL   H39747009   0.399   0.738   2.630 -1.7512 -2.3313  2.6134
   87MOL   H39847010   0.347   0.986   2.667 -0.1281 -0.7596 -1.6411
   87MOL   H39947011   0.179   0.946   2.662 -0.9176  0.0886  2.3221
   87MOL   H40047012   0.309   0.987   2.877 -1.9310  0.6595 -0.4176
   87MOL   H40147013   0.349   0.808   2.865 -2.4020 -1.2958  0.6591
   87MOL   H40247014   7.747   1.030   3.134 -2.2053  0.0220  0.0929
   87MOL   H40347015   7.814   0.920   3.241 -0.2136  2.8620  0.0799
   87MOL   H40447016   7.648   0.890   3.182  0.2994 -0.7960 -0.2017
   87MOL   H40547017   7.708   0.670   3.157 -0.9648 -0.2873 -1.1725
   87MOL   H40647018   0.058   0.693   3.177 -1.7402 -0.7263  0.7599
   87MOL   C40747019   7.670   0.757   2.213  0.0658 -0.0330 -0.5219
   87MOL   C40847020   7.760   0.742   2.335  0.1839  0.0961  0.6213
   87MOL   C40947021   7.678   0.658   2.445 -0.1192 -0.0764  0.8358
   87MOL   C41047022   7.758   0.622   2.569  0.5666 -0.1730 -0.1192
   87MOL   C41147023   7.681   0.545   2.680  0.2686 -0.3798 -0.3389
   87MOL   O41247024   7.776   0.533   2.784  0.6056  0.2366  0.4294
   87MOL   C41347025   7.735   0.520   2.912 -0.4319 -0.7541  0.2819
   87MOL   O41447026   7.623   0.501   2.943  0.4807 -0.0121 -0.9002
   87MOL   C41547027   0.020   0.555   3.022  0.0592  0.9298  0.1353
   87MOL   C41647028   0.163   0.559   2.963 -0.2968  0.8249 -0.3567
   87MOL   C41747029   0.006   0.447   3.140 -0.0691 -0.5762  0.1138
   87MOL   H41847030   7.710   0.818   2.132  0.5772 -1.5846 -1.4450
   87MOL   H41947031   7.619   0.667   2.180 -0.6491  0.4788 -0.8373
   87MOL   H42047032   7.581   0.808   2.251 -0.0218 -0.1045 -0.6328
   87MOL   H42147033   7.781   0.838   2.382 -0.7414  0.3808  0.4663
   87MOL   H42247034   0.045   0.702   2.313 -0.6595 -1.5990 -0.2444
   87MOL   H42347035   7.593   0.714   2.483  0.3664  0.0759  1.7255
   87MOL   H42447036   7.639   0.568   2.398  0.8863 -0.7130  1.1917
   87MOL   H42547037   7.790   0.716   2.614  0.4579 -0.0463 -0.3078
   87MOL   H42647038   0.031   0.562   2.542 -1.0611 -2.5191 -0.2104
   87MOL   H42747039   7.593   0.602   2.711  0.6402 -0.8253  1.5752
   87MOL   H42847040   7.654   0.444   2.649 -0.4016 -0.1686 -0.4581
   87MOL   H42947041   0.195   0.465   2.917  1.3404 -0.1325  2.6106
   87MOL   H43047042   0.225   0.600   3.042 -1.9495  1.6214  0.5675
   87MOL   H43147043   0.166   0.625   2.876 -0.5961  1.6964  0.2836
   87MOL   H43247044   7.725   0.466   3.188  0.3858  0.6667  0.5347
   87MOL   H43347045   0.086   0.476   3.209 -1.4899  1.5408  0.9097
   87MOL   C43447046   7.631   0.541   3.819 -0.4933  0.9234  0.1540
   87MOL   C43547047   7.571   0.401   3.795 -0.3706  0.4253  0.2282
   87MOL   C43647048   7.659   0.308   3.712 -0.1761  0.5061 -0.0843
   87MOL   C43747049   7.666   0.340   3.568 -0.5628  0.2287  0.3543
   87MOL   C43847050   7.774   0.255   3.493  0.0240  0.5015 -0.0741
   87MOL   O43947051   7.767   0.284   3.355 -0.4599 -0.0871  0.1090
   87MOL   C44047052   0.033   0.236   3.272 -0.2095 -0.1702  0.5111
   87MOL   O44147053   0.129   0.162   3.295  0.5164  0.4323  0.0099
   87MOL   C44247054   0.001   0.283   3.124 -0.5056 -0.2600  0.3547
   87MOL   C44347055   0.107   0.227   3.026  0.0952  0.2843 -0.3057
   87MOL   C44447056   7.677   0.215   3.090 -0.3311 -1.2241 -0.4150
   87MOL   H44547057   7.623   0.613   3.737  0.2284  0.1129 -0.6330
   87MOL   H44647058   7.580   0.578   3.908 -0.4326  2.2871 -0.3591
   87MOL   H44747059   7.737   0.540   3.842 -0.0511  1.9651 -1.6669
   87MOL   H44847060   7.562   0.340   3.885  1.4611  0.0706  0.1811
   87MOL   H44947061   7.469   0.410   3.758  0.2293 -0.5464 -1.6927
   87MOL   H45047062   7.759   0.289   3.751 -0.6701 -1.2403  0.3799
   87MOL   H45147063   7.617   0.208   3.719  0.2296  0.3840  0.6353
   87MOL   H45247064   7.689   0.445   3.552 -0.7622  0.2138 -0.0365
   87MOL   H45347065   7.580   0.313   3.507  1.2201 -2.7934 -0.9726
   87MOL   H45447066   7.739   0.152   3.501  1.7586 -0.0128  1.2743
   87MOL   H45547067   0.060   0.266   3.536  0.4319  1.9259 -1.3248
   87MOL   H45647068   0.105   0.118   3.028 -1.8184  0.2948 -0.7570
   87MOL   H45747069   0.087   0.259   2.924  0.6285  0.9879 -0.1901
   87MOL   H45847070   0.203   0.263   3.062 -0.8110  0.2093  2.3238
   87MOL   H45947071   7.676   0.234   2.983 -0.6539 -0.1161 -0.2170
   87MOL   H46047072   7.591   0.273   3.123  0.4526  0.8256 -1.8781
   87MOL   C46147073   7.021   7.504   3.494  0.7100 -0.9537 -1.0131
   87MOL   C46247074   7.137   7.547   3.402  0.6677  0.6484  0.1990
   87MOL   C46347075   7.278   7.508   3.442 -0.4645 -0.1597  0.5968
   87MOL   C46447076   7.379   7.557   3.342  0.7547  0.1112 -0.5400
   87MOL   C46547077   7.396   7.711   3.336 -0.1926 -0.3810  0.6393
   87MOL   O46647078   7.493   7.728   3.234  0.5911  0.5630 -0.1277
   87MOL   C46747079   7.555   0.035   3.229 -0.2053  0.1643  0.0223
   87MOL   O46847080   7.544   0.128   3.312  0.4865  0.1431 -0.0787
   87MOL   C46947081   7.636   0.056   3.097  0.3047  0.6338  1.0902
   87MOL   C47047082   7.746   7.770   3.096  1.4446 -0.2039 -0.8619
   87MOL   C47147083   7.549   0.025   2.979 -0.2890 -0.0563 -0.4351
   87MOL   H47247084   7.009   7.568   3.581  0.8348 -0.8529 -1.0702
   87MOL   H47347085   7.048   7.406   3.535 -0.6124 -0.8099  0.2389
   87MOL   H47447086   6.921   7.499   3.451  0.1256 -0.5777  0.2940
   87MOL   H47547087   7.132   7.656   3.396  0.1050  0.5590 -1.0488
   87MOL   H47647088   7.109   7.502   3.307  1.1746 -0.0343  0.3691
   87MOL   H47747089   7.289   7.400   3.452 -2.3926 -0.8795 -4.1184
   87MOL   H47847090   7.300   7.558   3.537 -2.5917  0.1073  0.9665
   87MOL   H47947091   7.348   7.515   3.247 -0.2548 -1.9787  0.6875
   87MOL   H48047092   7.478   7.516   3.361  1.0191  0.3565 -1.3675
   87MOL   H48147093   7.302   7.765   3.321  0.8407  1.1953 -0.2549
   87MOL   H48247094   7.440   7.730   3.434  0.0664  0.0039  0.4463
   87MOL   H48347095   7.720   7.665   3.109 -1.0239  0.1681 -2.4216
   87MOL   H48447096   0.006   7.801   3.171  1.9143 -3.2101 -0.0287
   87MOL   H48547097   7.803   7.760   3.004  0.5313 -3.1330 -1.1364
   87MOL   H48647098   7.521   7.734   2.989 -2.9690  0.5851 -0.8370
   87MOL   H48747099   7.613   0.017   2.891  2.1907  0.5779  1.2620
   87MOL   C48847100   7.588   7.335   2.507  0.1307  0.2560  0.1960
   87MOL   C48947101   7.536   7.365   2.651  0.2946  0.0419  0.4255
   87MOL   C49047102   7.446   7.480   2.651 -0.2871 -0.4206 -0.6111
   87MOL   C49147103   7.346   7.487   2.766 -0.6177  0.4720 -0.1483
   87MOL   C49247104   7.262   7.619   2.761 -0.4904 -0.3821  0.1985
   87MOL   O49347105   7.315   7.705   2.856 -0.0719  0.3051 -0.0674
   87MOL   C49447106   7.359   0.015   2.822  0.0606 -0.4343  0.5228
   87MOL   O49547107   7.337   0.061   2.710  0.6089 -0.0683  0.0900
   87MOL   C49647108   7.412   0.098   2.935  0.4679 -0.1413 -0.2734
   87MOL   C49747109   7.437   0.240   2.887  0.2623  0.0113 -0.3657
   87MOL   C49847110   7.307   0.095   3.046 -0.6072 -0.6595 -0.4020
   87MOL   H49947111   7.669   7.263   2.517  0.4813  0.8468  1.7804
   87MOL   H50047112   7.511   7.291   2.443  0.7747 -1.8804  0.8393
   87MOL   H50147113   7.619   7.432   2.468  0.8605  0.5057  1.3584
   87MOL   H50247114   7.620   7.386   2.717 -0.7058  3.2732  0.7529
   87MOL   H50347115   7.485   7.278   2.693 -2.5722  2.6429  2.5511
   87MOL   H50447116   7.499   7.575   2.656 -0.6221 -0.2478 -0.3098
   87MOL   H50547117   7.386   7.472   2.560 -0.1119 -1.8179 -0.6132
   87MOL   H50647118   7.404   7.477   2.858  1.6358 -1.6248 -1.7325
   87MOL   H50747119   7.292   7.393   2.766  0.5258 -0.1924  0.4398
   87MOL   H50847120   7.270   7.656   2.658  0.5070 -1.2382 -0.0460
   87MOL   H50947121   7.156   7.615   2.785 -0.8597  0.5383 -1.1751
   87MOL   H51047122   7.520   0.221   2.820  0.1264  0.2019 -0.5907
   87MOL   H51147123   7.470   0.301   2.971 -0.2231 -1.7196  1.1203
   87MOL   H51247124   7.348   0.292   2.853  0.2129  0.4778  0.4496
   87MOL   H51347125   7.352   0.138   3.135  0.5506 -0.2611 -1.1586
   87MOL   H51447126   7.293   7.806   3.076 -2.5270 -0.5329 -0.8053
   87MOL   C51547127   7.604   0.761   3.474 -0.4308  0.0717  0.0866
   87MOL   C51647128   7.535   0.628   3.432 -0.1251  0.6306  0.1114
   87MOL   C51747129   7.428   0.634   3.332 -0.2409  0.5398  0.2927
   87MOL   C51847130   7.394   0.491   3.294 -0.1601 -0.3373 -0.7972
   87MOL   C51947131   7.280   0.482   3.197  0.6307 -0.6740  0.2053
   87MOL   O52047132   7.252   0.349   3.169 -0.1818 -0.0802  0.2350
   87MOL   C52147133   7.178   0.319   3.067 -0.2575 -0.5765 -0.4213
   87MOL   O52247134   7.109   0.397   3.003  0.3668 -0.4904 -0.0567
   87MOL   C52347135   7.166   0.167   3.048  0.6190 -0.0540 -0.6384
   87MOL   C52447136   7.082   0.110   3.170 -0.2270 -0.4076  0.1058
   87MOL   C52547137   7.088   0.142   2.917 -0.0456  0.2723  0.0498
   87MOL   H52647138   7.638   0.823   3.391  1.3307 -0.4712  0.3615
   87MOL   H52747139   7.537   0.826   3.530 -1.5039 -1.3968  0.5437
   87MOL   H52847140   7.693   0.749   3.537 -0.7601  0.7822  0.6967
   87MOL   H52947141   7.615   0.566   3.391  0.9066  2.0017  0.0484
   87MOL   H53047142   7.505   0.562   3.515  3.4976 -1.3431 -0.0446
   87MOL   H53147143   7.332   0.674   3.366 -1.4319 -0.4835 -1.7675
   87MOL   H53247144   7.461   0.704   3.255 -0.3648 -0.3778 -0.5933
   87MOL   H53347145   7.389   0.418   3.375  0.0082 -1.2023 -1.5652
   87MOL   H53447146   7.483   0.446   3.250  1.3335  3.2420 -1.6165
   87MOL   H53547147   7.192   0.530   3.240  0.9515 -0.0380  0.1561
   87MOL   H53647148   7.305   0.546   3.112 -1.1008  0.0040  0.1974
   87MOL   H53747149   6.976   0.137   3.169 -0.5153 -1.4161  1.5213
   87MOL   H53847150   7.116   0.133   3.271 -0.4024  0.2271  0.0215
   87MOL   H53947151   7.092   0.002   3.159  0.9614 -0.0596 -2.6726
   87MOL   H54047152   7.114   0.207   2.834 -0.2633 -0.9344 -0.9871
   87MOL   H54147153   6.981   0.157   2.933 -0.3162 -1.1794 -0.2703
   87MOL   H54247154   7.097   0.039   2.882  1.2858  0.0424  0.9970
   88MOL     C147155   0.149   6.586   6.114 -0.2616  0.1835  0.3848
   88MOL     C247156   0.264   6.483   6.125  0.2630 -0.4452 -0.2765
   88MOL     C347157   0.395   6.545   6.177  0.1218  0.3574  0.0200
   88MOL     C447158   0.451   6.656   6.091  0.2852 -0.3221 -0.1026
   88MOL     C547159   0.584   6.705   6.149 -0.2779  0.2470  0.1258
   88MOL     O647160   0.568   6.788   6.259 -0.8458 -0.3332 -0.3790
   88MOL     C747161   0.601   6.743   6.390 -0.2739  0.2854  0.6254
   88MOL     O847162   0.647   6.630   6.421  0.4766  0.0826  0.2471
   88MOL     C947163   0.552   6.838   6.500 -0.0754  0.6606 -0.3293
   88MOL    C1047164   0.660   6.834   6.620 -0.3470 -0.8839  0.8235
   88MOL    C1147165   0.405   6.826   6.548 -0.0901  0.5646 -0.2944
   88MOL    H1247166   0.077   6.527   6.057 -0.2999  1.4241 -0.8730
   88MOL    H1347167   0.175   6.670   6.051  0.8769 -0.0069  0.5788
   88MOL    H1447168   0.093   6.626   6.198  1.2457  0.8309  1.1165
   88MOL    H1547169   0.245   6.390   6.178 -0.9452  0.2130  0.4869
   88MOL    H1647170   0.279   6.447   6.023 -1.3583 -1.0889 -0.3057
   88MOL    H1747171   0.383   6.580   6.280  0.5867 -2.1054  0.9445
   88MOL    H1847172   0.465   6.463   6.163  1.4479  0.6660  4.2313
   88MOL    H1947173   0.395   6.746   6.069 -1.6803 -1.2974  0.7824
   88MOL    H2047174   0.462   6.615   5.990  1.2148 -0.2250 -0.0395
   88MOL    H2147175   0.656   6.629   6.180 -0.2800  0.4095  0.5339
   88MOL    H2247176   0.633   6.760   6.069  0.3156  0.8132  0.8753
   88MOL    H2347177   0.682   6.733   6.656 -2.3340 -1.8930 -0.6910
   88MOL    H2447178   0.627   6.890   6.708 -1.5210 -2.2566  1.2898
   88MOL    H2547179   0.749   6.881   6.578  0.0382 -2.2240  0.1170
   88MOL    H2647180   0.421   6.783   6.647  3.8997 -0.9345 -1.5125
   88MOL    H2747181   0.358   6.748   6.488  1.8506 -1.9765  1.3594
   88MOL    H2847182   0.561   6.936   6.453 -1.9079  0.3878 -1.2895
   88MOL    C2947183   0.820   7.178   6.434  0.0207 -0.0570  0.0396
   88MOL    C3047184   0.682   7.236   6.395 -0.5222  0.4066 -0.1515
   88MOL    C3147185   0.635   7.165   6.268  0.2110  0.1243  0.9303
   88MOL    C3247186   0.501   7.216   6.223  0.1927 -0.3700 -0.1219
   88MOL    C3347187   0.392   7.107   6.215  0.1581 -0.0309 -0.2179
   88MOL    O3447188   0.377   7.062   6.349  0.2037  0.1892  0.0986
   88MOL    C3547189   0.286   6.977   6.397 -0.2241 -0.2342 -0.2857
   88MOL    O3647190   0.202   6.926   6.327 -0.0177 -0.2651 -0.0106
   88MOL    C3747191   0.302   6.940   6.545  0.6046  0.1077 -0.4672
   88MOL    C3847192   0.357   7.054   6.631 -0.0239 -1.1202 -0.5545
   88MOL    C3947193   0.169   6.882   6.606 -0.3732  0.0774  0.6799
   88MOL    H4047194   0.852   7.193   6.537  0.0032 -0.3634  0.0890
   88MOL    H4147195   0.825   7.070   6.420  3.2362 -0.4336  3.5208
   88MOL    H4247196   0.897   7.221   6.369  0.4044 -2.3422 -1.0713
   88MOL    H4347197   0.707   7.340   6.376 -0.0644  0.5590  1.2216
   88MOL    H4447198   0.611   7.226   6.478 -1.1397 -3.8705 -1.0666
   88MOL    H4547199   0.634   7.057   6.281  1.2423 -0.0003  0.0337
   88MOL    H4647200   0.704   7.196   6.189 -0.1948 -1.1026  0.0773
   88MOL    H4747201   0.470   7.295   6.291  1.8991 -0.7929  1.1764
   88MOL    H4847202   0.510   7.264   6.125  1.5226 -1.0294 -0.3367
   88MOL    H4947203   0.430   7.035   6.142  0.8010  1.5695 -1.4902
   88MOL    H5047204   0.302   7.151   6.171  0.7276 -1.0666 -2.5027
   88MOL    H5147205   0.461   7.076   6.606 -0.4723 -0.8312 -2.2489
   88MOL    H5247206   0.357   7.021   6.735 -1.6551 -1.2275 -0.5838
   88MOL    H5347207   0.287   7.136   6.619  0.0359 -0.8092  1.1421
   88MOL    H5447208   0.196   6.826   6.696  0.3000 -0.0802  0.3744
   88MOL    H5547209   0.137   6.805   6.537  1.6811 -0.1411 -0.0483
   88MOL    C5647210   0.389   6.620   7.133  0.3637 -0.2194  0.3915
   88MOL    C5747211   0.387   6.769   7.168  0.7786  0.2426  0.3444
   88MOL    C5847212   0.314   6.853   7.060  0.3612 -0.3303 -0.0684
   88MOL    C5947213   0.181   6.925   7.105 -0.6166  0.2377  0.9620
   88MOL    C6047214   0.145   7.043   7.005  0.0772  0.3668  0.4690
   88MOL    O6147215   0.100   6.976   6.886  0.0695  0.2776  0.4324
   88MOL    C6247216   0.080   7.051   6.769 -0.4367 -0.2853 -0.5766
   88MOL    O6347217   0.100   7.169   6.756  0.7897 -0.3245 -0.8452
   88MOL    C6447218   0.040   6.966   6.645 -0.1787 -0.3818  0.7230
   88MOL    C6547219   7.745   6.857   6.674  0.0713  0.5333  0.0984
   88MOL    C6647220   7.797   7.048   6.526 -0.3784 -0.4695  0.1222
   88MOL    H6747221   0.455   6.598   7.049 -0.0688  0.2481 -0.0739
   88MOL    H6847222   0.284   6.591   7.127 -0.0564  0.9245  2.0225
   88MOL    H6947223   0.433   6.562   7.214 -1.8169 -0.9103  1.1218
   88MOL    H7047224   0.339   6.773   7.266  1.7956 -0.5081  0.8846
   88MOL    H7147225   0.489   6.806   7.175  1.0401 -0.3494 -0.3850
   88MOL    H7247226   0.382   6.937   7.046 -0.4813  0.6576  1.6820
   88MOL    H7347227   0.295   6.802   6.965  1.1814 -1.8979  0.5894
   88MOL    H7447228   0.197   6.963   7.206 -1.2294  2.5850  0.1989
   88MOL    H7547229   0.093   6.862   7.111 -0.3865  0.0416  2.5528
   88MOL    H7647230   0.060   7.097   7.045 -1.5265 -1.4349 -0.4277
   88MOL    H7747231   0.229   7.109   6.982  0.3112  0.3280  1.1871
   88MOL    H7847232   7.783   6.781   6.743 -1.8257  0.9299  1.6619
   88MOL    H7947233   7.725   6.804   6.581 -1.2734  2.6799 -0.8685
   88MOL    H8047234   7.651   6.891   6.719 -0.1320  0.8008 -0.5203
   88MOL    H8147235   7.794   6.987   6.435  0.9797 -0.1396 -0.1447
   88MOL    H8247236   0.052   7.128   6.501  0.0604 -0.5091  1.2055
   88MOL    C8347237   6.970   7.239   6.730  0.1060 -0.2514 -0.5117
   88MOL    C8447238   7.080   7.139   6.775  0.9202 -1.2921  0.2639
   88MOL    C8547239   7.130   7.049   6.660  0.2385  0.0609  0.1153
   88MOL    C8647240   7.231   6.946   6.708 -0.4935  0.7277 -0.2601
   88MOL    C8747241   7.344   6.908   6.612 -0.4379  0.7741 -0.1978
   88MOL    O8847242   7.449   7.002   6.614  0.0143  0.4498 -0.0241
   88MOL    C8947243   7.540   7.000   6.511 -0.5456  0.4932  0.3290
   88MOL    O9047244   7.530   6.924   6.415 -0.2260  0.3057  0.4251
   88MOL    C9147245   7.652   7.110   6.518  0.2861 -0.2184  0.1148
   88MOL    C9247246   7.629   7.212   6.640  0.5732 -0.2271 -0.6446
   88MOL    C9347247   7.642   7.188   6.384 -0.7721 -0.7662  0.2843
   88MOL    H9447248   6.878   7.189   6.699 -0.5401  0.5485  0.0974
   88MOL    H9547249   6.942   7.320   6.798 -1.8228  0.2682 -1.8551
   88MOL    H9647250   7.005   7.290   6.640 -0.5715 -0.8978 -1.1532
   88MOL    H9747251   7.051   7.086   6.866  0.2908  0.2062  0.9680
   88MOL    H9847252   7.160   7.207   6.804  0.4518 -0.1401 -1.0449
   88MOL    H9947253   7.184   7.117   6.594 -2.3354 -0.2783 -2.4488
   88MOL   H10047254   7.055   7.011   6.591  1.3656 -0.1479 -1.0108
   88MOL   H10147255   7.169   6.857   6.711 -0.2793  0.5846 -0.0994
   88MOL   H10247256   7.254   6.963   6.813 -2.6274  0.1515  0.3222
   88MOL   H10347257   7.303   6.887   6.513  0.2759  0.4592 -0.4326
   88MOL   H10447258   7.376   6.809   6.643 -1.4449  1.0500  1.8056
   88MOL   H10547259   7.689   7.301   6.622 -0.5642  1.4032  3.0985
   88MOL   H10647260   7.654   7.160   6.733 -0.2215  0.0364 -0.2816
   88MOL   H10747261   7.528   7.252   6.643  1.1925  1.3613 -0.1700
   88MOL   H10847262   7.745   7.212   6.356 -0.6625  1.7752  2.6893
   88MOL   H10947263   7.612   7.113   6.310 -0.1879 -1.5840  0.8556
   88MOL   C11047264   0.362   7.456   6.524 -0.0215  0.2293 -0.3540
   88MOL   C11147265   0.297   7.581   6.575  0.3186 -0.0997 -0.1119
   88MOL   C11247266   0.149   7.583   6.565  0.3868 -0.0032  0.1167
   88MOL   C11347267   0.098   7.618   6.430  0.1090  0.7105  0.0212
   88MOL   C11447268   7.760   7.613   6.422 -0.6403  0.8608 -0.3299
   88MOL   O11547269   7.719   7.483   6.383 -0.4586  0.2664 -0.4486
   88MOL   C11647270   7.586   7.448   6.402 -0.2214  0.3561 -0.0818
   88MOL   O11747271   7.504   7.525   6.459 -0.2997 -0.4237 -0.6538
   88MOL   C11847272   7.541   7.308   6.342  0.5774 -0.2561 -0.3244
   88MOL   C11947273   7.400   7.275   6.382  0.2996 -0.3829  0.5420
   88MOL   C12047274   7.554   7.323   6.185  0.3809 -0.0302  0.6712
   88MOL   H12147275   0.322   7.421   6.429  1.7010 -0.8509 -0.7032
   88MOL   H12247276   0.468   7.479   6.516  0.1693 -0.6272 -0.3630
   88MOL   H12347277   0.354   7.373   6.594  3.6108 -0.1676 -0.2919
   88MOL   H12447278   0.329   7.598   6.678  0.3895  1.3160 -0.3555
   88MOL   H12547279   0.349   7.663   6.525  1.0167  0.1070  0.9415
   88MOL   H12647280   0.101   7.491   6.599 -0.3183  0.5010  0.5079
   88MOL   H12747281   0.123   7.650   6.647  0.8629 -0.3649  0.5647
   88MOL   H12847282   0.129   7.560   6.343 -1.1142 -0.3932  0.3124
   88MOL   H12947283   0.122   7.721   6.402 -1.2611  0.4505 -2.2100
   88MOL   H13047284   7.720   7.632   6.521 -1.7192 -0.4128 -0.5121
   88MOL   H13147285   7.724   7.680   6.344  2.7548  0.8698 -1.9987
   88MOL   H13247286   7.333   7.357   6.355 -0.1419 -1.1692 -0.7849
   88MOL   H13347287   7.357   7.181   6.347 -1.4361  0.0503  1.4901
   88MOL   H13447288   7.400   7.280   6.491  2.0068 -0.9337  0.5777
   88MOL   H13547289   7.661   7.335   6.172  0.2303 -0.1965 -0.8043
   88MOL   H13647290   7.547   7.220   6.150  0.9170 -1.0538  3.4177
   88MOL   C13747291   6.839   7.190   5.600 -0.0384 -0.4519  0.1245
   88MOL   C13847292   6.947   7.259   5.694 -0.3605 -0.4922 -0.5434
   88MOL   C13947293   6.996   7.170   5.811  0.2336 -0.7731 -0.0277
   88MOL   C14047294   7.116   7.243   5.895  0.3590 -0.4932  0.9199
   88MOL   C14147295   7.165   7.192   6.027  0.1712 -0.7228  0.9488
   88MOL   O14247296   7.291   7.241   6.072 -0.1680 -0.0904  0.1016
   88MOL   C14347297   7.311   7.371   6.093 -1.2552  0.3733  0.3176
   88MOL   O14447298   7.219   7.454   6.088  0.0495 -0.2525 -0.3959
   88MOL   C14547299   7.464   7.410   6.092 -0.3350  0.3293  0.3675
   88MOL   C14647300   7.474   7.563   6.132 -0.4157 -0.1562 -0.4461
   88MOL   C14747301   7.506   7.386   5.942 -0.2491 -0.1939  0.1784
   88MOL   H14847302   6.748   7.146   5.641  0.2274 -1.5315 -0.4319
   88MOL   H14947303   6.886   7.111   5.542  0.5064  0.2416 -0.3894
   88MOL   H15047304   6.807   7.268   5.531  1.4585 -0.4317 -0.5712
   88MOL   H15147305   6.899   7.344   5.743  0.8061 -0.8148  1.2317
   88MOL   H15247306   7.034   7.297   5.640  0.3672 -0.5267  0.5665
   88MOL   H15347307   6.917   7.158   5.886  1.5411 -0.3389  1.4470
   88MOL   H15447308   7.014   7.067   5.780  1.0808 -0.2193 -1.4421
   88MOL   H15547309   7.202   7.253   5.830  0.1568 -0.1649  0.7023
   88MOL   H15647310   7.086   7.347   5.907 -1.1770 -1.1237  2.9259
   88MOL   H15747311   7.159   7.083   6.015  1.2227 -0.5034 -2.2193
   88MOL   H15847312   7.091   7.209   6.105 -0.6755 -1.7323  0.3861
   88MOL   H15947313   7.426   7.584   6.228  0.2078  0.0351 -0.1690
   88MOL   H16047314   7.431   7.633   6.061  0.9044  0.4068 -0.7207
   88MOL   H16147315   7.578   7.589   6.156 -0.1504 -1.6476  0.0487
   88MOL   H16247316   7.483   7.285   5.908 -1.1512  0.7910 -2.2664
   88MOL   H16347317   7.435   7.443   5.881 -0.3540 -0.1955  0.2998
   88MOL   C16447318   7.650   6.684   5.932 -0.3799 -0.0244  0.0387
   88MOL   C16547319   7.608   6.762   6.057 -0.1590  0.3276  0.7275
   88MOL   C16647320   7.632   6.915   6.048 -0.3768  0.4101 -0.0213
   88MOL   C16747321   7.778   6.964   6.017  0.4482 -0.1475  0.8129
   88MOL   C16847322   0.001   7.120   6.042  0.4082  0.3310 -0.2650
   88MOL   O16947323   7.722   7.208   5.978  0.0711  0.0079 -0.5759
   88MOL   C17047324   7.765   7.318   5.929  0.1020  0.7699 -0.2396
   88MOL   O17147325   0.071   7.353   5.929  0.0419  0.5764  0.0937
   88MOL   C17247326   7.650   7.406   5.871  0.0515  0.1278 -0.5047
   88MOL   C17347327   7.690   7.554   5.897 -0.5852 -0.3117 -0.2428
   88MOL   C17447328   7.646   7.402   5.711  0.7757  0.0925  0.0209
   88MOL   H17547329   7.758   6.686   5.921 -0.6376 -1.3357 -3.4948
   88MOL   H17647330   7.621   6.724   5.835 -1.4690  2.3127  1.2928
   88MOL   H17747331   7.620   6.579   5.938  0.1019 -0.5551 -4.6484
   88MOL   H17847332   7.649   6.723   6.150  2.5237  0.6480 -0.2797
   88MOL   H17947333   7.500   6.753   6.066 -0.3100  1.1553 -0.2289
   88MOL   H18047334   7.565   6.975   5.986 -0.4932 -0.0001 -0.2941
   88MOL   H18147335   7.622   6.963   6.146  2.5018  0.4578  0.3016
   88MOL   H18247336   7.809   6.940   5.915  0.9773  0.8623  0.7361
   88MOL   H18347337   0.020   6.906   6.091  2.1085 -0.8183 -0.9235
   88MOL   H18447338   0.107   7.141   6.030  0.3267  0.6368 -0.4561
   88MOL   H18547339   7.809   7.142   6.148 -1.4638 -2.6467  0.3148
   88MOL   H18647340   7.789   7.568   5.853 -0.2881  1.8918  1.0250
   88MOL   H18747341   7.707   7.589   5.999 -3.2749 -0.0202  0.1483
   88MOL   H18847342   7.628   7.631   5.852 -1.5007 -0.3543  0.9330
   88MOL   H18947343   7.596   7.488   5.667  0.5234 -0.1815 -0.2321
   88MOL   H19047344   7.753   7.413   5.698  0.8111  1.5365  1.4049
   88MOL   C19147345   6.962   6.919   5.185  0.1295 -0.3005 -0.3402
   88MOL   C19247346   7.097   6.947   5.222 -0.0305  0.3158  1.2982
   88MOL   C19347347   7.105   7.030   5.353 -0.3953 -0.4961  0.1099
   88MOL   C19447348   7.250   7.062   5.383  0.3943 -0.2238  0.3847
   88MOL   C19547349   7.276   7.134   5.515  0.1219  0.1065 -0.2567
   88MOL   O19647350   7.408   7.169   5.529 -0.1992  0.2143 -0.1109
   88MOL   C19747351   7.445   7.275   5.603  0.1000  0.5962 -0.0376
   88MOL   O19847352   7.376   7.360   5.659  0.3373  0.3798 -0.5969
   88MOL   C19947353   7.600   7.279   5.622 -0.7676 -0.4578  0.0681
   88MOL   C20047354   7.646   7.150   5.678  0.4344 -0.3785  0.1785
   88MOL   C20147355   7.674   7.280   5.476 -0.6601  0.8937 -0.0753
   88MOL   H20247356   6.895   7.005   5.199 -0.9681 -1.6947  3.3326
   88MOL   H20347357   6.971   6.884   5.082  1.6432 -0.2017 -0.2390
   88MOL   H20447358   6.933   6.836   5.249 -0.7158 -1.4239 -2.1415
   88MOL   H20547359   7.158   6.994   5.144  0.4543 -2.4877 -0.0720
   88MOL   H20647360   7.147   6.851   5.230  0.2228  0.0126 -2.9486
   88MOL   H20747361   7.066   6.957   5.425 -2.1275 -1.5170 -1.8269
   88MOL   H20847362   7.039   7.114   5.369  1.2368  0.9240 -0.5097
   88MOL   H20947363   7.318   6.976   5.374 -0.2786 -0.7146 -0.0185
   88MOL   H21047364   7.278   7.114   5.291 -0.4712  0.3800  0.4584
   88MOL   H21147365   7.213   7.223   5.519 -1.5114 -1.0742  0.6818
   88MOL   H21247366   7.250   7.076   5.603 -1.4899 -0.9871 -1.4368
   88MOL   H21347367   7.590   7.122   5.768  1.2252  3.3066  1.9075
   88MOL   H21447368   7.749   7.149   5.714  0.8789 -0.3777 -1.0771
   88MOL   H21547369   7.634   7.066   5.609 -0.2548 -0.8454  0.8560
   88MOL   H21647370   7.626   7.206   5.412  1.8747  0.1717 -1.2169
   88MOL   H21747371   7.774   7.239   5.489 -0.9431  0.9260  2.6342
   88MOL   C21847372   0.301   0.090   5.416  0.2865 -0.0678  0.1114
   88MOL   C21947373   0.315   0.057   5.567 -0.0071  0.4976  0.4131
   88MOL   C22047374   0.359   7.717   5.586 -0.3251 -0.7269 -0.1746
   88MOL   C22147375   0.268   7.607   5.524 -0.1188 -0.0707 -0.2563
   88MOL   C22247376   0.111   7.636   5.528  0.6171 -0.1342 -0.4893
   88MOL   O22347377   0.046   7.513   5.473 -0.4171  0.2163 -0.2110
   88MOL   C22447378   7.742   7.527   5.418  0.4564  0.7336 -0.4065
   88MOL   O22547379   7.677   7.639   5.410 -1.2580  0.2379 -0.4915
   88MOL   C22647380   7.674   7.403   5.370 -0.0620 -0.3262 -0.3149
   88MOL   C22747381   7.527   7.437   5.340  0.3520  0.2087  0.3986
   88MOL   C22847382   7.747   7.355   5.233  0.1313 -0.5810 -0.1099
   88MOL   H22947383   0.390   0.073   5.354  0.6847  0.5316  0.5212
   88MOL   H23047384   0.218   0.036   5.370  1.4345 -1.8436  0.0282
   88MOL   H23147385   0.271   0.194   5.413 -2.4576 -0.8574 -1.1712
   88MOL   H23247386   0.221   0.085   5.615 -0.3607 -3.5159  2.3044
   88MOL   H23347387   0.388   0.121   5.617 -0.6069  0.4970  1.3082
   88MOL   H23447388   0.361   7.702   5.694  1.0284  1.8312  0.2141
   88MOL   H23547389   0.464   7.708   5.559 -0.0156  1.5686  0.1297
   88MOL   H23647390   0.293   7.592   5.419  2.2070 -0.1143  0.2612
   88MOL   H23747391   0.299   7.510   5.563  1.5572  0.3515 -0.4870
   88MOL   H23847392   0.077   7.724   5.474 -0.3303 -0.7886 -0.9877
   88MOL   H23947393   0.094   7.652   5.635  0.1216 -0.4280 -0.5213
   88MOL   H24047394   7.469   7.358   5.293 -1.1538  1.0645  0.8000
   88MOL   H24147395   7.503   7.527   5.282  0.9852  0.5007  0.5839
   88MOL   H24247396   7.467   7.460   5.428 -0.6305 -0.5498 -0.0680
   88MOL   H24347397   7.705   7.256   5.215 -0.0923 -0.3154 -1.1301
   88MOL   H24447398   0.037   7.343   5.264  0.2690 -1.2422 -0.8041
   88MOL   C24547399   7.016   7.243   4.803 -0.6968  0.0703  0.6619
   88MOL   C24647400   7.141   7.317   4.845  0.3976 -0.1313  0.2148
   88MOL   C24747401   7.179   7.290   4.989  0.0368  0.3635  0.0959
   88MOL   C24847402   7.319   7.307   5.030  0.1753  0.0869  0.1094
   88MOL   C24947403   7.376   7.446   5.002 -0.0915  0.4258  0.3579
   88MOL   O25047404   7.501   7.461   5.064 -0.4887  0.4231 -0.2776
   88MOL   C25147405   7.612   7.403   5.011  0.2878  0.0656  0.3940
   88MOL   O25247406   7.611   7.333   4.910 -0.2117  0.6778  0.0669
   88MOL   C25347407   7.745   7.435   5.094  0.7438  0.6154 -0.4290
   88MOL   C25447408   0.052   7.377   5.016 -0.4004  0.3455  0.1054
   88MOL   C25547409   7.766   7.590   5.119  0.7903  0.5651  0.0563
   88MOL   H25647410   6.942   7.246   4.882  0.3992  0.7692  1.6763
   88MOL   H25747411   6.974   7.313   4.730  2.5634  0.4792 -0.9231
   88MOL   H25847412   7.024   7.139   4.771  2.4923  0.2395  0.7070
   88MOL   H25947413   7.224   7.282   4.784 -0.9966 -0.6636 -1.4430
   88MOL   H26047414   7.119   7.421   4.820  0.1315  0.2113  1.8661
   88MOL   H26147415   7.156   7.184   5.003  1.5996 -0.2896 -2.0836
   88MOL   H26247416   7.118   7.344   5.061 -0.9950 -1.3055  0.5080
   88MOL   H26347417   7.324   7.292   5.138 -2.6396  0.7506  0.3710
   88MOL   H26447418   7.378   7.225   4.988 -0.8257 -0.2392 -0.6958
   88MOL   H26547419   7.393   7.459   4.895  2.9451  0.9022  0.8553
   88MOL   H26647420   7.301   7.519   5.031  0.0153  0.1643  1.3123
   88MOL   H26747421   0.025   7.273   4.995  1.1595 -0.6925  2.9295
   88MOL   H26847422   0.049   7.414   4.914  2.0508 -0.8238 -0.4404
   88MOL   H26947423   0.153   7.388   5.056  0.7090  0.2998 -2.6215
   88MOL   H27047424   7.679   7.634   5.169  2.4035  1.6216  2.0137
   88MOL   H27147425   0.035   7.600   5.189  0.9486  1.5985 -0.2653
   88MOL   C27247426   0.649   7.583   5.302  0.0112  0.0934 -0.6022
   88MOL   C27347427   0.666   7.636   5.162 -0.1499 -0.2744 -0.2235
   88MOL   C27447428   0.576   7.570   5.059 -0.5251  0.5747  0.1898
   88MOL   C27547429   0.424   7.576   5.096 -0.7953 -0.8437  0.2332
   88MOL   C27647430   0.350   7.682   5.015 -0.2337  0.0814  0.0846
   88MOL   O27747431   0.214   7.672   5.045  0.2586 -0.7975 -0.1858
   88MOL   C27847432   0.127   7.678   4.946  0.8798  0.7976  0.1932
   88MOL   O27947433   0.163   7.695   4.828  0.1241 -0.2802  0.7173
   88MOL   C28047434   7.793   7.694   4.994 -0.2888 -0.8070  0.5632
   88MOL   C28147435   7.698   7.668   4.868 -0.3246 -0.1552 -0.2814
   88MOL   C28247436   7.774   0.023   5.049  0.0740 -0.2220 -0.5497
   88MOL   H28347437   0.660   7.474   5.299  3.0232  0.2677  1.8412
   88MOL   H28447438   0.721   7.637   5.363  0.9223  0.3975 -1.9267
   88MOL   H28547439   0.549   7.601   5.340 -0.7434 -1.8074 -1.6099
   88MOL   H28647440   0.628   7.738   5.168 -1.2182 -0.6819  0.1234
   88MOL   H28747441   0.771   7.650   5.137 -1.2278  0.7155 -4.4757
   88MOL   H28847442   0.594   7.623   4.966 -2.6855  0.4331 -0.3383
   88MOL   H28947443   0.601   7.465   5.045 -2.5650  0.3509 -2.1026
   88MOL   H29047444   0.381   7.485   5.055 -1.4813  0.4695 -1.9993
   88MOL   H29147445   0.396   7.577   5.202 -1.0345 -0.6942  0.1686
   88MOL   H29247446   0.367   7.670   4.908 -2.4099 -2.0817 -0.0578
   88MOL   H29347447   0.389   7.778   5.049  1.7004 -0.7962  0.3733
   88MOL   H29447448   7.724   7.568   4.834  1.6542  0.1298  0.3310
   88MOL   H29547449   7.591   7.686   4.883 -0.0026  0.0776  1.8352
   88MOL   H29647450   7.732   7.738   4.791  1.1635  0.3802  0.8511
   88MOL   H29747451   7.665   0.021   5.062 -0.2788 -1.6291 -3.3338
   88MOL   H29847452   0.000   0.008   5.149 -0.8382  1.5019  0.1156
   88MOL   C29947453   0.288   0.430   4.315  0.0638  0.0542 -0.1461
   88MOL   C30047454   0.165   0.428   4.410  0.1808  0.4135  0.2399
   88MOL   C30147455   0.149   0.293   4.487  0.4388  0.1502 -0.1345
   88MOL   C30247456   0.011   0.289   4.551 -0.1618  0.3762 -0.1518
   88MOL   C30347457   7.783   0.159   4.632  0.3361 -0.2125 -0.2507
   88MOL   O30447458   0.027   0.148   4.758 -0.3018  0.2400  0.3309
   88MOL   C30547459   7.763   0.188   4.862 -0.9399 -0.5469 -1.3153
   88MOL   O30647460   7.649   0.240   4.855 -0.1983 -0.2975  0.3974
   88MOL   C30747461   0.014   0.166   5.004 -0.2680  0.4978 -0.2935
   88MOL   C30847462   7.764   0.263   5.113  0.0525 -0.5600  0.4260
   88MOL   C30947463   0.164   0.185   5.007  0.5963  0.2376 -0.3450
   88MOL   H31047464   0.295   0.533   4.280 -0.7971  0.1503 -0.0483
   88MOL   H31147465   0.275   0.377   4.221  1.4119 -1.8307  0.7075
   88MOL   H31247466   0.379   0.393   4.362 -1.1087 -1.5271  0.9153
   88MOL   H31347467   0.074   0.460   4.359  0.7193  0.2846 -0.8113
   88MOL   H31447468   0.174   0.505   4.487 -0.4346  1.5246 -0.7983
   88MOL   H31547469   0.230   0.267   4.555 -1.1433 -1.6938  1.1036
   88MOL   H31647470   0.145   0.214   4.412 -2.1194  1.0333 -0.9819
   88MOL   H31747471   7.749   0.319   4.479 -1.4862 -2.6953 -0.1116
   88MOL   H31847472   7.808   0.373   4.618  0.7236 -2.3541  3.6825
   88MOL   H31947473   7.674   0.155   4.641  0.4352 -1.9632  0.2127
   88MOL   H32047474   7.813   0.067   4.583  1.2138 -0.4378  0.7213
   88MOL   H32147475   7.656   0.267   5.120  0.0054 -0.5478 -0.2652
   88MOL   H32247476   7.811   0.233   5.207  1.0990  0.7700  0.3408
   88MOL   H32347477   7.804   0.359   5.081  1.8362 -1.3131  0.3099
   88MOL   H32447478   0.205   0.113   4.936  2.6263  0.6869  0.3460
   88MOL   H32547479   0.188   0.143   5.105  0.2446 -0.6953 -0.6631
   88MOL   C32647480   0.998   7.807   4.826 -0.0033 -0.0982  0.4627
   88MOL   C32747481   0.849   0.018   4.814  0.3092  0.3144 -0.1924
   88MOL   C32847482   0.790   0.113   4.921 -0.1477  0.0956  0.0029
   88MOL   C32947483   0.635   0.127   4.897  0.1423  0.3351 -0.1385
   88MOL   C33047484   0.589   0.220   5.008 -0.3241 -0.3193  0.0059
   88MOL   O33147485   0.449   0.228   5.021  0.0247 -0.2043  0.3181
   88MOL   C33247486   0.367   0.299   4.940 -0.6634  0.3367  0.0087
   88MOL   O33347487   0.397   0.337   4.827  0.7509  0.5059  0.0432
   88MOL   C33447488   0.227   0.327   4.999  0.2088 -0.2125  0.4082
   88MOL   C33547489   0.164   0.428   4.900  0.3783  0.0453 -0.2527
   88MOL   C33647490   0.235   0.398   5.141 -0.3907  0.3732 -0.8735
   88MOL   H33747491   1.051   0.088   4.828  0.7369 -0.5067  0.4481
   88MOL   H33847492   1.020   7.743   4.740 -0.5938  0.0821  0.1701
   88MOL   H33947493   1.017   7.740   4.909 -1.1625 -1.0993 -0.0570
   88MOL   H34047494   0.796   7.738   4.826 -0.8938  0.9920 -0.0558
   88MOL   H34147495   0.829   0.058   4.714  1.2689  2.8409  0.5998
   88MOL   H34247496   0.839   0.210   4.909 -0.1642 -0.0691 -1.4317
   88MOL   H34347497   0.819   0.074   5.019  4.0943 -0.6895 -1.4471
   88MOL   H34447498   0.569   0.042   4.915 -0.7324  1.4611  2.2687
   88MOL   H34547499   0.613   0.164   4.797  0.8932 -1.4806 -1.0033
   88MOL   H34647500   0.635   0.319   5.011 -0.6404 -0.1312 -1.0611
   88MOL   H34747501   0.624   0.167   5.096 -2.2299  1.0118  1.5925
   88MOL   H34847502   0.146   0.393   4.798  0.1698  0.1371 -0.2460
   88MOL   H34947503   0.228   0.515   4.880 -0.1862 -0.0260 -2.5647
   88MOL   H35047504   0.069   0.467   4.935  0.4613 -1.2870  1.5152
   88MOL   H35147505   0.298   0.331   5.199 -2.0133 -0.8341 -0.4688
   88MOL   H35247506   0.143   0.391   5.200  1.3658  1.3975  2.0830
   88MOL   C35347507   7.414   0.430   5.224  0.0837  0.4651  0.2271
   88MOL   C35447508   7.486   0.511   5.115 -0.0970  0.2544 -0.4030
   88MOL   C35547509   7.620   0.565   5.164  0.0966 -0.1781  0.5224
   88MOL   C35647510   7.684   0.655   5.059 -0.2306 -0.1660 -0.3104
   88MOL   C35747511   7.788   0.738   5.129  0.2682  0.0377  0.0501
   88MOL   O35847512   0.074   0.646   5.162  0.0020  0.0619 -0.1876
   88MOL   C35947513   0.202   0.657   5.117 -0.4969  0.6781  0.4135
   88MOL   O36047514   0.246   0.744   5.039  0.0835  0.0265 -0.2150
   88MOL   C36147515   0.290   0.542   5.171 -0.1340  0.4455 -0.0926
   88MOL   C36247516   0.427   0.560   5.120 -0.6728 -1.0403  0.2021
   88MOL   C36347517   0.295   0.552   5.333 -0.2526 -0.0020  0.2018
   88MOL   H36447518   7.464   0.341   5.262  1.7932  1.0368 -0.6394
   88MOL   H36547519   7.325   0.391   5.174 -1.8619  3.2791  1.3951
   88MOL   H36647520   7.377   0.493   5.305 -4.8445 -2.1816  0.2500
   88MOL   H36747521   7.510   0.440   5.035  1.8953 -1.9566  2.0661
   88MOL   H36847522   7.421   0.591   5.078  2.2592  3.0938  1.4384
   88MOL   H36947523   7.685   0.480   5.186  1.1518  0.3781 -0.4364
   88MOL   H37047524   7.604   0.617   5.258 -1.5772 -0.8379  0.6286
   88MOL   H37147525   7.610   0.726   5.021 -1.1476  1.0066  3.5003
   88MOL   H37247526   7.721   0.598   4.974  1.4477  1.5744 -0.7669
   88MOL   H37347527   0.022   0.813   5.065  1.1702  0.0979  0.8019
   88MOL   H37447528   7.752   0.789   5.218  2.2740 -0.2758  1.0619
   88MOL   H37547529   0.482   0.654   5.127  0.7659 -1.8624  0.0935
   88MOL   H37647530   0.491   0.483   5.164 -0.6607  0.5074  3.0138
   88MOL   H37747531   0.436   0.550   5.012 -0.7049 -3.5494  0.3931
   88MOL   H37847532   0.190   0.550   5.361 -0.2494 -0.5720  0.1803
   88MOL   H37947533   0.333   0.457   5.371  0.8938  0.4553  0.2315
   88MOL   C38047534   0.833   0.083   5.443  0.1684  0.1783 -0.1671
   88MOL   C38147535   0.686   0.130   5.414  0.3752 -0.0327 -0.3859
   88MOL   C38247536   0.678   0.266   5.351  0.4145  0.1931 -0.3552
   88MOL   C38347537   0.749   0.383   5.431 -0.3515  0.4080 -0.5443
   88MOL   C38447538   0.705   0.522   5.382 -0.3512 -0.7496  0.3442
   88MOL   O38547539   0.565   0.539   5.403  0.1505 -0.2247  0.2935
   88MOL   C38647540   0.517   0.668   5.413 -0.1395  0.8278  0.1704
   88MOL   O38747541   0.582   0.772   5.411 -0.3251  0.3354  0.2623
   88MOL   C38847542   0.361   0.668   5.424 -0.0149 -0.1108  1.2102
   88MOL   C38947543   0.311   0.811   5.398  1.0037 -0.5162  0.4476
   88MOL   C39047544   0.339   0.620   5.575  0.1747  0.4175 -0.2666
   88MOL   H39147545   0.880   0.150   5.515  0.1560 -0.5538  0.5198
   88MOL   H39247546   0.838   7.798   5.487  0.5106 -0.4329 -1.5445
   88MOL   H39347547   0.896   0.076   5.355  0.7843 -0.4102  0.3166
   88MOL   H39447548   0.628   0.133   5.506 -0.9210 -0.7034 -1.1557
   88MOL   H39547549   0.641   0.057   5.347  0.3767 -0.6020  0.2334
   88MOL   H39647550   0.715   0.251   5.250 -2.1804 -0.3892 -1.2616
   88MOL   H39747551   0.574   0.296   5.338  0.3735  1.0234  1.7249
   88MOL   H39847552   0.718   0.369   5.534 -0.3672 -2.3276 -0.8730
   88MOL   H39947553   0.857   0.367   5.428 -0.6740 -3.3264  3.3280
   88MOL   H40047554   0.716   0.534   5.274 -0.7406  1.5491  0.5231
   88MOL   H40147555   0.764   0.601   5.430 -0.5015 -0.5058  0.1314
   88MOL   H40247556   0.342   0.890   5.466  1.2038  0.0555 -0.2971
   88MOL   H40347557   0.203   0.803   5.396  1.0897 -1.6293 -0.9620
   88MOL   H40447558   0.340   0.845   5.298 -0.7804  2.7228  0.9680
   88MOL   H40547559   0.396   0.530   5.595 -1.6937 -0.4890  1.1574
   88MOL   H40647560   0.235   0.587   5.578  0.0513  0.8301  0.2322
   88MOL   C40747561   0.206   7.723   6.008  0.5815  0.2895  0.4176
   88MOL   C40847562   0.178   0.022   5.911 -0.1164 -1.1194 -0.5677
   88MOL   C40947563   0.223   0.153   5.973  0.2191  0.0716 -0.0401
   88MOL   C41047564   0.209   0.273   5.879  0.1124 -0.5655 -0.0457
   88MOL   C41147565   0.219   0.411   5.931  0.1508 -0.5630  0.4525
   88MOL   O41247566   0.239   0.504   5.826  0.2699  0.2828  0.1723
   88MOL   C41347567   0.356   0.581   5.822  0.0476  0.4262 -1.0435
   88MOL   O41447568   0.449   0.554   5.901 -1.1175 -0.4726 -0.3976
   88MOL   C41547569   0.356   0.696   5.712 -0.7029 -0.0848 -0.7160
   88MOL   C41647570   0.499   0.758   5.719  0.4329 -0.1944 -0.1977
   88MOL   C41747571   0.229   0.787   5.736 -0.3289 -0.2224  0.0543
   88MOL   H41847572   0.311   7.708   6.032  0.0766 -2.9671  0.8040
   88MOL   H41947573   0.144   7.742   6.095  0.9787  1.3041  0.4776
   88MOL   H42047574   0.160   7.631   5.972 -0.1440  0.4293  0.9805
   88MOL   H42147575   0.071   0.027   5.890 -0.4046  1.8035  1.3842
   88MOL   H42247576   0.223   0.014   5.812  1.0155  0.2477 -0.1720
   88MOL   H42347577   0.162   0.169   6.062  0.7616 -0.0123  0.3488
   88MOL   H42447578   0.325   0.151   6.012  0.6074 -3.1111 -1.0867
   88MOL   H42547579   0.122   0.273   5.814 -0.6373  1.3140  0.8942
   88MOL   H42647580   0.302   0.271   5.823  0.0997  1.7911 -0.1823
   88MOL   H42747581   0.124   0.434   5.979  1.2924 -0.9747  2.9655
   88MOL   H42847582   0.290   0.415   6.013 -1.0853  0.5988  1.4873
   88MOL   H42947583   0.528   0.784   5.821  1.6289 -0.2639 -0.5137
   88MOL   H43047584   0.503   0.844   5.653  0.4809 -1.9531 -2.5380
   88MOL   H43147585   0.580   0.691   5.689  0.6056  0.6502 -1.6498
   88MOL   H43247586   0.144   0.719   5.735  0.9681 -1.8750 -0.6472
   88MOL   H43347587   0.209   0.840   5.644 -0.5394  0.0842  0.2748
   88MOL   C43447588   0.517   1.449   5.280  0.0137 -0.2470 -0.4566
   88MOL   C43547589   0.518   1.315   5.359  0.3353  0.0922 -0.0671
   88MOL   C43647590   0.400   1.320   5.460 -0.3579  1.4856  0.0768
   88MOL   C43747591   0.408   1.197   5.544  0.1244  0.0661  0.5102
   88MOL   C43847592   0.297   1.204   5.651  0.1459  0.1992 -0.1715
   88MOL   O43947593   0.263   1.071   5.695 -0.0410 -0.6464 -0.0425
   88MOL   C44047594   0.309   1.017   5.807  0.6049 -0.2311 -0.3113
   88MOL   O44147595   0.399   1.065   5.877 -0.3674 -0.0237  0.1023
   88MOL   C44247596   0.218   0.895   5.845 -0.2540  0.2859  0.0290
   88MOL   C44347597   0.265   0.850   5.989  0.1501 -0.8012 -0.2600
   88MOL   C44447598   0.071   0.942   5.846 -0.1589  0.5641 -0.5043
   88MOL   H44547599   0.420   1.466   5.232 -0.5841 -1.2375  0.3874
   88MOL   H44647600   0.538   1.535   5.343 -0.0152  0.9704 -2.0514
   88MOL   H44747601   0.596   1.447   5.205 -0.6517 -3.0492 -1.1420
   88MOL   H44847602   0.497   1.240   5.283 -3.3778  0.5815  0.3796
   88MOL   H44947603   0.617   1.297   5.402  0.0537  2.5809  1.7711
   88MOL   H45047604   0.413   1.414   5.514 -2.1120  1.6947  0.1509
   88MOL   H45147605   0.308   1.320   5.402 -1.8753 -1.8050  2.3239
   88MOL   H45247606   0.502   1.175   5.594  1.3640  2.5156 -0.6506
   88MOL   H45347607   0.381   1.112   5.482  0.5513 -0.1372  0.6018
   88MOL   H45447608   0.213   1.243   5.593  0.9103  1.5523 -0.3865
   88MOL   H45547609   0.310   1.269   5.738  1.5673  0.8961 -0.8981
   88MOL   H45647610   0.261   0.933   6.060  0.4328  1.2991 -2.6189
   88MOL   H45747611   0.209   0.772   6.040 -1.5366 -0.0823 -1.0009
   88MOL   H45847612   0.365   0.805   5.987 -0.0454 -1.2060 -2.1741
   88MOL   H45947613   0.050   0.997   5.754 -0.8491  0.6404 -0.3022
   88MOL   H46047614   0.080   1.029   5.912  0.0580 -1.2301  1.8889
   88MOL   C46147615   0.353   1.356   6.123  0.1119 -0.1511 -0.1041
   88MOL   C46247616   0.295   1.246   6.224 -0.1395 -0.2965 -0.5882
   88MOL   C46347617   0.156   1.199   6.184 -0.0215 -0.5182  0.4731
   88MOL   C46447618   0.082   1.108   6.282 -0.4339 -0.2306  0.7789
   88MOL   C46547619   7.758   1.075   6.233  0.4821 -0.0053  0.1536
   88MOL   O46647620   7.751   1.031   6.099  0.0887  0.0551  0.0966
   88MOL   C46747621   7.770   0.901   6.075 -0.0282 -0.0379  0.7128
   88MOL   O46847622   7.789   0.808   6.154 -0.6452  0.0955 -0.3335
   88MOL   C46947623   7.764   0.870   5.916  0.0320 -0.3405 -0.5049
   88MOL   C47047624   7.769   0.714   5.886  0.3200  0.0460 -0.6972
   88MOL   C47147625   7.627   0.926   5.850 -0.6260 -0.5962  0.6729
   88MOL   H47247626   0.277   1.429   6.096  0.8259 -0.3940 -2.9059
   88MOL   H47347627   0.406   1.312   6.039 -1.4086 -2.4314  0.0820
   88MOL   H47447628   0.426   1.406   6.187  0.0602 -0.9612  0.5983
   88MOL   H47547629   0.296   1.286   6.325 -1.1885 -0.1383 -0.6352
   88MOL   H47647630   0.359   1.158   6.225 -0.5747 -0.6229 -1.0660
   88MOL   H47747631   0.158   1.140   6.093  0.0197 -0.2063  0.2710
   88MOL   H47847632   0.097   1.289   6.168  2.4138  1.0475  0.0430
   88MOL   H47947633   0.076   1.139   6.387 -1.7370 -0.4110  0.7702
   88MOL   H48047634   0.143   1.019   6.292 -1.1363 -0.7610  0.4077
   88MOL   H48147635   7.702   1.011   6.302  1.8008 -0.2076  1.0599
   88MOL   H48247636   7.696   1.165   6.228  0.7269  0.3366  2.6907
   88MOL   H48347637   7.758   0.715   5.778 -0.7196  0.0868 -0.5888
   88MOL   H48447638   7.689   0.651   5.925  0.7740 -0.6216 -0.8434
   88MOL   H48547639   0.046   0.672   5.930 -0.0387  0.3135  0.3099
   88MOL   H48647640   7.656   0.921   5.745 -2.1094 -0.7009  0.2511
   88MOL   H48747641   7.622   1.034   5.865 -0.3059 -0.2311 -1.7076
   88MOL   C48847642   7.530   1.292   6.429  0.4067 -0.4475  0.0605
   88MOL   C48947643   7.376   1.288   6.395 -0.4170  0.4801 -0.1769
   88MOL   C49047644   7.348   1.190   6.278 -0.3080  0.0002 -1.0229
   88MOL   C49147645   7.378   1.259   6.145 -0.1926  0.2866 -0.1963
   88MOL   C49247646   7.328   1.173   6.022 -0.0450 -0.3658  0.1027
   88MOL   O49347647   7.414   1.067   5.987  0.0698  0.5625 -0.3413
   88MOL   C49447648   7.384   0.976   5.890  0.0481 -0.7597 -0.1668
   88MOL   O49547649   7.278   0.983   5.834  0.1609  0.0767  1.0623
   88MOL   C49647650   7.480   0.863   5.874 -0.3693  0.2835 -0.0727
   88MOL   C49747651   7.472   0.796   6.014  0.1987  0.1677 -0.5023
   88MOL   C49847652   7.438   0.748   5.772 -0.5818 -0.2567 -0.2811
   88MOL   H49947653   7.548   1.323   6.532  0.5365  0.2690 -0.1785
   88MOL   H50047654   7.581   1.197   6.415 -0.4738 -0.5915 -2.3974
   88MOL   H50147655   7.583   1.364   6.367  0.5082  0.8044  1.5819
   88MOL   H50247656   7.346   1.387   6.359 -0.8808  1.4358  2.7485
   88MOL   H50347657   7.324   1.250   6.483 -1.2070 -2.4393 -1.8148
   88MOL   H50447658   7.404   1.098   6.293 -1.3430 -0.6252 -0.9871
   88MOL   H50547659   7.242   1.166   6.281 -0.2119 -0.2493  2.9761
   88MOL   H50647660   7.483   1.287   6.136 -0.5903  1.7105 -0.5356
   88MOL   H50747661   7.318   1.349   6.137 -0.0807  0.3790 -0.0021
   88MOL   H50847662   7.228   1.136   6.046 -0.5535  0.9695  0.1163
   88MOL   H50947663   7.317   1.230   5.929  1.0957  0.3643  0.4010
   88MOL   H51047664   7.368   0.771   6.035  0.0374  0.4153 -0.9793
   88MOL   H51147665   7.490   0.868   6.093  0.8419 -1.0462  0.4625
   88MOL   H51247666   7.534   0.706   6.019  0.3354  0.2945  0.0714
   88MOL   H51347667   7.335   0.733   5.805 -0.2971  0.1252  0.7826
   88MOL   H51447668   7.482   0.650   5.790 -1.5797 -0.5755  0.4506
   88MOL   C51547669   7.656   0.074   5.651 -0.5513  0.3489 -0.1916
   88MOL   C51647670   7.706   0.166   5.544  0.5439  0.0026  1.0808
   88MOL   C51747671   7.703   0.309   5.590 -0.5944  0.8288  0.5541
   88MOL   C51847672   7.718   0.404   5.470  1.2255  0.4936 -0.0011
   88MOL   C51947673   7.734   0.549   5.508 -0.3961 -0.2201 -0.3161
   88MOL   O52047674   7.609   0.596   5.570  0.2906 -0.3225 -0.2935
   88MOL   C52147675   7.584   0.720   5.559  0.1713  0.1130 -0.8514
   88MOL   O52247676   7.666   0.804   5.514 -0.1776 -0.3364  0.0077
   88MOL   C52347677   7.446   0.769   5.618  0.9954  0.6727  0.3645
   88MOL   C52447678   7.416   0.916   5.570  0.1535  0.4283  0.0661
   88MOL   C52547679   7.340   0.691   5.541 -0.3058  0.2893  0.1533
   88MOL   H52647680   7.679   7.786   5.620 -2.8359  0.1466 -1.3569
   88MOL   H52747681   7.718   0.095   5.738 -2.3378 -0.6617  1.3808
   88MOL   H52847682   7.551   0.091   5.673 -0.3631  0.6415  0.5110
   88MOL   H52947683   7.803   0.142   5.502 -0.6995 -2.9382 -0.3179
   88MOL   H53047684   7.634   0.145   5.464  0.6176 -0.2590  1.0815
   88MOL   H53147685   7.607   0.323   5.640 -0.9245  1.6129 -0.2807
   88MOL   H53247686   7.774   0.341   5.667  1.3883  0.7197 -1.1973
   88MOL   H53347687   7.626   0.384   5.416  0.9324 -0.6143  0.8749
   88MOL   H53447688   7.793   0.379   5.395  1.2390 -0.8430  0.4396
   88MOL   H53547689   0.007   0.554   5.574 -2.1990 -0.2633  2.1119
   88MOL   H53647690   7.754   0.615   5.423  0.5057  1.8573  1.4655
   88MOL   H53747691   7.479   0.983   5.629  1.2561  0.1591 -0.7954
   88MOL   H53847692   7.309   0.930   5.584  0.0934  0.3855 -0.3479
   88MOL   H53947693   7.440   0.920   5.464 -0.3225  0.3383 -0.0453
   88MOL   H54047694   7.356   0.597   5.594 -0.1627 -1.2562 -2.5430
   88MOL   H54147695   7.353   0.673   5.434 -2.8814  2.6515 -0.6245
   88MOL   H54247696   7.235   0.715   5.560 -0.6715 -0.8834 -0.3326
   89MOL     C147697   3.566   5.085   3.096  0.1810 -0.1331 -1.0414
   89MOL     C247698   3.466   5.085   2.979  0.3279 -0.0340  0.0523
   89MOL     C347699   3.474   4.968   2.880  0.2244  0.3088  0.0841
   89MOL     C447700   3.387   4.971   2.757  0.2337 -0.5532 -0.2471
   89MOL     C547701   3.405   4.841   2.677  0.0302  0.0969  1.2755
   89MOL     O647702   3.518   4.873   2.588  0.0078  0.0165  0.2943
   89MOL     C747703   3.556   4.791   2.482 -0.3545 -0.2576  0.2187
   89MOL     O847704   3.514   4.670   2.460  0.9212  0.1020  0.8309
   89MOL     C947705   3.667   4.849   2.398 -0.3022 -0.2297  0.3449
   89MOL    C1047706   3.614   4.926   2.278 -0.3442 -0.2508 -0.5585
   89MOL    C1147707   3.776   4.747   2.357 -0.3242 -0.3283 -1.1146
   89MOL    H1247708   3.533   5.005   3.162 -0.0365 -0.4979 -1.5891
   89MOL    H1347709   3.561   5.175   3.157  0.8826 -1.2220  0.6466
   89MOL    H1447710   3.669   5.068   3.066  0.7407 -1.0909  1.3438
   89MOL    H1547711   3.366   5.089   3.023  0.2374  0.0094 -0.1536
   89MOL    H1647712   3.485   5.183   2.934  1.7492 -2.2523 -4.4611
   89MOL    H1747713   3.580   4.974   2.857  0.5459  1.9402  1.7987
   89MOL    H1847714   3.470   4.881   2.944  1.2969  1.8355  2.2904
   89MOL    H1947715   3.413   5.059   2.699  0.1358  0.9626  1.9735
   89MOL    H2047716   3.282   4.991   2.778  0.4093 -0.1566  0.2586
   89MOL    H2147717   3.445   4.763   2.742  1.0984 -0.0409  0.4816
   89MOL    H2247718   3.315   4.807   2.627 -0.0273  2.1058 -0.0499
   89MOL    H2347719   3.696   4.954   2.212 -0.4736  0.9397 -0.2217
   89MOL    H2447720   3.545   5.004   2.310  0.4703  0.7641 -1.2470
   89MOL    H2547721   3.540   4.864   2.226 -0.2450 -0.7129 -0.1481
   89MOL    H2647722   3.815   4.767   2.257 -0.2555  0.8968 -0.8545
   89MOL    H2747723   3.731   4.652   2.331 -1.7114 -0.5769  2.0300
   89MOL    H2847724   3.719   4.919   2.463  0.3834 -0.4215  0.0091
   89MOL    C2947725   3.820   5.215   2.871 -0.9107 -0.4095 -0.1227
   89MOL    C3047726   3.894   5.298   2.762  0.1362  0.1142  0.0622
   89MOL    C3147727   3.901   5.216   2.634 -0.2405  0.6756  0.2066
   89MOL    C3247728   4.039   5.143   2.621  0.4984 -0.2460  0.0927
   89MOL    C3347729   4.056   5.054   2.498 -0.3282  0.4945 -0.1091
   89MOL    O3447730   3.970   4.943   2.510 -0.3589  0.6826  0.3212
   89MOL    C3547731   3.999   4.838   2.430  0.5096  0.1726 -0.5100
   89MOL    O3647732   4.087   4.842   2.349  0.0159 -0.4599  0.0239
   89MOL    C3747733   3.902   4.719   2.443  0.1654  0.3514  0.1857
   89MOL    C3847734   3.966   4.589   2.379 -0.1508 -0.1905 -0.1786
   89MOL    C3947735   3.854   4.700   2.590 -0.1360  0.0939 -0.3705
   89MOL    H4047736   3.871   5.127   2.908  1.7989  0.6826 -1.1218
   89MOL    H4147737   3.805   5.258   2.970 -2.2456  0.6197 -0.7422
   89MOL    H4247738   3.717   5.199   2.836  0.0070 -1.1897 -2.5951
   89MOL    H4347739   3.992   5.316   2.806  0.0821  0.1492  0.1678
   89MOL    H4447740   3.833   5.387   2.746  1.6478  1.3026  0.8349
   89MOL    H4547741   3.885   5.282   2.549 -2.1406 -0.8192 -0.6242
   89MOL    H4647742   3.820   5.144   2.621  0.0327  0.0172  2.0113
   89MOL    H4747743   4.116   5.219   2.634  0.0643 -0.0362  1.5193
   89MOL    H4847744   4.054   5.084   2.712 -0.7518  1.0180  1.1454
   89MOL    H4947745   4.156   5.012   2.503 -0.4149  0.5560  3.6370
   89MOL    H5047746   4.037   5.106   2.404 -1.4359 -0.0948 -0.2205
   89MOL    H5147747   3.908   4.503   2.414 -0.2219 -0.0686  0.0000
   89MOL    H5247748   4.071   4.579   2.405  0.1166 -1.4132 -1.6169
   89MOL    H5347749   3.954   4.590   2.270 -1.6481 -0.7914 -0.0418
   89MOL    H5447750   3.769   4.631   2.593 -1.0368  1.1420 -1.4993
   89MOL    H5547751   3.820   4.798   2.621  0.1522 -0.4204  1.6346
   89MOL    C5647752   3.793   4.043   2.447 -0.2511 -0.0085  0.0789
   89MOL    C5747753   3.928   4.103   2.416  0.4292  0.3080 -0.2877
   89MOL    C5847754   3.974   4.205   2.522 -0.4181 -0.2575  0.0977
   89MOL    C5947755   4.121   4.254   2.488 -0.3930 -0.7203 -0.4004
   89MOL    C6047756   4.168   4.346   2.608  0.0486  0.9267  0.5849
   89MOL    O6147757   4.100   4.475   2.605  0.2633 -0.1958 -0.2955
   89MOL    C6247758   3.999   4.502   2.691 -0.0819  0.5058  0.5246
   89MOL    O6347759   3.943   4.410   2.749 -0.1914  0.0427  0.0905
   89MOL    C6447760   3.951   4.652   2.709  0.0567 -0.5017 -0.1094
   89MOL    C6547761   3.851   4.650   2.832 -0.8360 -0.2479  0.2007
   89MOL    C6647762   4.064   4.749   2.738  0.0645 -0.3790  0.6925
   89MOL    H6747763   3.809   3.936   2.441 -0.2577  0.1267 -3.0246
   89MOL    H6847764   3.716   4.070   2.375 -0.8588 -0.5392  0.5197
   89MOL    H6947765   3.754   4.073   2.545 -0.3803 -0.9506  0.3170
   89MOL    H7047766   4.002   4.024   2.421  2.2417  2.0577  1.1996
   89MOL    H7147767   3.923   4.154   2.320  2.2163  0.6578 -0.2073
   89MOL    H7247768   3.905   4.289   2.516  1.3820  1.1108 -2.5169
   89MOL    H7347769   3.958   4.159   2.619  0.7369 -2.4971 -0.7351
   89MOL    H7447770   4.131   4.316   2.399 -1.0094  1.5819  1.0746
   89MOL    H7547771   4.192   4.173   2.474 -1.0001 -1.4171  0.5684
   89MOL    H7647772   4.155   4.292   2.701 -1.2462  0.0425 -0.1001
   89MOL    H7747773   4.276   4.359   2.594  0.0228 -0.7123 -1.3811
   89MOL    H7847774   3.814   4.748   2.862  0.1452  1.0127 -2.5422
   89MOL    H7947775   3.892   4.596   2.918 -1.1737  0.2335  0.6644
   89MOL    H8047776   3.771   4.577   2.818 -0.7115 -0.3038 -0.2338
   89MOL    H8147777   4.010   4.844   2.736  0.4983 -0.1431 -1.8096
   89MOL    H8247778   4.125   4.750   2.647  1.2466  1.0897  1.4698
   89MOL    C8347779   4.350   4.657   2.238  0.1735 -0.4907  0.2787
   89MOL    C8447780   4.472   4.701   2.319  0.3565 -0.6265 -0.2182
   89MOL    C8547781   4.431   4.792   2.438 -0.3846  0.4891  0.0471
   89MOL    C8647782   4.517   4.763   2.560 -0.2547 -0.2062 -0.1093
   89MOL    C8747783   4.458   4.843   2.673  0.5750 -0.2822  0.1284
   89MOL    O8847784   4.357   4.766   2.736  0.6025 -0.2412  0.2648
   89MOL    C8947785   4.285   4.825   2.832  0.4718 -0.1269 -0.3386
   89MOL    O9047786   4.308   4.932   2.893  0.3288  0.0103 -0.0855
   89MOL    C9147787   4.155   4.751   2.868 -0.1201 -0.6168  0.4925
   89MOL    C9247788   4.077   4.825   2.981  0.3280 -0.4594 -0.6685
   89MOL    C9347789   4.188   4.600   2.910  0.8683 -0.3180  0.5078
   89MOL    H9447790   4.283   4.740   2.215  0.3897 -1.2150 -3.2833
   89MOL    H9547791   4.395   4.616   2.147  0.3778  0.0045  0.1539
   89MOL    H9647792   4.309   4.575   2.298 -0.4301 -0.6376 -0.3259
   89MOL    H9747793   4.550   4.750   2.261  0.6666 -0.4015  0.3787
   89MOL    H9847794   4.523   4.609   2.346 -1.1405 -1.5346 -0.4824
   89MOL    H9947795   4.327   4.769   2.461 -0.7112  0.2020 -1.6186
   89MOL   H10047796   4.426   4.895   2.402  0.0527 -0.0778 -1.6839
   89MOL   H10147797   4.616   4.799   2.531 -0.9129  0.4194 -1.6441
   89MOL   H10247798   4.535   4.659   2.584 -3.1341 -0.6175  0.4519
   89MOL   H10347799   4.415   4.936   2.636 -1.2224  0.2610  3.4272
   89MOL   H10447800   4.528   4.877   2.750 -0.2839  1.8694 -0.0188
   89MOL   H10547801   3.991   4.770   3.020  0.3711 -0.4856 -0.6124
   89MOL   H10647802   4.050   4.928   2.958 -1.0774 -0.4365  1.0448
   89MOL   H10747803   4.136   4.835   3.072  0.1885  0.9117 -0.7219
   89MOL   H10847804   4.088   4.557   2.921 -0.0982  1.5062 -0.8174
   89MOL   H10947805   4.233   4.546   2.827 -0.0793 -0.4471  0.0691
   89MOL   C11047806   5.041   4.748   2.714  0.3953  0.5850  0.5321
   89MOL   C11147807   4.891   4.716   2.727  0.6206 -0.1924 -0.4782
   89MOL   C11247808   4.847   4.673   2.864  0.5209  0.6916 -0.9062
   89MOL   C11347809   4.697   4.631   2.875  0.1679  0.3718 -0.2292
   89MOL   C11447810   4.656   4.569   3.005 -0.5069  0.7956 -0.4778
   89MOL   O11547811   4.524   4.523   3.002  0.2108 -0.3845 -0.5875
   89MOL   C11647812   4.424   4.606   3.030  0.1049  0.1990  0.0892
   89MOL   O11747813   4.445   4.721   3.067 -0.1575  0.1664 -0.5471
   89MOL   C11847814   4.280   4.547   3.031  0.2611 -0.0810  0.3759
   89MOL   C11947815   4.288   4.400   3.024  0.2704  0.1663 -0.6765
   89MOL   C12047816   4.210   4.585   3.166  0.1758 -0.9587 -0.2093
   89MOL   H12147817   5.054   4.856   2.727  0.9294  0.7581 -1.3782
   89MOL   H12247818   5.104   4.690   2.781 -2.0176  1.6028  3.8506
   89MOL   H12347819   5.083   4.713   2.620 -0.8588 -0.7302  0.4386
   89MOL   H12447820   4.834   4.799   2.688  0.4051  0.0829  0.4196
   89MOL   H12547821   4.872   4.637   2.654 -1.9436  1.9817 -2.2314
   89MOL   H12647822   4.906   4.584   2.884 -0.3369  0.1983 -0.5414
   89MOL   H12747823   4.882   4.744   2.939 -1.6224 -0.7032  1.5146
   89MOL   H12847824   4.680   4.563   2.792 -2.3734  1.1942 -0.4168
   89MOL   H12947825   4.639   4.720   2.851 -2.4746 -0.5477  2.3337
   89MOL   H13047826   4.722   4.485   3.025  0.2307  1.3492 -0.5586
   89MOL   H13147827   4.677   4.640   3.086 -1.5728  0.2140  0.3234
   89MOL   H13247828   4.192   4.356   3.050  0.3426 -0.9757 -2.2836
   89MOL   H13347829   4.321   4.364   2.926 -3.3991 -3.4910 -0.7100
   89MOL   H13447830   4.359   4.368   3.100 -0.6502  0.0446  0.1393
   89MOL   H13547831   4.217   4.693   3.183 -2.2757 -0.3836 -2.4876
   89MOL   H13647832   4.104   4.573   3.147  0.5443 -1.0124 -2.3852
   89MOL   C13747833   3.591   4.244   3.131  0.9006  0.0765 -0.5799
   89MOL   C13847834   3.647   4.109   3.183 -0.6620  0.2785  0.4905
   89MOL   C13947835   3.799   4.108   3.168 -0.5370 -0.4084  0.5560
   89MOL   C14047836   3.876   4.241   3.216  0.3205  0.4719  0.4115
   89MOL   C14147837   4.024   4.228   3.262 -0.5219  0.1064  0.3282
   89MOL   O14247838   4.080   4.362   3.284  1.0981 -0.0265  0.7472
   89MOL   C14347839   4.203   4.381   3.314  0.3545  0.7391 -0.1124
   89MOL   O14447840   4.287   4.293   3.337 -0.0994  0.8665  0.2385
   89MOL   C14547841   4.250   4.526   3.305  0.9049  0.0228  0.1029
   89MOL   C14647842   4.401   4.536   3.328 -0.0957 -1.2337  0.3119
   89MOL   C14747843   4.178   4.622   3.417 -0.7379 -0.0953 -0.4928
   89MOL   H14847844   3.485   4.259   3.113  0.5938 -1.4951 -0.1243
   89MOL   H14947845   3.631   4.267   3.032 -1.0626  0.1976 -1.3804
   89MOL   H15047846   3.618   4.319   3.205  1.6095  1.8627 -2.5770
   89MOL   H15147847   3.589   4.041   3.121 -0.5632 -0.9409  1.6915
   89MOL   H15247848   3.614   4.089   3.286  0.1685 -1.0907  0.5124
   89MOL   H15347849   3.841   4.029   3.231 -0.0309  1.7188  2.9779
   89MOL   H15447850   3.841   4.069   3.075 -3.5792  1.8653 -1.8409
   89MOL   H15547851   3.890   4.309   3.132  0.5087  1.7416  1.4625
   89MOL   H15647852   3.808   4.292   3.284 -1.4271 -0.8821 -0.2677
   89MOL   H15747853   4.074   4.167   3.187 -0.5219  0.6013 -0.0817
   89MOL   H15847854   4.035   4.173   3.355  3.1038  0.9233  0.4710
   89MOL   H15947855   4.440   4.496   3.422  1.1185 -1.3573 -0.2409
   89MOL   H16047856   4.432   4.640   3.324 -0.4827 -1.1388 -0.1638
   89MOL   H16147857   4.467   4.473   3.268  1.2429 -1.5671  2.0730
   89MOL   H16247858   4.185   4.728   3.388  3.6594  0.3358  1.7110
   89MOL   H16347859   4.074   4.602   3.392 -1.0430  2.9169 -1.9406
   89MOL   C16447860   4.614   5.096   4.045 -0.5900  0.4239 -0.4616
   89MOL   C16547861   4.677   5.047   3.913 -0.2066 -0.5720  0.1077
   89MOL   C16647862   4.648   4.899   3.884 -0.7888 -0.0852 -0.2978
   89MOL   C16747863   4.517   4.855   3.844  0.5392  0.4252  0.1201
   89MOL   C16847864   4.509   4.709   3.792  0.3249  0.2604  0.3273
   89MOL   O16947865   4.380   4.665   3.745 -0.3985 -0.4564 -0.1028
   89MOL   C17047866   4.337   4.693   3.619 -0.8606 -0.3069  0.2342
   89MOL   O17147867   4.399   4.765   3.545  0.0916  0.1901  0.2204
   89MOL   C17247868   4.204   4.623   3.580  0.6868 -0.1579 -0.2142
   89MOL   C17347869   4.217   4.471   3.631 -0.3319  0.0499  0.1029
   89MOL   C17447870   4.087   4.680   3.670  0.1488  0.0704  0.3714
   89MOL   H17547871   4.506   5.081   4.047 -0.5060 -0.4023 -1.6764
   89MOL   H17647872   4.633   5.203   4.055 -0.5767  0.2379  1.5607
   89MOL   H17747873   4.648   5.050   4.137 -1.0317 -0.9335 -0.9590
   89MOL   H17847874   4.784   5.065   3.926 -0.4954 -0.8356  3.1383
   89MOL   H17947875   4.647   5.103   3.824 -0.8684 -0.7408  0.2239
   89MOL   H18047876   4.723   4.859   3.815 -0.4756 -3.4951  1.8951
   89MOL   H18147877   4.673   4.843   3.974  0.0864 -0.0623 -0.5255
   89MOL   H18247878   4.484   4.915   3.759 -0.8843  2.9468  2.3499
   89MOL   H18347879   4.439   4.874   3.917 -1.4948 -1.3094 -1.5584
   89MOL   H18447880   4.520   4.632   3.869  0.2981  2.2327  2.3514
   89MOL   H18547881   4.585   4.690   3.717  1.1226 -0.2079  1.2352
   89MOL   H18647882   4.309   4.430   3.589 -0.6605 -0.5033 -0.0798
   89MOL   H18747883   4.132   4.411   3.599  0.4468 -1.2343  0.3819
   89MOL   H18847884   4.227   4.470   3.739  1.2016 -0.0601 -0.0231
   89MOL   H18947885   4.013   4.602   3.651 -0.3023  0.8088 -0.9863
   89MOL   H19047886   4.111   4.679   3.776 -2.4980  0.3250  1.0152
   89MOL   C19147887   3.514   4.613   3.006  0.0513 -0.5120 -0.4271
   89MOL   C19247888   3.618   4.597   3.115  0.4226 -0.2305  0.4323
   89MOL   C19347889   3.674   4.739   3.161  0.2073  0.2482  0.1600
   89MOL   C19447890   3.799   4.717   3.244  0.2736 -0.0612 -0.3800
   89MOL   C19547891   3.858   4.842   3.298  0.5415 -0.0708  0.0739
   89MOL   O19647892   3.945   4.818   3.409 -0.0771  0.4926 -0.1220
   89MOL   C19747893   3.906   4.803   3.537 -0.4555  0.5887 -0.2267
   89MOL   O19847894   3.791   4.780   3.566  0.2212  0.1777 -0.0657
   89MOL   C19947895   4.020   4.819   3.643 -0.6119  0.3780 -0.6319
   89MOL   C20047896   4.111   4.933   3.583 -0.1640 -0.8037  0.2395
   89MOL   C20147897   3.950   4.860   3.784  0.0870  0.0346  0.5950
   89MOL   H20247898   3.490   4.519   2.955  3.8941 -0.6816 -2.1194
   89MOL   H20347899   3.429   4.668   3.047 -1.0091 -0.9348 -1.9905
   89MOL   H20447900   3.563   4.667   2.925  2.2242 -0.6621  0.7695
   89MOL   H20547901   3.690   4.538   3.058 -0.2734 -1.1160  0.4654
   89MOL   H20647902   3.577   4.536   3.195  0.0281 -1.3610 -0.6067
   89MOL   H20747903   3.600   4.797   3.216 -0.1183  0.7112 -0.7546
   89MOL   H20847904   3.703   4.794   3.072 -1.1026  0.6066 -0.0580
   89MOL   H20947905   3.777   4.658   3.332 -1.1929  1.7396  0.5028
   89MOL   H21047906   3.875   4.662   3.188 -0.1662 -0.0148 -1.0415
   89MOL   H21147907   3.919   4.874   3.213 -1.5714  0.4390 -1.3013
   89MOL   H21247908   3.786   4.919   3.325  0.4152  0.0716 -0.6578
   89MOL   H21347909   4.199   4.938   3.648 -0.6142 -0.4354  0.8329
   89MOL   H21447910   4.066   5.032   3.584  0.1047 -0.6732 -0.3793
   89MOL   H21547911   4.163   4.924   3.488  2.3713 -1.0044  1.5852
   89MOL   H21647912   3.911   4.773   3.838 -2.4720  1.9082  1.8320
   89MOL   H21747913   3.860   4.911   3.751  1.1377  0.9541 -0.8763
   89MOL   C21847914   3.902   5.195   3.274 -0.3854  0.4447  0.1120
   89MOL   C21947915   3.998   5.257   3.378 -0.0462 -0.0353 -1.5518
   89MOL   C22047916   3.921   5.285   3.507 -0.1796 -0.0832  0.4441
   89MOL   C22147917   4.006   5.322   3.630 -0.1864  0.7916  0.0248
   89MOL   C22247918   3.953   5.288   3.772  0.3557  0.3826 -0.0318
   89MOL   O22347919   3.935   5.151   3.796  0.0258 -0.0129  0.6190
   89MOL   C22447920   4.046   5.086   3.835  0.4661  0.4196  0.9794
   89MOL   O22547921   4.163   5.134   3.841  0.2584  0.7039 -0.0483
   89MOL   C22647922   4.021   4.947   3.887 -0.1159  0.6811  0.4164
   89MOL   C22747923   4.152   4.877   3.941 -0.0244 -0.3549  0.1183
   89MOL   C22847924   3.912   4.954   4.002 -0.1352 -0.6975 -0.6268
   89MOL   H22947925   3.809   5.162   3.319  1.2404 -1.9873  1.7970
   89MOL   H23047926   3.887   5.270   3.196  2.6758  0.1714 -0.8473
   89MOL   H23147927   3.938   5.106   3.222 -1.4854 -0.1209  0.3055
   89MOL   H23247928   4.047   5.348   3.342 -2.6835  1.6005 -1.1974
   89MOL   H23347929   4.072   5.180   3.396  0.4429  0.7042 -0.3059
   89MOL   H23447930   3.870   5.192   3.531  0.1481 -0.5762 -0.7392
   89MOL   H23547931   3.848   5.365   3.489 -0.1578 -0.0610  0.4537
   89MOL   H23647932   4.102   5.273   3.617 -0.2468  0.5834  0.3813
   89MOL   H23747933   4.009   5.430   3.644 -2.0036  0.8511  0.0502
   89MOL   H23847934   3.857   5.338   3.784  0.9409  1.0664  2.0925
   89MOL   H23947935   4.018   5.332   3.849  1.3221 -0.2591 -0.4700
   89MOL   H24047936   4.210   4.851   3.852  0.0475  0.2503 -0.0140
   89MOL   H24147937   4.134   4.789   4.002  1.1432 -0.9404 -0.3721
   89MOL   H24247938   4.220   4.936   4.003 -0.8815  0.1075  0.6360
   89MOL   H24347939   3.895   4.853   4.037  2.1244 -0.9507 -0.1791
   89MOL   H24447940   3.817   4.983   3.956 -0.0442  0.1671 -0.2841
   89MOL   C24547941   3.297   5.595   4.015 -0.1224 -0.4253  0.1294
   89MOL   C24647942   3.351   5.462   3.959 -0.0082 -0.5109  0.1963
   89MOL   C24747943   3.496   5.449   3.992  0.0315 -0.2404  0.2312
   89MOL   C24847944   3.555   5.311   3.997 -0.4934  0.9657  0.2802
   89MOL   C24947945   3.701   5.329   4.039 -0.3363  0.2719  0.6565
   89MOL   O25047946   3.758   5.196   4.055 -0.7123 -0.3415  1.0350
   89MOL   C25147947   3.883   5.189   4.106  0.1667  0.5214 -0.5965
   89MOL   O25247948   3.962   5.281   4.122  0.4556 -0.3499  0.0535
   89MOL   C25347949   3.924   5.040   4.132  0.7345 -0.4449 -0.0384
   89MOL   C25447950   4.066   5.042   4.198  0.3704  0.0004  0.1543
   89MOL   C25547951   3.828   4.981   4.236  0.0051  0.3226 -0.0702
   89MOL   H25647952   3.300   5.606   4.123  0.2159 -1.9498  0.2894
   89MOL   H25747953   3.344   5.680   3.965 -0.8153  1.2692  2.2577
   89MOL   H25847954   3.189   5.604   3.999 -0.3777 -2.5534  0.4591
   89MOL   H25947955   3.296   5.375   3.996  0.1745 -1.5874 -1.9714
   89MOL   H26047956   3.339   5.470   3.850 -1.9914 -1.6157  0.2956
   89MOL   H26147957   3.512   5.485   4.094  0.5418  3.3384 -1.0551
   89MOL   H26247958   3.550   5.511   3.921  1.9867 -2.9518 -0.7311
   89MOL   H26347959   3.504   5.254   4.075  0.0115 -0.9547 -0.7537
   89MOL   H26447960   3.547   5.251   3.907  0.3218 -1.1972  1.6069
   89MOL   H26547961   3.758   5.393   3.971  1.3408 -0.9066  0.9316
   89MOL   H26647962   3.708   5.378   4.136  2.2197  2.0903 -0.3907
   89MOL   H26747963   4.141   5.089   4.134 -1.3613 -2.1751 -3.6714
   89MOL   H26847964   4.084   5.088   4.295  1.5589  0.8718 -0.4685
   89MOL   H26947965   4.094   4.939   4.218 -0.9818 -0.3571  0.2447
   89MOL   H27047966   3.734   4.999   4.183 -0.1390  0.3700  0.2000
   89MOL   H27147967   3.828   4.872   4.241  0.6474  0.1541 -2.8454
   89MOL   C27247968   4.306   4.436   4.798 -0.5202  0.3798  0.9774
   89MOL   C27347969   4.201   4.536   4.775 -0.4333 -0.4317 -0.4673
   89MOL   C27447970   4.211   4.602   4.629 -0.0332 -0.1254 -0.0380
   89MOL   C27547971   4.108   4.712   4.612  0.5765  0.3878  0.2150
   89MOL   C27647972   4.103   4.773   4.470 -0.1476  0.1533 -0.3310
   89MOL   O27747973   3.982   4.829   4.431  0.0667  0.1992 -0.4597
   89MOL   C27847974   3.952   4.950   4.470  0.8349 -0.3835 -0.1636
   89MOL   O27947975   4.008   4.999   4.566  0.0758 -0.0176  0.0259
   89MOL   C28047976   3.831   5.018   4.389  0.8473  0.6948 -0.0065
   89MOL   C28147977   3.830   5.173   4.413 -0.3360  0.1963  0.0581
   89MOL   C28247978   3.696   4.955   4.445  0.6001  0.5947  0.5560
   89MOL   H28347979   4.401   4.483   4.773 -0.3433 -1.1314 -1.2898
   89MOL   H28447980   4.298   4.393   4.898  0.3981 -2.3929 -0.0859
   89MOL   H28547981   4.296   4.341   4.746  0.2217 -0.1741  1.8401
   89MOL   H28647982   4.102   4.503   4.805 -2.1422  3.6378 -1.3455
   89MOL   H28747983   4.234   4.614   4.844 -0.3076 -1.5747  0.7906
   89MOL   H28847984   4.311   4.638   4.607 -0.3196 -0.6394 -2.3250
   89MOL   H28947985   4.185   4.535   4.547  0.4389 -0.7276  0.3072
   89MOL   H29047986   4.004   4.680   4.621  0.7074 -0.0704  0.1296
   89MOL   H29147987   4.126   4.786   4.690 -0.4824 -1.1958  2.0103
   89MOL   H29247988   4.128   4.695   4.398  0.8807  0.9777 -0.8710
   89MOL   H29347989   4.186   4.844   4.463  1.1223 -1.2557  0.0537
   89MOL   H29447990   3.741   5.218   4.368  0.5032  0.0051 -1.8407
   89MOL   H29547991   3.841   5.202   4.518 -1.8296 -1.1034  0.5983
   89MOL   H29647992   3.922   5.206   4.365  0.1680  0.5384  1.2483
   89MOL   H29747993   3.621   5.019   4.396 -1.6107 -1.6796  0.8808
   89MOL   H29847994   3.682   4.854   4.407  2.3564  0.9898 -1.2138
   89MOL   C29947995   3.531   4.977   5.211  0.9018  0.3908  0.2454
   89MOL   C30047996   3.540   4.829   5.191 -0.7993  0.3332  0.9468
   89MOL   C30147997   3.580   4.798   5.056 -0.6753 -0.3935  0.7849
   89MOL   C30247998   3.734   4.809   5.026 -0.6555  0.5357 -0.1168
   89MOL   C30347999   3.778   4.768   4.885 -1.0370 -0.2522 -0.4767
   89MOL   O30448000   3.748   4.870   4.794 -0.4105 -0.1589  0.0470
   89MOL   C30548001   3.731   4.835   4.668 -0.7906  0.3004 -0.1852
   89MOL   O30648002   3.754   4.730   4.608 -0.1875  0.5319  0.2437
   89MOL   C30748003   3.650   4.940   4.589 -0.2746 -0.2369 -0.6522
   89MOL   C30848004   3.671   5.077   4.662  0.1498 -0.0686  0.2485
   89MOL   C30948005   3.496   4.918   4.614  0.2295 -0.4618  0.3406
   89MOL   H31048006   3.509   5.012   5.312 -0.2360  0.3806  0.0077
   89MOL   H31148007   3.445   5.010   5.153  2.9484  2.1134 -1.9081
   89MOL   H31248008   3.621   5.035   5.190 -0.0299  1.7712 -0.0071
   89MOL   H31348009   3.448   4.776   5.215 -0.1386 -1.0126  0.6066
   89MOL   H31448010   3.609   4.788   5.265  1.8913  3.8701  0.5473
   89MOL   H31548011   3.533   4.864   4.984  1.3014 -0.2982 -0.4581
   89MOL   H31648012   3.545   4.698   5.028 -2.5959  0.5489 -0.2730
   89MOL   H31748013   3.801   4.748   5.086 -1.2040 -0.0191 -0.0670
   89MOL   H31848014   3.761   4.911   5.052  1.8648 -0.2224  0.3327
   89MOL   H31948015   3.887   4.759   4.880 -1.0330 -0.4412 -0.0525
   89MOL   H32048016   3.725   4.674   4.873  2.6829 -2.6963  1.4846
   89MOL   H32148017   3.633   5.160   4.603 -0.4532 -0.0941  0.5953
   89MOL   H32248018   3.627   5.092   4.761  0.3848  1.1353  0.1720
   89MOL   H32348019   3.776   5.102   4.681 -0.3503  1.9499  0.4123
   89MOL   H32448020   3.440   4.996   4.563 -0.8616 -1.2240  0.3265
   89MOL   H32548021   3.481   4.950   4.717 -2.6066  1.2786 -0.5442
   89MOL   C32648022   3.468   4.784   3.757 -0.1475  0.6525  1.1467
   89MOL   C32748023   3.511   4.855   3.883 -0.6476 -0.1884  0.2829
   89MOL   C32848024   3.385   4.888   3.960  0.2963 -0.8294  0.2384
   89MOL   C32948025   3.409   4.918   4.107 -0.5306  0.3190  0.1080
   89MOL   C33048026   3.387   4.802   4.203  0.5645 -0.4864 -0.2044
   89MOL   O33148027   3.388   4.837   4.340  0.2398  0.0418 -0.7167
   89MOL   C33248028   3.436   4.749   4.428 -0.4999 -0.0325  0.2729
   89MOL   O33348029   3.489   4.642   4.402 -0.3922 -0.5579 -0.1314
   89MOL   C33448030   3.412   4.787   4.580 -1.0054  0.1705 -0.2211
   89MOL   C33548031   3.447   4.674   4.672  0.2458 -0.3526  0.8845
   89MOL   C33648032   3.256   4.826   4.600  0.0970  0.8100  0.1151
   89MOL   H33748033   3.406   4.850   3.697 -2.6545 -2.7315 -0.2071
   89MOL   H33848034   3.413   4.694   3.787 -1.1619  0.6218 -0.7094
   89MOL   H33948035   3.555   4.749   3.702 -1.6807 -0.4792 -0.6623
   89MOL   H34048036   3.574   4.940   3.858 -1.4049  1.3542  3.3948
   89MOL   H34148037   3.573   4.791   3.947 -0.2655  1.0540  1.1690
   89MOL   H34248038   3.317   4.803   3.958  0.0465 -0.6545  1.2336
   89MOL   H34348039   3.334   4.970   3.910 -0.7433 -2.3414 -1.2464
   89MOL   H34448040   3.344   5.000   4.136  0.2845  1.6586 -1.6663
   89MOL   H34548041   3.510   4.957   4.122 -0.2806 -0.3680  0.1935
   89MOL   H34648042   3.475   4.741   4.178  0.2887 -0.5881 -0.9603
   89MOL   H34748043   3.295   4.748   4.177 -1.9875  3.7651 -0.3659
   89MOL   H34848044   3.444   4.690   4.780  1.6190 -0.7307  0.9821
   89MOL   H34948045   3.553   4.654   4.666  0.5228  0.3818  2.9379
   89MOL   H35048046   3.396   4.581   4.646 -0.0001 -0.2676  1.0547
   89MOL   H35148047   3.241   4.912   4.534  0.2339  0.4637 -0.3685
   89MOL   H35248048   3.243   4.880   4.694 -0.1608  1.2989 -0.1926
   89MOL   C35348049   3.234   4.733   5.466  0.1018  0.4314 -0.7499
   89MOL   C35448050   3.168   4.791   5.338 -0.1581 -0.2146  0.2267
   89MOL   C35548051   3.168   4.686   5.222 -0.2727  0.1086  0.5378
   89MOL   C35648052   3.130   4.746   5.088  0.0002 -0.2111  0.1541
   89MOL   C35748053   3.182   4.660   4.976 -0.2246 -0.1745 -0.4553
   89MOL   O35848054   3.145   4.719   4.846 -0.0574  0.0799 -0.3841
   89MOL   C35948055   3.152   4.638   4.733  0.0285 -0.2224 -0.2499
   89MOL   O36048056   3.162   4.516   4.722  0.0056 -0.1320 -0.2328
   89MOL   C36148057   3.134   4.728   4.609  0.1129 -0.0128  0.5703
   89MOL   C36248058   3.131   4.634   4.481  0.5340  0.4247  0.0370
   89MOL   C36348059   2.997   4.815   4.624  0.2053 -0.4815 -0.0395
   89MOL   H36448060   3.207   4.628   5.476  3.6645 -0.4958 -0.1542
   89MOL   H36548061   3.199   4.786   5.555 -0.8830 -0.6068 -0.5102
   89MOL   H36648062   3.341   4.732   5.446  0.2812  1.4207  0.1204
   89MOL   H36748063   3.067   4.829   5.357 -0.5669 -1.0711 -0.1944
   89MOL   H36848064   3.221   4.871   5.286  0.9585 -1.1969 -0.1404
   89MOL   H36948065   3.105   4.600   5.244  1.3245 -0.2012  4.4794
   89MOL   H37048066   3.273   4.657   5.222  0.7075  3.4403  0.2561
   89MOL   H37148067   3.167   4.848   5.080 -0.7486  0.1001  0.6571
   89MOL   H37248068   3.021   4.750   5.084 -0.0952  0.5483  2.7574
   89MOL   H37348069   3.288   4.636   4.980 -0.3835 -0.9404 -0.7635
   89MOL   H37448070   3.130   4.565   4.988 -1.5512  0.6375  0.3067
   89MOL   H37548071   3.217   4.567   4.474 -1.5288 -2.2043 -1.0926
   89MOL   H37648072   3.045   4.567   4.475  1.1530 -0.2589 -1.5289
   89MOL   H37748073   3.115   4.697   4.393  1.8905  1.2448  0.3608
   89MOL   H37848074   2.999   4.864   4.721 -0.0796 -0.4945 -0.0282
   89MOL   H37948075   3.018   4.879   4.538  0.2877  1.6909  1.5598
   89MOL   C38048076   2.376   4.595   3.936  0.2717 -0.3394 -0.6232
   89MOL   C38148077   2.383   4.629   4.085 -0.2595  0.4936 -0.7622
   89MOL   C38248078   2.515   4.579   4.152  0.5056  0.1303 -0.2375
   89MOL   C38348079   2.537   4.635   4.290  0.5581 -0.1414 -0.7652
   89MOL   C38448080   2.669   4.564   4.344 -0.2295  0.0419 -0.3472
   89MOL   O38548081   2.713   4.616   4.468 -0.0639 -0.6635  0.0791
   89MOL   C38648082   2.810   4.709   4.473  0.2785  0.1024  0.0942
   89MOL   O38748083   2.847   4.768   4.366  0.0629 -0.1190  0.0502
   89MOL   C38848084   2.855   4.751   4.622 -0.0994 -0.3264 -0.4799
   89MOL   C38948085   2.839   4.627   4.720  0.0377  0.0689 -0.0468
   89MOL   C39048086   2.757   4.869   4.653 -0.0468 -0.2150 -0.1815
   89MOL   H39148087   2.384   4.488   3.917 -1.7392 -0.6443  0.1389
   89MOL   H39248088   2.284   4.633   3.893 -1.2393  0.1908  2.9336
   89MOL   H39348089   2.447   4.660   3.884 -1.6459  0.7058 -1.9773
   89MOL   H39448090   2.293   4.590   4.132  0.3953 -0.7084 -0.4665
   89MOL   H39548091   2.379   4.737   4.093  1.2536  0.4659  0.6512
   89MOL   H39648092   2.520   4.471   4.163 -1.1511 -0.2303 -2.4932
   89MOL   H39748093   2.604   4.611   4.099  1.8336  0.7544  2.3226
   89MOL   H39848094   2.549   4.743   4.285  1.5831 -0.2463 -0.6985
   89MOL   H39948095   2.450   4.616   4.353 -0.1413 -0.1614 -1.7271
   89MOL   H40048096   2.744   4.580   4.267  0.0135 -0.0569 -0.1314
   89MOL   H40148097   2.662   4.455   4.343  4.2250 -0.3464 -0.4980
   89MOL   H40248098   2.853   4.659   4.823  0.2645  0.0686 -0.0766
   89MOL   H40348099   2.918   4.555   4.698  1.0683  0.4760  2.1687
   89MOL   H40448100   2.738   4.588   4.710  0.3277 -0.6566 -0.1807
   89MOL   H40548101   2.663   4.852   4.599  1.3863 -2.6482 -1.9908
   89MOL   H40648102   2.795   4.962   4.611  0.3199 -0.6536 -0.8194
   89MOL   C40748103   2.035   4.821   4.870 -0.5706  0.1620 -0.1979
   89MOL   C40848104   2.072   4.692   4.795 -0.1653 -0.2826  0.0607
   89MOL   C40948105   2.219   4.695   4.757 -0.6591  0.5370 -0.7311
   89MOL   C41048106   2.325   4.661   4.866 -0.0501 -0.5863 -0.6424
   89MOL   C41148107   2.473   4.645   4.817  0.0066 -0.7189  0.9266
   89MOL   O41248108   2.540   4.764   4.790  0.1924 -0.2763  0.3220
   89MOL   C41348109   2.634   4.816   4.867 -0.8873  0.7484 -0.5937
   89MOL   O41448110   2.663   4.776   4.980  0.3824  0.2548  0.1832
   89MOL   C41548111   2.708   4.924   4.797 -0.5956 -0.6679  0.0900
   89MOL   C41648112   2.830   4.962   4.879 -0.0225 -0.2479  0.0592
   89MOL   C41748113   2.623   5.054   4.767  0.5528  0.1218  0.1241
   89MOL   H41848114   2.044   4.907   4.803 -1.2096  0.0836 -0.3890
   89MOL   H41948115   1.930   4.828   4.899 -0.4707 -2.0082  0.8385
   89MOL   H42048116   2.107   4.828   4.951  0.0587 -2.3952 -0.5009
   89MOL   H42148117   2.012   4.679   4.705  2.2243 -1.1411 -1.4599
   89MOL   H42248118   2.042   4.608   4.857 -0.8749  0.4475  0.7130
   89MOL   H42348119   2.239   4.613   4.688  0.7793  0.4965 -0.2763
   89MOL   H42448120   2.247   4.789   4.710  2.2649 -0.0515 -0.2370
   89MOL   H42548121   2.302   4.563   4.908 -0.7170 -1.0219 -1.9991
   89MOL   H42648122   2.320   4.729   4.950 -0.1583 -0.8124 -0.4677
   89MOL   H42748123   2.533   4.579   4.880  0.1818 -1.1489  0.3128
   89MOL   H42848124   2.462   4.598   4.720  1.4987  1.0617 -0.1386
   89MOL   H42948125   2.890   5.038   4.828 -1.7048  1.1469  0.0994
   89MOL   H43048126   2.898   4.882   4.907 -2.1242 -0.9981  3.2748
   89MOL   H43148127   2.820   5.013   4.975  1.1150  1.2200 -0.5730
   89MOL   H43248128   2.536   5.013   4.715  1.0261 -1.7052  0.7497
   89MOL   H43348129   2.657   5.105   4.676  1.5859  0.0848  0.4787
   89MOL   C43448130   3.075   5.106   5.243 -0.2317 -0.1410 -0.6585
   89MOL   C43548131   3.011   5.240   5.206 -0.0562 -0.4570  0.4631
   89MOL   C43648132   2.865   5.246   5.258  0.5087 -0.1800  0.2477
   89MOL   C43748133   2.793   5.380   5.232 -0.0878  0.0101  0.8857
   89MOL   C43848134   2.753   5.411   5.087 -0.7427  0.2852 -0.1925
   89MOL   O43948135   2.673   5.306   5.040 -0.1813 -0.3439  0.3546
   89MOL   C44048136   2.687   5.260   4.913  0.6200  0.1277 -0.3001
   89MOL   O44148137   2.782   5.289   4.840  0.1364  0.6103  0.0675
   89MOL   C44248138   2.571   5.162   4.867 -0.1420 -0.4368 -0.6773
   89MOL   C44348139   2.525   5.087   4.993  0.1544  0.0939 -0.1611
   89MOL   C44448140   2.445   5.247   4.825 -0.5240 -0.4507  0.7690
   89MOL   H44548141   3.162   5.094   5.179  0.0143  0.1461 -0.3859
   89MOL   H44648142   3.105   5.099   5.348  1.8816  2.3838 -1.0440
   89MOL   H44748143   3.004   5.029   5.212  0.2788 -0.9303  0.1292
   89MOL   H44848144   3.067   5.325   5.244  2.0608 -1.4538 -0.3535
   89MOL   H44948145   3.007   5.256   5.098 -0.3619 -1.3336  0.3456
   89MOL   H45048146   2.805   5.165   5.216 -0.4925  1.6827 -1.9783
   89MOL   H45148147   2.876   5.226   5.365 -2.2231  1.1167  0.8219
   89MOL   H45248148   2.850   5.465   5.269  0.3780 -0.0179  0.2482
   89MOL   H45348149   2.703   5.381   5.294 -1.4541  0.0099 -1.0582
   89MOL   H45448150   2.836   5.443   5.024 -0.3633 -0.2770  0.0108
   89MOL   H45548151   2.699   5.505   5.082 -0.4022  0.4118 -1.7142
   89MOL   H45648152   2.455   5.008   4.964 -0.8831  0.4181  1.3653
   89MOL   H45748153   2.609   5.051   5.053 -0.6401 -0.5091  0.6245
   89MOL   H45848154   2.468   5.153   5.058 -0.2119  0.1004 -0.4885
   89MOL   H45948155   2.430   5.319   4.905 -3.3158 -0.6250  0.4451
   89MOL   H46048156   2.361   5.177   4.823 -2.1023  1.4206 -0.1787
   89MOL   C46148157   2.333   5.159   3.947  0.0362  0.1483 -0.0284
   89MOL   C46248158   2.377   5.025   4.017 -0.4847 -0.5242  0.0698
   89MOL   C46348159   2.482   5.038   4.129 -0.0187  0.5940 -0.4430
   89MOL   C46448160   2.461   5.143   4.247 -0.4635  0.4610 -0.4557
   89MOL   C46548161   2.547   5.119   4.375  0.4304 -0.5181  0.0935
   89MOL   O46648162   2.527   5.222   4.477 -0.5203 -0.3747  0.0883
   89MOL   C46748163   2.433   5.211   4.575  0.3348 -0.2218 -0.7544
   89MOL   O46848164   2.350   5.119   4.589 -0.3490 -0.5249 -0.2659
   89MOL   C46948165   2.436   5.320   4.686 -0.0088  0.4201  0.1877
   89MOL   C47048166   2.559   5.417   4.662 -0.8630 -0.1574  1.3821
   89MOL   C47148167   2.298   5.408   4.686  0.2399  0.5480  0.6255
   89MOL   H47248168   2.337   5.139   3.840  1.4081  0.0926  0.0257
   89MOL   H47348169   2.410   5.235   3.963  0.5878 -0.1126 -1.4138
   89MOL   H47448170   2.236   5.198   3.977  0.5570  1.1145  0.4389
   89MOL   H47548171   2.413   4.955   3.943  0.6367 -0.5565  0.6433
   89MOL   H47648172   2.289   4.977   4.059 -1.2018  2.2619  1.8945
   89MOL   H47748173   2.575   5.071   4.084  0.8116  1.8598  2.1288
   89MOL   H47848174   2.505   4.939   4.169 -2.4993  0.2732  0.2911
   89MOL   H47948175   2.356   5.126   4.271 -0.7898  1.3243 -1.2278
   89MOL   H48048176   2.472   5.243   4.204 -1.1785  0.8920  0.3647
   89MOL   H48148177   2.517   5.026   4.423 -0.9936 -0.8795 -1.4415
   89MOL   H48248178   2.653   5.116   4.349  0.1341  2.7688 -1.7832
   89MOL   H48348179   2.566   5.485   4.747 -0.0879 -2.4240  3.1718
   89MOL   H48448180   2.546   5.473   4.569  0.4130 -1.2101  0.5665
   89MOL   H48548181   2.655   5.373   4.638 -1.2031  0.8529 -2.0598
   89MOL   H48648182   2.275   5.442   4.787  0.0190 -0.6710  0.9888
   89MOL   H48748183   2.226   5.327   4.684 -0.9442  1.5742  1.1070
   89MOL   C48848184   2.893   5.553   3.989 -0.0351  0.3287 -0.1134
   89MOL   C48948185   2.840   5.495   4.119 -0.2849 -0.7689  0.6713
   89MOL   C49048186   2.685   5.499   4.120  0.5298  1.2256  0.2921
   89MOL   C49148187   2.620   5.527   4.260  0.7009  0.3029  0.0342
   89MOL   C49248188   2.464   5.540   4.260 -0.8188 -0.7069 -0.2794
   89MOL   O49348189   2.425   5.551   4.392  0.2815  0.3349  0.1077
   89MOL   C49448190   2.313   5.481   4.433 -0.4055 -0.0690 -0.3247
   89MOL   O49548191   2.254   5.404   4.365 -0.0876 -0.3200 -0.1959
   89MOL   C49648192   2.258   5.519   4.576 -0.3481 -0.3441  0.0517
   89MOL   C49748193   2.307   5.654   4.624 -0.0563 -0.4583  0.2031
   89MOL   C49848194   2.099   5.517   4.586 -0.6193 -0.1218  0.0313
   89MOL   H49948195   2.898   5.660   3.972 -1.1961  0.5670  0.9818
   89MOL   H50048196   2.981   5.494   3.964  0.0769  0.3966  0.1243
   89MOL   H50148197   2.833   5.517   3.905  3.0965 -2.3642 -1.3279
   89MOL   H50248198   2.879   5.565   4.194  1.1120  2.3195 -2.7746
   89MOL   H50348199   2.872   5.393   4.140 -0.8537 -0.6131  2.3809
   89MOL   H50448200   2.646   5.568   4.046 -0.1118  0.2978 -0.2530
   89MOL   H50548201   2.649   5.403   4.082  0.9617 -0.2871  3.5155
   89MOL   H50648202   2.656   5.629   4.272  0.1070  0.8809 -2.7952
   89MOL   H50748203   2.660   5.457   4.333 -0.8687  0.2613  0.8755
   89MOL   H50848204   2.433   5.622   4.195  0.4478 -0.2781 -0.3558
   89MOL   H50948205   2.421   5.451   4.214  0.4573 -1.3910 -0.1675
   89MOL   H51048206   2.310   5.723   4.539  2.9880 -1.0963 -0.2380
   89MOL   H51148207   2.411   5.639   4.650  0.2792  1.2593 -0.0692
   89MOL   H51248208   2.263   5.704   4.711 -1.0350  0.8832 -1.0250
   89MOL   H51348209   2.069   5.537   4.688  0.9195 -0.3931  0.5623
   89MOL   H51448210   2.070   5.414   4.567 -1.8493  0.7652 -3.3488
   89MOL   C51548211   2.237   6.139   4.950 -0.0377 -0.2381  0.3869
   89MOL   C51648212   2.135   6.184   4.842  0.0751 -0.4912  0.0278
   89MOL   C51748213   1.995   6.117   4.834 -0.3014  0.1720 -0.0863
   89MOL   C51848214   1.993   5.967   4.798  0.2977  0.1570  0.1481
   89MOL   C51948215   2.032   5.948   4.654 -0.2230  0.2287 -0.5831
   89MOL   O52048216   2.032   5.803   4.634  0.5923 -0.2332  0.5208
   89MOL   C52148217   2.031   5.758   4.509  0.0286 -0.3744 -0.1573
   89MOL   O52248218   2.041   5.832   4.408 -0.1282 -0.2314 -0.3419
   89MOL   C52348219   2.003   5.601   4.494  0.8125  0.7712  0.3842
   89MOL   C52448220   1.852   5.584   4.542 -0.5838  0.0255 -0.5320
   89MOL   C52548221   1.994   5.552   4.350  0.0574 -0.5316 -0.2546
   89MOL   H52648222   2.265   6.034   4.955 -2.2226 -0.9641 -1.6172
   89MOL   H52748223   2.329   6.195   4.939  0.4167 -1.0487  0.0441
   89MOL   H52848224   2.209   6.154   5.055  1.7896 -1.0168  0.9974
   89MOL   H52948225   2.114   6.291   4.847 -0.8669 -0.7389  1.6640
   89MOL   H53048226   2.182   6.174   4.744  2.5635 -0.4737  1.2024
   89MOL   H53148227   1.941   6.122   4.929 -0.8193  0.0311 -0.3687
   89MOL   H53248228   1.931   6.170   4.763  0.8175  0.6677 -0.7392
   89MOL   H53348229   1.892   5.925   4.807  0.2878  0.0504 -0.4070
   89MOL   H53448230   2.053   5.906   4.865  0.3863 -0.2892 -0.3341
   89MOL   H53548231   1.959   5.994   4.587 -1.3320 -1.7806 -0.7927
   89MOL   H53648232   2.131   5.991   4.643 -0.2817  0.7146  0.7727
   89MOL   H53748233   1.812   5.485   4.522  1.1202 -0.9480  0.6996
   89MOL   H53848234   1.790   5.657   4.491  0.0871 -0.1558 -1.6345
   89MOL   H53948235   1.845   5.593   4.651  1.6063 -1.0508 -0.2720
   89MOL   H54048236   1.978   5.444   4.347  0.6892 -0.7387  2.7699
   89MOL   H54148237   2.084   5.581   4.296 -0.2853  1.0252  0.0010
   89MOL   H54248238   1.912   5.593   4.291  0.5594  0.5748 -0.1956
   90MOL     C148239   4.921   1.762   5.228  0.0216 -0.0598  0.2641
   90MOL     C248240   4.863   1.889   5.298  0.0037  0.1258  0.6834
   90MOL     C348241   4.818   1.880   5.447  0.2849  0.2942  1.1382
   90MOL     C448242   4.744   2.005   5.501 -0.0076  0.3172  0.3708
   90MOL     C548243   4.703   1.990   5.649 -0.0963 -0.2736  0.1362
   90MOL     O648244   4.628   2.110   5.680 -0.5802 -0.5298  0.1112
   90MOL     C748245   4.526   2.111   5.772 -0.7767  0.1854  0.0599
   90MOL     O848246   4.491   2.015   5.842 -0.0093 -0.0188  0.3480
   90MOL     C948247   4.451   2.239   5.784  1.0304 -0.4223  0.2458
   90MOL    C1048248   4.516   2.318   5.904  0.5656  0.0475 -0.8357
   90MOL    C1148249   4.299   2.232   5.808 -0.5243  0.1812 -0.2641
   90MOL    H1248250   4.863   1.678   5.264  0.6898 -0.7969 -0.3695
   90MOL    H1348251   5.025   1.754   5.261 -0.2431  3.1136  2.0526
   90MOL    H1448252   4.908   1.768   5.120  0.9867 -4.0462 -0.1254
   90MOL    H1548253   4.918   1.981   5.279 -0.1108  0.6543  2.8350
   90MOL    H1648254   4.767   1.910   5.250 -0.2630  2.6819  2.2362
   90MOL    H1748255   4.758   1.790   5.462  1.6058 -1.0748 -1.4774
   90MOL    H1848256   4.910   1.872   5.505  2.4692 -1.4931 -2.3823
   90MOL    H1948257   4.654   2.009   5.440  0.0149  0.9659  0.3831
   90MOL    H2048258   4.790   2.101   5.480 -1.7724  1.1186  0.1229
   90MOL    H2148259   4.645   1.899   5.665  1.5290 -1.2281  0.7850
   90MOL    H2248260   4.797   1.989   5.705 -0.0664  2.2318  0.1594
   90MOL    H2348261   4.475   2.285   6.000  0.6966  0.3172 -0.6868
   90MOL    H2448262   4.478   2.419   5.884 -1.1458 -0.1803  1.0950
   90MOL    H2548263   4.624   2.318   5.895  0.8230 -0.7561  1.9215
   90MOL    H2648264   4.278   2.279   5.904  0.6795 -0.5149  0.3501
   90MOL    H2748265   4.263   2.131   5.824  1.7307 -0.6507 -0.2969
   90MOL    H2848266   4.470   2.294   5.692  0.4109 -0.9107 -0.1828
   90MOL    C2948267   4.449   1.687   5.151  0.9165 -0.6924 -0.0355
   90MOL    C3048268   4.470   1.762   5.287  0.1233  0.1510  0.3712
   90MOL    C3148269   4.337   1.832   5.320  0.3668  0.0850 -0.3618
   90MOL    C3248270   4.335   1.913   5.450  0.3861 -0.5172  0.3283
   90MOL    C3348271   4.230   2.023   5.444 -0.3201 -0.2526  0.0008
   90MOL    O3448272   4.221   2.107   5.562  0.0777  0.8664 -0.1850
   90MOL    C3548273   4.225   2.246   5.563  0.1880  0.0026  0.1596
   90MOL    O3648274   4.240   2.310   5.462 -0.3502 -0.3227  0.0701
   90MOL    C3748275   4.204   2.305   5.699 -0.7121  0.2922  0.3517
   90MOL    C3848276   4.248   2.452   5.700  0.2618  1.1844 -0.4389
   90MOL    C3948277   4.051   2.313   5.738 -0.3979 -0.1052 -0.0097
   90MOL    H4048278   4.386   1.598   5.165  0.4174 -0.1443  1.3083
   90MOL    H4148279   4.400   1.749   5.076  0.2706 -0.3040  0.7001
   90MOL    H4248280   4.548   1.664   5.112  0.7355 -0.9589 -0.3435
   90MOL    H4348281   4.539   1.844   5.265  0.3679 -0.2400 -0.3302
   90MOL    H4448282   4.501   1.701   5.372  0.6798 -0.1790 -0.0652
   90MOL    H4548283   4.252   1.764   5.322  0.3536  0.0951 -0.6099
   90MOL    H4648284   4.316   1.897   5.235 -0.2335  0.7990  0.3247
   90MOL    H4748285   4.327   1.842   5.532  0.9247 -0.8003  0.1353
   90MOL    H4848286   4.428   1.969   5.452 -0.1357  0.4355 -0.9563
   90MOL    H4948287   4.131   1.977   5.451 -1.1270  1.3351 -0.8803
   90MOL    H5048288   4.229   2.090   5.359 -0.6244  1.2110  1.1264
   90MOL    H5148289   4.236   2.493   5.800 -0.4253  0.5945 -0.2720
   90MOL    H5248290   4.183   2.523   5.648 -1.0039 -0.5723 -1.3192
   90MOL    H5348291   4.350   2.471   5.667  0.3016  2.2912  0.3133
   90MOL    H5448292   4.002   2.355   5.650 -1.6674 -0.2353  0.6256
   90MOL    H5548293   4.047   2.387   5.818  0.5267  0.1388 -0.1755
   90MOL    C5648294   4.374   2.334   6.557 -0.5688  0.0782 -0.4067
   90MOL    C5748295   4.332   2.379   6.417 -0.3288 -0.1714  0.4877
   90MOL    C5848296   4.229   2.275   6.350 -0.1800 -0.3644  0.1250
   90MOL    C5948297   4.164   2.319   6.215 -0.6038 -0.2003 -0.0621
   90MOL    C6048298   4.062   2.214   6.163  0.2754 -0.2137 -0.0158
   90MOL    O6148299   4.044   2.245   6.028  0.7364  0.1725 -0.2272
   90MOL    C6248300   4.023   2.153   5.941 -0.7437 -0.5364 -0.3192
   90MOL    O6348301   4.043   2.032   5.966  0.5668 -0.0770 -0.5796
   90MOL    C6448302   3.968   2.199   5.804  0.3566  0.3489  0.3921
   90MOL    C6548303   3.963   2.080   5.718  0.2940 -0.4547  0.4371
   90MOL    C6648304   3.808   2.234   5.820 -0.0335  0.5351 -0.1518
   90MOL    H6748305   4.458   2.393   6.594 -1.6214  4.1494 -4.0827
   90MOL    H6848306   4.414   2.233   6.562 -0.6106 -0.0033 -1.4697
   90MOL    H6948307   4.283   2.343   6.616 -0.5380  2.5759 -0.6881
   90MOL    H7048308   4.287   2.477   6.429 -0.5079 -0.1713 -0.1666
   90MOL    H7148309   4.421   2.374   6.355  0.3951 -1.9934  1.6247
   90MOL    H7248310   4.272   2.175   6.344 -1.2926 -1.0048  2.3084
   90MOL    H7348311   4.150   2.268   6.425 -0.5375  0.0660 -0.2107
   90MOL    H7448312   4.251   2.334   6.151 -1.2512  2.1638 -0.4589
   90MOL    H7548313   4.116   2.417   6.222  1.9234  1.0223  0.5931
   90MOL    H7648314   4.104   2.113   6.169 -1.6266 -1.2977 -3.2523
   90MOL    H7748315   3.973   2.215   6.226 -1.7197  1.6552 -2.7447
   90MOL    H7848316   3.894   2.002   5.750  0.0061  0.2909  1.6400
   90MOL    H7948317   4.059   2.029   5.729 -0.8858 -2.3189  2.6261
   90MOL    H8048318   3.956   2.099   5.611  0.0302  0.6476  0.6411
   90MOL    H8148319   3.769   2.145   5.871  0.4290 -1.4080 -3.0898
   90MOL    H8248320   3.768   2.221   5.720  2.6406 -1.3399 -1.0251
   90MOL    C8348321   3.906   3.185   5.725  0.8170  0.7194 -0.2590
   90MOL    C8448322   3.862   3.063   5.804  0.4222 -0.1212 -0.1814
   90MOL    C8548323   3.917   2.939   5.746  0.7031  0.4007 -0.3995
   90MOL    C8648324   3.862   2.815   5.818 -0.2116  0.2820 -0.4746
   90MOL    C8748325   3.908   2.684   5.744 -0.5421 -0.5329 -0.3242
   90MOL    O8848326   3.879   2.566   5.820  0.1773  0.0487  0.5349
   90MOL    C8948327   3.778   2.488   5.775 -0.4570  0.5325  0.4362
   90MOL    O9048328   3.720   2.498   5.666 -0.7403 -0.6180  0.3516
   90MOL    C9148329   3.748   2.370   5.872  0.3038  0.2601 -0.1373
   90MOL    C9248330   3.591   2.356   5.861  0.4918  0.3190 -0.6145
   90MOL    C9348331   3.792   2.400   6.019 -0.5739  0.1334  0.6253
   90MOL    H9448332   3.865   3.277   5.766  2.0360  2.1308 -2.1132
   90MOL    H9548333   4.014   3.195   5.736  0.7148  1.8384 -0.2436
   90MOL    H9648334   3.877   3.176   5.620 -1.7918  1.0002  0.4152
   90MOL    H9748335   3.753   3.054   5.804  0.3927 -0.1565  1.9300
   90MOL    H9848336   3.899   3.091   5.903  1.1895 -0.1267 -0.4688
   90MOL    H9948337   4.026   2.940   5.747  0.7152 -1.5017  1.8182
   90MOL   H10048338   3.892   2.926   5.641  0.9785  1.0361 -0.5510
   90MOL   H10148339   3.753   2.819   5.811 -0.2019  0.5414 -0.4759
   90MOL   H10248340   3.903   2.828   5.918  0.5090 -0.9472 -0.5951
   90MOL   H10348341   4.017   2.690   5.741 -0.5022 -0.9212  0.2691
   90MOL   H10448342   3.874   2.677   5.641 -0.5477 -2.3554 -0.2202
   90MOL   H10548343   3.539   2.446   5.891 -0.4661 -0.0059 -1.2703
   90MOL   H10648344   3.553   2.278   5.927  0.3166 -0.4091 -1.5558
   90MOL   H10748345   3.560   2.336   5.758  0.5832  2.0807 -0.9915
   90MOL   H10848346   3.796   2.302   6.067 -0.0795 -0.5568 -0.7891
   90MOL   H10948347   3.898   2.423   6.009 -0.0332 -2.1977  0.6732
   90MOL   C11048348   3.119   2.281   6.472 -0.2407 -0.1382  0.2433
   90MOL   C11148349   3.218   2.167   6.470 -0.6789  0.4509 -0.9158
   90MOL   C11248350   3.363   2.208   6.516 -0.2484  0.1185  0.1881
   90MOL   C11348351   3.434   2.319   6.429  0.5515  0.5936  0.5533
   90MOL   C11448352   3.491   2.257   6.295 -0.6459  0.3435 -0.1320
   90MOL   O11548353   3.612   2.328   6.256  0.3701 -0.2497 -0.3203
   90MOL   C11648354   3.596   2.436   6.171  0.1205 -0.2961  0.3642
   90MOL   O11748355   3.494   2.486   6.137 -0.3619  0.1254 -0.0996
   90MOL   C11848356   3.726   2.501   6.122 -0.7016 -0.1166  0.4724
   90MOL   C11948357   3.698   2.638   6.054  0.4496 -0.3111  1.4866
   90MOL   C12048358   3.828   2.527   6.239  0.3704 -0.3311  0.4715
   90MOL   H12148359   3.020   2.251   6.437 -0.8683  0.8587  1.1135
   90MOL   H12248360   3.123   2.322   6.573  1.7710  1.8715 -0.6167
   90MOL   H12348361   3.149   2.354   6.397 -0.9930 -0.9780 -0.8864
   90MOL   H12448362   3.179   2.082   6.525 -0.8820  1.8726  1.1899
   90MOL   H12548363   3.229   2.119   6.373  0.3079 -1.4530  0.1094
   90MOL   H12648364   3.367   2.251   6.617  0.8050 -2.0083  1.0720
   90MOL   H12748365   3.423   2.118   6.509  0.5136  0.7051 -0.8810
   90MOL   H12848366   3.523   2.357   6.479  0.5238 -2.0082  2.6733
   90MOL   H12948367   3.358   2.397   6.423 -0.0083  0.1308  1.4524
   90MOL   H13048368   3.524   2.154   6.311 -0.8762  0.5295  1.6678
   90MOL   H13148369   3.419   2.246   6.214 -0.9899 -0.0125  0.2205
   90MOL   H13248370   3.622   2.692   6.110 -1.0107  0.8034 -1.4674
   90MOL   H13348371   3.780   2.710   6.054 -1.1692  1.6284 -1.0883
   90MOL   H13448372   3.658   2.634   5.953 -0.5898  0.2531  1.8725
   90MOL   H13548373   3.854   2.427   6.274  1.7159 -0.8578 -1.8900
   90MOL   H13648374   3.927   2.549   6.200  0.2601  0.0490  0.4024
   90MOL   C13748375   3.681   2.149   6.954 -0.1280  0.0322 -0.2813
   90MOL   C13848376   3.633   2.198   6.816 -0.2697  0.0056  0.3163
   90MOL   C13948377   3.713   2.311   6.756  0.3585 -0.2267  0.2541
   90MOL   C14048378   3.854   2.286   6.697  0.8325  0.6262 -0.2492
   90MOL   C14148379   3.923   2.407   6.641  0.0152 -0.0179  0.1801
   90MOL   O14248380   3.854   2.461   6.527 -0.6681 -0.2137  0.3648
   90MOL   C14348381   3.902   2.564   6.466  0.1258 -0.3570 -0.0040
   90MOL   O14448382   4.018   2.609   6.482  0.9073  0.6789  0.3715
   90MOL   C14548383   3.801   2.628   6.362  0.3605 -0.0333  0.5216
   90MOL   C14648384   3.841   2.780   6.334 -0.1423 -0.1184  0.4619
   90MOL   C14748385   3.652   2.627   6.415  0.5678  0.3170  0.3384
   90MOL   H14848386   3.632   2.061   6.996 -0.1460 -0.4531 -1.2898
   90MOL   H14948387   3.678   2.237   7.017 -3.6648 -1.2654  1.5041
   90MOL   H15048388   3.785   2.120   6.938  0.0823  1.0108 -0.7148
   90MOL   H15148389   3.534   2.244   6.827 -0.9793 -1.4415  0.0246
   90MOL   H15248390   3.616   2.115   6.747 -0.0177 -0.3468  0.6817
   90MOL   H15348391   3.654   2.363   6.681  0.2694 -0.4773  0.1527
   90MOL   H15448392   3.716   2.387   6.834 -0.3054 -0.8611  0.9056
   90MOL   H15548393   3.917   2.256   6.781 -0.1423 -2.9309 -0.7176
   90MOL   H15648394   3.865   2.195   6.638  2.0990  0.2979  0.4763
   90MOL   H15748395   4.024   2.375   6.615 -0.7835 -1.8052 -0.8392
   90MOL   H15848396   3.924   2.479   6.723  0.8167  0.4163 -0.2012
   90MOL   H15948397   3.760   2.824   6.275  2.1722  1.0493 -1.9543
   90MOL   H16048398   3.938   2.797   6.287  0.5579 -2.2106  1.0782
   90MOL   H16148399   3.859   2.828   6.430  0.0620 -0.6384  0.6838
   90MOL   H16248400   3.582   2.650   6.335 -0.0545 -0.3525  0.6850
   90MOL   H16348401   3.633   2.521   6.431 -0.0118  0.4068  0.2314
   90MOL   C16448402   3.903   3.261   6.181  0.0337  0.5010  0.3302
   90MOL   C16548403   3.765   3.211   6.137  0.2258 -0.7234  0.2607
   90MOL   C16648404   3.709   3.129   6.246 -0.1064 -0.1374 -0.3596
   90MOL   C16748405   3.580   3.065   6.211  0.4138  0.1567  0.0335
   90MOL   C16848406   3.502   3.015   6.330 -0.0001 -0.2899  0.0587
   90MOL   O16948407   3.531   2.883   6.376 -0.2427  0.4682  0.6897
   90MOL   C17048408   3.597   2.864   6.492  0.2520 -0.6089 -0.4984
   90MOL   O17148409   3.642   2.960   6.560 -0.4991  0.3779  0.4771
   90MOL   C17248410   3.612   2.717   6.541 -0.2992  0.4794 -0.0383
   90MOL   C17348411   3.709   2.710   6.670  0.0010 -0.1542 -0.4864
   90MOL   C17448412   3.477   2.655   6.584 -0.8193  0.3851 -0.1276
   90MOL   H17548413   3.904   3.339   6.258  0.9546  0.9377 -0.1104
   90MOL   H17648414   3.956   3.294   6.091  1.3966  0.3624  1.0679
   90MOL   H17748415   3.958   3.172   6.211  0.5148  1.1226  1.3269
   90MOL   H17848416   3.770   3.146   6.049 -1.3903 -1.2829  0.5582
   90MOL   H17948417   3.702   3.298   6.115  0.2954  0.0626  3.0744
   90MOL   H18048418   3.771   3.050   6.287 -0.0466 -0.7589 -1.6248
   90MOL   H18148419   3.683   3.191   6.332 -2.1736 -1.5323  0.0309
   90MOL   H18248420   3.599   2.978   6.148  2.2496  0.8487 -0.4004
   90MOL   H18348421   3.524   3.142   6.156  2.0380  1.0839 -0.3794
   90MOL   H18448422   3.396   3.010   6.302 -0.0438 -0.9401  0.3364
   90MOL   H18548423   3.505   3.097   6.402  0.7781  0.6040 -0.9782
   90MOL   H18648424   3.744   2.614   6.708  1.0904  0.6429  0.5596
   90MOL   H18748425   3.664   2.757   6.757 -0.3193 -1.8202  0.2706
   90MOL   H18848426   3.803   2.763   6.655 -0.9203  2.0738  1.4140
   90MOL   H18948427   3.433   2.608   6.497 -2.4455  1.0751  0.2884
   90MOL   H19048428   3.515   2.573   6.645  0.6012  1.1951  0.1128
   90MOL   C19148429   3.126   3.498   6.594 -0.7776 -0.4104 -0.3312
   90MOL   C19248430   3.191   3.432   6.482 -0.3523  0.0386  0.2989
   90MOL   C19348431   3.156   3.280   6.473 -0.1268  0.6237 -0.0774
   90MOL   C19448432   3.242   3.181   6.556 -0.1034  0.0550 -0.8078
   90MOL   C19548433   3.199   3.037   6.526  0.3272 -0.3384  0.1515
   90MOL   O19648434   3.285   2.955   6.601 -0.0745 -0.1491  0.1015
   90MOL   C19748435   3.289   2.830   6.561 -0.4651  0.4938  0.0114
   90MOL   O19848436   3.233   2.794   6.459  0.2056  0.5133  0.5281
   90MOL   C19948437   3.356   2.734   6.660 -0.0914  0.0822 -0.2241
   90MOL   C20048438   3.403   2.816   6.782  0.8413 -0.8103  0.7953
   90MOL   C20148439   3.266   2.611   6.705 -0.7140 -0.2312  0.1891
   90MOL   H20248440   3.017   3.493   6.598 -0.8795  1.4993 -0.1277
   90MOL   H20348441   3.161   3.443   6.682  0.6782 -1.7029 -1.6846
   90MOL   H20448442   3.157   3.602   6.602 -0.5136 -0.4537 -0.7965
   90MOL   H20548443   3.297   3.452   6.470  0.1021 -1.9220  0.8839
   90MOL   H20648444   3.156   3.484   6.393  0.8771  1.6368  0.7363
   90MOL   H20748445   3.164   3.265   6.365  0.4674 -1.1082  0.1958
   90MOL   H20848446   3.049   3.270   6.489  0.0206 -0.4840  0.1848
   90MOL   H20948447   3.344   3.180   6.518  0.3222  1.6545  0.2430
   90MOL   H21048448   3.233   3.210   6.661  1.6204 -2.2023 -0.0108
   90MOL   H21148449   3.095   3.019   6.556 -0.7689 -0.1389 -3.2987
   90MOL   H21248450   3.190   3.015   6.420  0.5401  2.0163 -0.3862
   90MOL   H21348451   3.455   2.765   6.864  1.5883  1.0946  1.5429
   90MOL   H21448452   3.318   2.871   6.822  1.3444  1.1452 -0.7715
   90MOL   H21548453   3.471   2.896   6.753  1.1289 -2.4062 -3.3524
   90MOL   H21648454   3.339   2.549   6.756  0.4177 -0.4147 -1.6338
   90MOL   H21748455   3.242   2.558   6.613 -0.1892 -1.0415  0.5142
   90MOL   C21848456   3.323   2.123   7.252  0.2617  0.1824 -0.4303
   90MOL   C21948457   3.416   2.238   7.227 -0.4820 -0.5104  0.7108
   90MOL   C22048458   3.328   2.358   7.189 -0.1081  0.4843  0.2652
   90MOL   C22148459   3.400   2.492   7.170  0.3556  0.5363 -0.1193
   90MOL   C22248460   3.301   2.600   7.134  0.6042  0.1418 -0.0269
   90MOL   O22348461   3.257   2.580   6.996  0.0350  0.3061  0.1130
   90MOL   C22448462   3.167   2.661   6.941  0.0539  0.2057 -0.6945
   90MOL   O22548463   3.137   2.768   6.990 -0.3613  0.2508 -0.2750
   90MOL   C22648464   3.132   2.629   6.793 -0.0836  0.6099  0.4196
   90MOL   C22748465   3.072   2.488   6.799  0.5026  0.3787 -0.1365
   90MOL   C22848466   3.030   2.735   6.727  0.2411  0.8262 -0.2752
   90MOL   H22948467   3.259   2.101   7.167  0.7588 -1.3672 -0.4303
   90MOL   H23048468   3.377   2.029   7.264  0.0333  0.2021  0.8833
   90MOL   H23148469   3.263   2.144   7.341 -1.0162  0.0478 -1.2508
   90MOL   H23248470   3.489   2.221   7.149 -1.1701 -1.0595  0.1752
   90MOL   H23348471   3.466   2.263   7.321  2.5910 -0.4808 -0.8821
   90MOL   H23448472   3.248   2.373   7.261 -0.1943  0.9853  0.0687
   90MOL   H23548473   3.273   2.331   7.099  1.5032  1.0203 -0.9123
   90MOL   H23648474   3.431   2.525   7.269 -2.2825  1.2664  0.4987
   90MOL   H23748475   3.482   2.502   7.099  2.2602  0.5963  2.0191
   90MOL   H23848476   3.347   2.699   7.127 -2.6775  2.1260  4.2932
   90MOL   H23948477   3.221   2.612   7.206  0.2507 -2.0656 -0.0201
   90MOL   H24048478   3.131   2.403   6.834 -0.7718  0.4390  2.2620
   90MOL   H24148479   3.032   2.467   6.700 -0.4262  1.7211 -0.0576
   90MOL   H24248480   2.983   2.495   6.861  0.6913  0.0045  0.1794
   90MOL   H24348481   3.049   2.723   6.621  1.0096 -2.4053  0.1511
   90MOL   H24448482   3.079   2.825   6.763  1.5651 -0.6197  1.6896
   90MOL   C24548483   2.522   2.799   6.247  0.1001 -0.2907  0.0355
   90MOL   C24648484   2.509   2.670   6.323 -0.6541 -0.2569  0.2518
   90MOL   C24748485   2.649   2.602   6.326  0.0190 -0.0967 -0.1059
   90MOL   C24848486   2.670   2.487   6.424 -0.1697  0.0133  0.5196
   90MOL   C24948487   2.809   2.488   6.483 -0.1765 -0.0063 -0.6641
   90MOL   O25048488   2.839   2.606   6.555 -0.0514  0.2077  0.0932
   90MOL   C25148489   2.815   2.615   6.683  0.1290  0.0783  0.2228
   90MOL   O25248490   2.756   2.526   6.741 -0.3387  0.5314  0.1705
   90MOL   C25348491   2.875   2.737   6.747  0.3271 -0.2624 -0.2528
   90MOL   C25448492   2.820   2.866   6.675 -0.4282 -0.0233  0.8663
   90MOL   C25548493   2.841   2.745   6.910  0.4544 -0.3748  0.6239
   90MOL   H25648494   2.426   2.848   6.234 -0.8161 -2.1690 -0.3991
   90MOL   H25748495   2.583   2.868   6.306  2.4217 -1.6016 -0.7793
   90MOL   H25848496   2.570   2.788   6.150  0.8870  1.4455  0.1912
   90MOL   H25948497   2.490   2.713   6.422  1.2070 -2.3719  1.5741
   90MOL   H26048498   2.432   2.598   6.298 -2.1735  1.6910 -0.8099
   90MOL   H26148499   2.719   2.682   6.347  2.0480 -1.7736 -0.3459
   90MOL   H26248500   2.663   2.560   6.227  1.9005 -0.3530  0.2572
   90MOL   H26348501   2.597   2.495   6.504  1.7410  0.7085  2.2357
   90MOL   H26448502   2.656   2.400   6.361  0.9781 -0.3131  0.6911
   90MOL   H26548503   2.821   2.401   6.547  1.3984  0.6381 -0.0710
   90MOL   H26648504   2.881   2.469   6.404  0.1896 -2.0373  0.1274
   90MOL   H26748505   2.882   2.953   6.695 -1.2639  1.2131 -1.7748
   90MOL   H26848506   2.827   2.867   6.567 -1.0920 -1.5043  0.7912
   90MOL   H26948507   2.721   2.902   6.703 -0.0125  0.9987  1.0314
   90MOL   H27048508   2.881   2.657   6.960  1.4479  1.6925  3.6419
   90MOL   H27148509   2.910   2.820   6.950  0.3587  0.5631 -0.9271
   90MOL   C27248510   3.257   3.179   7.013  0.3039  0.3809  0.5349
   90MOL   C27348511   3.111   3.199   7.043  0.6623  0.1175 -0.2156
   90MOL   C27448512   3.025   3.143   6.931 -1.3543  0.3251  0.4283
   90MOL   C27548513   2.882   3.202   6.927 -0.3070 -0.2414 -0.1421
   90MOL   C27648514   2.784   3.141   7.028 -0.0827 -0.7428 -0.3113
   90MOL   O27748515   2.775   3.007   7.042 -0.1531 -0.0142  0.0239
   90MOL   C27848516   2.686   2.940   6.973 -0.0474  0.3117  0.5470
   90MOL   O27948517   2.607   2.993   6.890 -0.7993 -0.5660  0.1177
   90MOL   C28048518   2.704   2.780   6.977  0.5273  0.1194 -0.4141
   90MOL   C28148519   2.584   2.723   6.903 -0.2834  0.2044  0.2381
   90MOL   C28248520   2.703   2.724   7.121  0.0344 -0.5085  0.3928
   90MOL   H28348521   3.277   3.073   7.028 -0.1356  0.5674  2.5450
   90MOL   H28448522   3.269   3.204   6.907 -0.1600 -1.1952  0.1091
   90MOL   H28548523   3.325   3.242   7.070  1.7643 -1.0144  0.3673
   90MOL   H28648524   3.087   3.161   7.142 -1.1733  1.2505 -0.1908
   90MOL   H28748525   3.083   3.303   7.056  1.9966  0.1674  2.5689
   90MOL   H28848526   3.064   3.155   6.830  1.0669 -0.9132  1.1736
   90MOL   H28948527   3.023   3.035   6.949 -0.9258  0.3704  0.7431
   90MOL   H29048528   2.882   3.310   6.945 -0.6424 -0.4276  1.0021
   90MOL   H29148529   2.836   3.173   6.832 -0.1159 -0.7368 -0.0815
   90MOL   H29248530   2.688   3.188   7.004 -0.0010 -0.6165 -0.3936
   90MOL   H29348531   2.812   3.161   7.132 -0.1645 -1.6165 -0.1155
   90MOL   H29448532   2.493   2.761   6.950 -1.1860 -2.1735  0.5003
   90MOL   H29548533   2.575   2.762   6.801  2.6594 -0.7604 -0.4337
   90MOL   H29648534   2.596   2.615   6.904  1.3071  0.3802  0.9458
   90MOL   H29748535   2.705   2.615   7.115  2.8077 -0.4654 -0.5544
   90MOL   H29848536   2.802   2.747   7.159 -0.1321  1.0863 -0.1278
   90MOL   C29948537   3.297   2.735   7.458  0.6567  0.0879 -0.9258
   90MOL   C30048538   3.187   2.807   7.536 -0.0800  0.1409  0.0377
   90MOL   C30148539   3.074   2.856   7.439 -0.6412  0.5468  0.4234
   90MOL   C30248540   2.966   2.939   7.515 -0.8909 -0.3316  0.0459
   90MOL   C30348541   2.847   2.987   7.427 -0.5044  1.1954 -0.1343
   90MOL   O30448542   2.772   2.879   7.372  0.2442  0.1253 -0.0878
   90MOL   C30548543   2.667   2.914   7.295 -0.4308  0.2071  0.3922
   90MOL   O30648544   2.618   3.027   7.284 -0.6886  0.2586 -0.1145
   90MOL   C30748545   2.604   2.790   7.228 -0.2254  0.4547 -0.1906
   90MOL   C30848546   2.464   2.827   7.174  0.0821  0.1634 -0.6173
   90MOL   C30948547   2.586   2.686   7.350  0.3896 -0.0723 -0.3628
   90MOL   H31048548   3.341   2.791   7.376  2.4082  0.8799  0.5213
   90MOL   H31148549   3.276   2.636   7.415  2.1827 -1.5115  1.8567
   90MOL   H31248550   3.372   2.713   7.534 -0.3634 -1.2081 -0.2872
   90MOL   H31348551   3.222   2.895   7.590  2.6853  0.5210 -2.2697
   90MOL   H31448552   3.159   2.746   7.622  1.4428  0.6177  0.8819
   90MOL   H31548553   3.034   2.768   7.389  0.0263  0.5598 -0.1455
   90MOL   H31648554   3.126   2.907   7.358 -0.1298 -2.4131 -1.1574
   90MOL   H31748555   3.013   3.025   7.564 -1.8467  1.2901 -1.7881
   90MOL   H31848556   2.926   2.881   7.598  0.0272  0.3422  0.9742
   90MOL   H31948557   2.785   3.039   7.500 -0.7892 -1.5752  1.6733
   90MOL   H32048558   2.894   3.052   7.353  0.6139  2.1593  1.3913
   90MOL   H32148559   2.459   2.914   7.107 -0.6532  0.2461 -0.4625
   90MOL   H32248560   2.406   2.744   7.134 -1.6164  1.0283 -0.0197
   90MOL   H32348561   2.415   2.855   7.267  1.5162  0.0594  0.1736
   90MOL   H32448562   2.562   2.750   7.435 -2.0198  0.3892 -1.3497
   90MOL   H32548563   2.686   2.654   7.381  1.0683  2.3686  0.0748
   90MOL   C32648564   1.748   2.654   7.721 -0.4211 -0.5196 -0.6066
   90MOL   C32748565   1.874   2.591   7.687  0.1573  0.3330 -0.0663
   90MOL   C32848566   1.963   2.679   7.596 -0.3434 -0.5011 -0.2652
   90MOL   C32948567   2.109   2.633   7.581  0.1973  0.3274  0.2755
   90MOL   C33048568   2.197   2.734   7.504  0.1430  0.7045 -0.1527
   90MOL   O33148569   2.322   2.676   7.477 -0.4828  0.0982  0.4984
   90MOL   C33248570   2.342   2.604   7.361 -0.3583 -0.7395  0.2222
   90MOL   O33348571   2.255   2.592   7.278 -0.6624  0.4633 -0.0907
   90MOL   C33448572   2.493   2.560   7.344  0.1651  0.0109 -0.2979
   90MOL   C33548573   2.504   2.487   7.212  0.1087  0.4097  0.2759
   90MOL   C33648574   2.535   2.460   7.467 -0.2155 -0.3904  0.6430
   90MOL   H33748575   1.755   2.714   7.811  1.3390  0.2839 -1.2642
   90MOL   H33848576   1.670   2.584   7.754 -0.3911 -0.1575  0.2411
   90MOL   H33948577   1.719   2.726   7.644 -1.3809 -1.4286 -1.1188
   90MOL   H34048578   1.859   2.489   7.652  3.0743 -0.1165 -0.1681
   90MOL   H34148579   1.928   2.572   7.780  0.9521 -0.1416 -0.6191
   90MOL   H34248580   1.968   2.786   7.618 -2.2562 -0.5612  0.5435
   90MOL   H34348581   1.921   2.684   7.495  2.8771 -0.3903 -1.6816
   90MOL   H34448582   2.111   2.534   7.536  1.5547  0.7692 -0.6876
   90MOL   H34548583   2.153   2.618   7.680 -0.5483 -2.0152  0.2938
   90MOL   H34648584   2.227   2.815   7.571 -0.2927 -0.2460  1.2069
   90MOL   H34748585   2.145   2.776   7.418  0.5589  0.2987 -0.6063
   90MOL   H34848586   2.602   2.443   7.193  1.2118  1.6141  2.8844
   90MOL   H34948587   2.475   2.541   7.121  1.4806  0.1583 -0.3146
   90MOL   H35048588   2.432   2.405   7.219  0.9055 -0.2629  0.5781
   90MOL   H35148589   2.534   2.532   7.550  0.6491  0.3615  0.0099
   90MOL   H35248590   2.643   2.447   7.459 -0.0326  0.2671  1.8959
   90MOL   C35348591   2.920   2.436   7.206 -0.2647  0.4093 -0.0663
   90MOL   C35448592   2.879   2.313   7.290  0.2927  0.2195 -0.1144
   90MOL   C35548593   2.848   2.181   7.200  0.1620 -0.4160 -0.8588
   90MOL   C35648594   2.789   2.057   7.281 -0.3240 -0.3780 -0.2712
   90MOL   C35748595   2.636   2.075   7.300 -0.1047  0.3993  0.3181
   90MOL   O35848596   2.614   2.181   7.387 -0.0281  0.0070  0.1869
   90MOL   C35948597   2.485   2.224   7.402  0.2935  0.0873 -0.3332
   90MOL   O36048598   2.385   2.191   7.336  0.2434 -0.4692  0.0706
   90MOL   C36148599   2.473   2.328   7.517 -0.0678 -0.3366  0.6595
   90MOL   C36248600   2.331   2.352   7.560  0.2726 -0.9678 -0.7946
   90MOL   C36348601   2.564   2.296   7.644 -0.0225  0.0936  0.2169
   90MOL   H36448602   2.899   2.528   7.260  0.9311  0.4641  0.3041
   90MOL   H36548603   2.865   2.437   7.112  1.0275 -0.8264 -0.8668
   90MOL   H36648604   3.023   2.438   7.173 -0.0344 -0.6483  0.5515
   90MOL   H36748605   2.951   2.287   7.367  0.3651 -0.4893 -0.4113
   90MOL   H36848606   2.782   2.341   7.330 -0.7683  0.4073 -2.6781
   90MOL   H36948607   2.941   2.154   7.150  0.8081 -1.8349  1.0811
   90MOL   H37048608   2.779   2.212   7.121  1.6632  0.6558 -1.7630
   90MOL   H37148609   2.840   2.049   7.377  4.0879  0.0199 -2.4281
   90MOL   H37248610   2.792   1.962   7.228 -1.5739 -0.5062 -0.1282
   90MOL   H37348611   2.583   2.090   7.206  0.3915  0.8378  0.1039
   90MOL   H37448612   2.596   1.987   7.349  0.5806 -0.5696 -0.8568
   90MOL   H37548613   2.340   2.429   7.637  0.0894 -0.3065 -1.4283
   90MOL   H37648614   2.263   2.380   7.479 -1.0424 -2.2601 -0.1725
   90MOL   H37748615   2.300   2.254   7.597 -0.7951 -0.5129 -0.4661
   90MOL   H37848616   2.665   2.271   7.611 -0.2166 -2.0469  1.1722
   90MOL   H37948617   2.576   2.393   7.693 -1.5606  0.8406 -0.8297
   90MOL   C38048618   1.984   2.760   0.277 -0.1848  0.2234 -0.2615
   90MOL   C38148619   2.081   2.686   0.177 -1.0568  0.7097  0.5721
   90MOL   C38248620   2.228   2.669   0.228 -0.0725  0.6329  0.1096
   90MOL   C38348621   2.329   2.597   0.134  0.1156  0.0100  0.9950
   90MOL   C38448622   2.320   2.444   0.146 -0.2385  0.4450  0.4757
   90MOL   O38548623   2.423   2.377   0.069  0.0649 -0.4222  1.0487
   90MOL   C38648624   2.420   2.245   0.044 -0.3514  0.0882  0.3940
   90MOL   O38748625   2.342   2.168   0.103  0.3759 -0.6424 -0.1062
   90MOL   C38848626   2.524   2.192   7.752 -0.0876 -0.1274 -1.0727
   90MOL   C38948627   2.466   2.058   7.686  0.4805  0.4189  0.6128
   90MOL   C39048628   2.662   2.156   0.005  0.0364 -0.0690  0.0626
   90MOL   H39148629   2.013   2.865   0.277  1.9330 -0.3295 -2.5091
   90MOL   H39248630   1.885   2.757   0.231  0.0619  0.0343 -0.7861
   90MOL   H39348631   1.987   2.723   0.379  0.3132  0.2536 -0.2659
   90MOL   H39448632   2.086   2.732   0.078  0.9286 -1.9437 -0.6196
   90MOL   H39548633   2.046   2.584   0.165  0.9827  0.2296 -1.7565
   90MOL   H39648634   2.274   2.764   0.256  4.4619 -1.9939  2.1364
   90MOL   H39748635   2.223   2.626   0.327  1.1769  0.2625  0.0270
   90MOL   H39848636   2.308   2.608   0.028 -0.4903  0.7817  1.1901
   90MOL   H39948637   2.426   2.642   0.158  0.2768 -0.0363  0.4392
   90MOL   H40048638   2.218   2.428   0.111 -0.3137 -1.7420  1.6024
   90MOL   H40148639   2.316   2.415   0.251 -0.8124 -1.8744 -0.1679
   90MOL   H40248640   2.422   1.985   7.753 -0.2741  1.2401  1.0318
   90MOL   H40348641   2.539   2.014   7.618  0.9876  4.0822 -1.3842
   90MOL   H40448642   2.386   2.083   7.615  1.7379 -0.1135 -1.0116
   90MOL   H40548643   2.722   2.246   0.003 -1.5006  1.0058  1.0152
   90MOL   H40648644   2.707   2.089   7.746 -0.8545 -0.9683  0.3182
   90MOL   C40748645   3.119   2.103   0.586 -0.3246 -0.3700  0.3548
   90MOL   C40848646   3.005   2.196   0.622  0.5200 -0.2599 -0.3607
   90MOL   C40948647   2.872   2.160   0.554  0.3760  0.0769 -0.1041
   90MOL   C41048648   2.774   2.275   0.551  0.2468 -0.0425 -0.2229
   90MOL   C41148649   2.641   2.231   0.500 -0.3591  0.7422 -0.3383
   90MOL   O41248650   2.650   2.147   0.385 -0.4881  0.0200 -0.2902
   90MOL   C41348651   2.665   2.198   0.263 -0.0595 -0.4497 -0.0939
   90MOL   O41448652   2.685   2.322   0.243 -0.5937  0.0150 -0.3856
   90MOL   C41548653   2.689   2.094   0.153  0.4502 -0.0465  0.5128
   90MOL   C41648654   2.603   1.962   0.177  0.6643 -0.3310  0.1103
   90MOL   C41748655   2.844   2.054   0.178  0.1462 -0.0921  0.3119
   90MOL   H41848656   3.102   1.996   0.591  1.4659 -0.6807  0.0506
   90MOL   H41948657   3.161   2.122   0.487 -1.5113 -0.8777 -0.2474
   90MOL   H42048658   3.201   2.114   0.657 -0.7762  2.8971  0.4439
   90MOL   H42148659   3.038   2.297   0.598  1.3777 -0.8980 -1.9089
   90MOL   H42248660   2.986   2.181   0.729 -1.8548 -2.9930 -1.0994
   90MOL   H42348661   2.900   2.116   0.458 -0.3174 -1.5222  0.4156
   90MOL   H42448662   2.822   2.074   0.598  1.4245  0.1837  1.3275
   90MOL   H42548663   2.808   2.356   0.488  0.8012  0.1631  0.3326
   90MOL   H42648664   2.759   2.309   0.654 -2.3862 -0.2296 -0.5124
   90MOL   H42748665   2.590   2.174   0.578 -1.4036  2.4355  0.2277
   90MOL   H42848666   2.578   2.318   0.481 -0.7185  0.9254  1.5518
   90MOL   H42948667   2.496   1.978   0.163  0.6927 -0.5797 -0.3885
   90MOL   H43048668   2.611   1.927   0.280 -0.2391  0.0691  0.3241
   90MOL   H43148669   2.619   1.878   0.111  0.5825  0.5424 -1.0302
   90MOL   H43248670   2.847   1.988   0.265 -1.2714  0.1845  0.5902
   90MOL   H43348671   2.901   2.143   0.204  0.2796 -0.0622 -0.0772
   90MOL   C43448672   2.738   2.663   7.702 -0.4213  0.4804  0.6937
   90MOL   C43548673   2.843   2.562   7.667  0.0539 -0.1032 -0.0863
   90MOL   C43648674   2.907   2.497   7.793 -0.4358  0.0303 -0.0210
   90MOL   C43748675   3.043   2.439   7.767  0.3775  0.6074 -0.4156
   90MOL   C43848676   3.033   2.302   7.701  0.2355  0.0420  0.2598
   90MOL   O43948677   2.995   2.205   7.803 -0.3558  0.3835 -0.3986
   90MOL   C44048678   2.966   2.075   7.762 -0.0602  0.4688  0.5835
   90MOL   O44148679   2.986   2.039   7.646 -0.5502  0.4138 -0.2486
   90MOL   C44248680   2.935   1.981   0.070 -0.1186 -0.2275  0.3879
   90MOL   C44348681   2.866   1.858   0.010  0.2002  0.5349 -0.4290
   90MOL   C44448682   3.073   1.949   0.133 -0.3090 -0.2251  0.4969
   90MOL   H44548683   2.645   2.623   7.743 -0.6604 -1.0946 -1.3101
   90MOL   H44648684   2.789   2.741   7.758 -1.6194  2.4679 -0.9391
   90MOL   H44748685   2.701   2.706   7.609 -0.4192  0.4349  0.6722
   90MOL   H44848686   2.786   2.487   7.612 -0.0416  0.6499 -1.0369
   90MOL   H44948687   2.926   2.602   7.608  0.1692 -0.5351 -0.2184
   90MOL   H45048688   2.913   2.572   0.058 -0.8545  0.8686 -0.7947
   90MOL   H45148689   2.848   2.416   0.023  0.9269 -1.6088 -1.1528
   90MOL   H45248690   3.084   2.421   0.052  1.4736  4.7758 -0.0251
   90MOL   H45348691   3.106   2.518   7.726 -0.4378  0.9762 -0.9908
   90MOL   H45448692   3.134   2.270   7.676  0.8663  1.6266  0.7186
   90MOL   H45548693   2.966   2.300   7.616 -1.8773 -1.9977  1.9047
   90MOL   H45648694   2.836   1.801   0.098  0.7544 -0.9883 -1.2093
   90MOL   H45748695   2.779   1.878   7.761  0.0505 -3.1765 -1.5289
   90MOL   H45848696   2.942   1.811   7.760 -0.4459  1.8661 -2.2161
   90MOL   H45948697   3.083   2.031   0.204 -0.9864  1.3798 -1.2394
   90MOL   H46048698   3.157   1.948   0.063  0.8349 -0.6305  1.8365
   90MOL   C46148699   3.386   1.848   7.497 -0.8361 -0.1359  0.3161
   90MOL   C46248700   3.253   1.799   7.437  0.0772 -0.3147 -0.8077
   90MOL   C46348701   3.152   1.745   7.545  0.6525 -0.2533  0.6424
   90MOL   C46448702   3.208   1.627   7.629 -0.3427  0.1783 -0.4259
   90MOL   C46548703   3.113   1.592   7.738  0.6601  0.0654  0.0631
   90MOL   O46648704   3.133   1.690   0.025 -0.6408 -0.4497  0.5072
   90MOL   C46748705   3.081   1.684   0.148 -0.0023  0.2475  0.4587
   90MOL   O46848706   3.031   1.586   0.201  0.4994  0.2944  0.1660
   90MOL   C46948707   3.102   1.817   0.218  0.5348 -0.1675 -0.0791
   90MOL   C47048708   3.004   1.815   0.336 -0.5100  0.2949 -0.0304
   90MOL   C47148709   3.247   1.815   0.281 -0.6737 -0.4044  0.2441
   90MOL   H47248710   3.443   1.766   7.542 -0.7027  0.3692  1.0760
   90MOL   H47348711   3.368   1.920   7.577  0.3236 -0.1721  0.6144
   90MOL   H47448712   3.459   1.885   7.425  0.6189 -1.0542  1.2832
   90MOL   H47548713   3.271   1.719   7.365 -2.5478  0.4998 -2.4593
   90MOL   H47648714   3.201   1.883   7.390  0.8073  0.8877  0.5116
   90MOL   H47748715   3.058   1.710   7.502 -0.7881  0.0950  3.4145
   90MOL   H47848716   3.138   1.828   7.614  1.4308 -1.9992  2.9781
   90MOL   H47948717   3.301   1.667   7.670 -0.3265 -0.1379 -0.1482
   90MOL   H48048718   3.232   1.551   7.555  1.7193 -0.3485  0.7425
   90MOL   H48148719   3.011   1.600   7.698  1.0912  1.1621 -0.8503
   90MOL   H48248720   3.128   1.496   7.787  0.6627  0.1534  0.2324
   90MOL   H48348721   3.039   1.760   0.424  2.1902 -0.2822 -1.4219
   90MOL   H48448722   2.901   1.785   0.316 -0.1915 -0.4119 -0.6304
   90MOL   H48548723   3.003   1.919   0.368  0.7983  0.7630 -1.4624
   90MOL   H48648724   3.264   1.712   0.312 -1.6972 -0.5812  0.2572
   90MOL   H48748725   3.233   1.873   0.372 -0.9081 -2.2515  1.4085
   90MOL   C48848726   3.605   2.615   7.660  0.3300 -0.8966  0.4571
   90MOL   C48948727   3.611   2.482   7.727 -0.0106 -0.3993 -0.0161
   90MOL   C49048728   3.474   2.425   7.780  0.2975  0.9655  0.0957
   90MOL   C49148729   3.492   2.273   0.015  0.3659 -1.3809  0.1456
   90MOL   C49248730   3.365   2.196   0.058 -0.6613  0.1010  1.3006
   90MOL   O49348731   3.401   2.067   0.091 -0.5817  0.4383 -0.3585
   90MOL   C49448732   3.376   2.018   0.214 -0.6072 -0.6804  0.6189
   90MOL   O49548733   3.355   2.086   0.314 -0.5050 -0.3730  0.5205
   90MOL   C49648734   3.385   1.864   0.223  0.3866  0.1241 -0.2935
   90MOL   C49748735   3.412   1.801   0.084 -0.5428 -0.9463  0.2133
   90MOL   C49848736   3.492   1.815   0.320 -0.6726  0.0709  0.3821
   90MOL   H49948737   3.551   2.610   7.566  1.2650  2.2821 -0.2882
   90MOL   H50048738   3.548   2.687   7.719  0.6921  0.5990 -0.9740
   90MOL   H50148739   3.701   2.655   7.628 -0.0553  0.9946  1.6225
   90MOL   H50248740   3.676   2.495   7.813 -1.1009 -0.1243  0.7710
   90MOL   H50348741   3.664   2.405   7.672 -1.0521 -5.1489  5.2146
   90MOL   H50448742   3.449   2.490   0.050  0.9555  0.9033  0.3475
   90MOL   H50548743   3.398   2.438   7.703  0.0116 -1.8831 -0.1540
   90MOL   H50648744   3.562   2.269   0.099  1.3049 -0.5014 -0.5792
   90MOL   H50748745   3.535   2.212   7.750  0.4568 -2.7672  1.2450
   90MOL   H50848746   3.307   2.250   0.133  0.4700  0.9599  1.5749
   90MOL   H50948747   3.294   2.185   7.790 -1.8565  1.2079  2.1472
   90MOL   H51048748   3.337   1.828   0.010 -0.9618 -2.9895 -0.1476
   90MOL   H51148749   3.413   1.692   0.076  1.5673 -0.8961 -0.6205
   90MOL   H51248750   3.501   1.843   0.037 -0.2939 -1.9753 -0.2516
   90MOL   H51348751   3.516   1.713   0.292  3.2231  0.5700  1.5763
   90MOL   H51448752   3.448   1.808   0.419  1.3113 -1.7858  1.1763
   90MOL   C51548753   4.266   1.628   0.129 -0.3745  0.1125 -0.2521
   90MOL   C51648754   4.135   1.609   0.053  0.0061 -0.4297 -0.3519
   90MOL   C51748755   4.032   1.720   0.088  0.5635  0.9209  0.0785
   90MOL   C51848756   3.909   1.699   0.003  0.3713  0.2274 -0.3817
   90MOL   C51948757   3.798   1.804   0.027 -0.0270  0.1056  0.1353
   90MOL   O52048758   3.733   1.789   0.144  0.1564  0.1031 -0.2412
   90MOL   C52148759   3.703   1.899   0.216 -0.4788 -0.4796  1.3214
   90MOL   O52248760   3.717   2.016   0.172 -0.2070  0.3252  0.2523
   90MOL   C52348761   3.631   1.879   0.347  0.3724 -0.0404  0.7124
   90MOL   C52448762   3.708   1.778   0.428  0.6659 -1.0394 -0.6776
   90MOL   C52548763   3.619   2.014   0.422  0.3126  0.7072 -0.1633
   90MOL   H52648764   4.304   1.529   0.153 -1.0310 -0.0272  0.2016
   90MOL   H52748765   4.338   1.683   0.068 -0.8779  0.0393 -0.9144
   90MOL   H52848766   4.247   1.690   0.216 -0.0976  0.2518 -0.2900
   90MOL   H52948767   4.148   1.591   7.760 -0.3151  0.7632 -0.5986
   90MOL   H53048768   4.085   1.524   0.100  1.1066 -0.7173  0.3205
   90MOL   H53148769   3.998   1.703   0.190  0.0509 -2.7993 -0.6229
   90MOL   H53248770   4.067   1.822   0.072  0.4799  0.8643 -0.4772
   90MOL   H53348771   3.864   1.600   0.017 -0.7580  1.1787  3.1543
   90MOL   H53448772   3.946   1.688   7.715  0.4475  0.4809 -0.3810
   90MOL   H53548773   3.841   1.902   0.007 -3.0264  1.2247 -1.1715
   90MOL   H53648774   3.721   1.796   7.764  0.5814  4.5898 -1.0551
   90MOL   H53748775   3.657   1.754   0.522 -0.1392 -1.2111 -1.1540
   90MOL   H53848776   3.805   1.814   0.461 -0.8079  3.6288 -1.1474
   90MOL   H53948777   3.724   1.683   0.377  2.2220 -0.2297 -1.7035
   90MOL   H54048778   3.578   2.093   0.360 -0.9377  1.4615  1.5728
   90MOL   H54148779   3.718   2.049   0.450  0.3809  1.2188 -1.0359
   90MOL   H54248780   3.556   2.007   0.511 -2.2656  0.2525 -1.9572
   91MOL     C148781   2.451   1.706   1.322 -0.1244  0.1468  0.7783
   91MOL     C248782   2.367   1.581   1.287  0.5348 -0.4903  0.4703
   91MOL     C348783   2.385   1.527   1.144 -0.2761 -0.8533 -0.4100
   91MOL     C448784   2.359   1.377   1.128  0.0149 -0.0339 -0.0097
   91MOL     C548785   2.409   1.327   0.993 -0.0210  0.7689  0.0080
   91MOL     O648786   2.337   1.376   0.880  0.1096  0.6355 -0.3689
   91MOL     C748787   2.203   1.378   0.861  0.3900  0.1735  0.0569
   91MOL     O848788   2.127   1.330   0.944  0.2639 -0.2985 -0.3451
   91MOL     C948789   2.156   1.431   0.724 -0.7630  0.5386  0.7646
   91MOL    C1048790   2.091   1.566   0.748 -0.4025 -0.1269  0.4175
   91MOL    C1148791   2.060   1.335   0.641 -0.4644 -0.7589 -0.0610
   91MOL    H1248792   2.557   1.688   1.309 -0.1678  0.0075  0.6088
   91MOL    H1348793   2.444   1.746   1.423 -4.2784  0.9941  0.2600
   91MOL    H1448794   2.429   1.789   1.255 -0.1862 -2.0410 -2.0256
   91MOL    H1548795   2.391   1.513   1.370  2.8621  2.1363  2.0293
   91MOL    H1648796   2.262   1.608   1.299  0.5233 -0.8591  1.2681
   91MOL    H1748797   2.324   1.591   1.081  1.0864  0.5353 -0.3526
   91MOL    H1848798   2.489   1.549   1.119  0.2893 -0.9549  1.7216
   91MOL    H1948799   2.255   1.350   1.146 -0.1387  0.0242 -0.7640
   91MOL    H2048800   2.412   1.317   1.201  0.9797 -0.1482 -0.7871
   91MOL    H2148801   2.513   1.353   0.976  0.1020  0.5428  0.4047
   91MOL    H2248802   2.409   1.218   0.981 -0.8639  0.7978 -0.3004
   91MOL    H2348803   1.985   1.553   0.768 -0.9559  0.3828 -2.0412
   91MOL    H2448804   2.093   1.640   0.668  1.6855  0.2609  0.7993
   91MOL    H2548805   2.128   1.628   0.830 -1.0928  0.4270  0.3178
   91MOL    H2648806   1.977   1.391   0.599  0.4069  0.3679 -0.3133
   91MOL    H2748807   2.021   1.270   0.720 -2.3136 -0.1661 -0.4699
   91MOL    H2848808   2.253   1.446   0.676  0.1267 -2.8085  1.3427
   91MOL    C2948809   2.439   0.833   1.221 -0.0248  0.0477  0.4935
   91MOL    C3048810   2.443   0.925   1.095 -0.2250  0.2273  0.2436
   91MOL    C3148811   2.339   0.889   0.989  0.4665  0.3670 -0.4190
   91MOL    C3248812   2.297   0.999   0.894  0.0288  0.1085 -0.2732
   91MOL    C3348813   2.206   0.951   0.782  0.2398  0.0412  0.0537
   91MOL    O3448814   2.152   1.061   0.713  0.0847 -0.1977  0.0503
   91MOL    C3548815   2.217   1.120   0.615  0.0760  0.5526  0.0416
   91MOL    O3648816   2.334   1.101   0.592  0.1453 -0.3629 -0.0063
   91MOL    C3748817   2.127   1.230   0.541  0.2595 -0.2550  0.3935
   91MOL    C3848818   2.212   1.316   0.437  0.2863  0.4799 -0.1381
   91MOL    C3948819   2.011   1.154   0.466 -0.0410 -0.2255 -0.5692
   91MOL    H4048820   2.489   0.874   1.309  0.8370 -2.7269  1.3471
   91MOL    H4148821   2.336   0.804   1.245 -1.0671  2.7561 -0.5480
   91MOL    H4248822   2.494   0.740   1.204  0.9455  1.1771 -2.9633
   91MOL    H4348823   2.542   0.934   1.050 -0.2496 -0.3383  0.0709
   91MOL    H4448824   2.411   1.025   1.122 -0.7686 -0.4688  2.2710
   91MOL    H4548825   2.249   0.850   1.036  1.1468 -0.0941  0.5199
   91MOL    H4648826   2.382   0.808   0.930 -1.4723 -0.7738 -0.3224
   91MOL    H4748827   2.243   1.076   0.950 -0.0980  0.5088 -0.9411
   91MOL    H4848828   2.387   1.053   0.866  0.0236  0.3688  0.2126
   91MOL    H4948829   2.124   0.894   0.825 -0.8175  2.6593  1.6325
   91MOL    H5048830   2.263   0.884   0.717 -1.0731  2.0030 -3.2542
   91MOL    H5148831   2.160   1.327   0.342 -1.0777  2.4342  0.8004
   91MOL    H5248832   2.315   1.293   0.411 -0.6572 -1.9716 -1.9740
   91MOL    H5348833   2.224   1.419   0.470  0.0119  0.4560  0.0461
   91MOL    H5448834   1.952   1.224   0.407 -0.6904  0.6583  1.1178
   91MOL    H5548835   1.947   1.119   0.547 -2.0308  1.7004 -1.2680
   91MOL    C5648836   1.968   0.524   0.982  0.3804  0.5657  0.0115
   91MOL    C5748837   1.959   0.625   0.874  0.6470  0.3462 -0.1680
   91MOL    C5848838   1.823   0.635   0.792 -0.4003  0.2591 -0.3107
   91MOL    C5948839   1.839   0.748   0.684 -0.7566  0.3235 -1.1279
   91MOL    C6048840   1.971   0.761   0.610  0.1175 -0.2946 -0.2043
   91MOL    O6148841   1.962   0.877   0.520  0.2108 -0.0309  0.0617
   91MOL    C6248842   2.067   0.907   0.438  0.1836 -0.0625 -0.5694
   91MOL    O6348843   2.170   0.847   0.430  0.2073  0.1712 -0.6378
   91MOL    C6448844   2.027   1.035   0.360 -0.7207 -0.5147  0.6982
   91MOL    C6548845   2.130   1.065   0.259 -0.3134 -0.3983 -0.3424
   91MOL    C6648846   1.883   1.022   0.293  0.5457 -0.3110 -0.0467
   91MOL    H6748847   2.070   0.511   1.020  0.1139 -0.9156  0.2283
   91MOL    H6848848   1.932   0.431   0.940 -2.0291  1.7175 -0.5696
   91MOL    H6948849   1.896   0.549   1.060  0.0140 -1.7082  0.4214
   91MOL    H7048850   1.987   0.719   0.923 -0.1295  0.6315 -0.2686
   91MOL    H7148851   2.035   0.590   0.805 -1.3977 -0.0031 -2.2723
   91MOL    H7248852   1.812   0.534   0.752  1.1240  0.3542 -1.0039
   91MOL    H7348853   1.747   0.656   0.867  1.7055  1.2698  1.5932
   91MOL    H7448854   1.822   0.845   0.729  0.1084 -0.4790  1.0097
   91MOL    H7548855   1.761   0.733   0.609  1.6211  1.0354 -3.8536
   91MOL    H7648856   2.056   0.781   0.676 -1.5459 -0.5686  2.0683
   91MOL    H7748857   1.988   0.672   0.550 -1.1391 -0.2488 -0.6316
   91MOL    H7848858   2.097   1.139   0.186  1.5169  1.2194  0.4311
   91MOL    H7948859   2.178   0.988   0.199  1.2272 -0.3275  0.7740
   91MOL    H8048860   2.216   1.102   0.314 -1.2115 -0.8374  1.3851
   91MOL    H8148861   1.840   1.120   0.275  1.6184  0.3963  1.1183
   91MOL    H8248862   1.813   0.989   0.370  1.3267  0.1167  0.8596
   91MOL    C8348863   1.880   0.116   0.498  0.5973 -0.1184 -0.7687
   91MOL    C8448864   1.817   0.256   0.485 -0.2624  0.0085  0.4233
   91MOL    C8548865   1.905   0.357   0.408 -0.9227  0.1170  0.0061
   91MOL    C8648866   1.836   0.495   0.379 -0.2626 -0.4404  0.2080
   91MOL    C8748867   1.909   0.574   0.272  0.1366  0.7169 -0.4585
   91MOL    O8848868   1.863   0.707   0.265  0.0267 -0.0757  0.6015
   91MOL    C8948869   1.921   0.789   0.175  0.4906 -0.1604 -0.3405
   91MOL    O9048870   2.016   0.761   0.104  0.7577 -0.4133 -0.3360
   91MOL    C9148871   1.848   0.930   0.161  0.4902  0.3506 -0.7315
   91MOL    C9248872   1.691   0.911   0.157 -0.3639 -0.4783 -0.4735
   91MOL    C9348873   1.908   1.007   0.038  0.5637  0.7706  0.1446
   91MOL    H9448874   1.925   0.103   0.596 -0.4921  2.7491  0.1699
   91MOL    H9548875   1.795   0.053   0.472 -1.2651  2.0416 -0.0667
   91MOL    H9648876   1.949   0.088   0.419  0.7401 -3.2155  0.3920
   91MOL    H9748877   1.788   0.295   0.583  0.7400  1.3662  0.1975
   91MOL    H9848878   1.733   0.241   0.419  1.4627 -0.6648 -1.6755
   91MOL    H9948879   1.931   0.305   0.315 -2.0447  0.8832 -0.7489
   91MOL   H10048880   1.998   0.378   0.461  0.0698  1.0235 -1.9905
   91MOL   H10148881   1.825   0.550   0.473  0.0634  0.8052 -0.4657
   91MOL   H10248882   1.738   0.480   0.334 -0.0277 -0.5939 -0.2565
   91MOL   H10348883   1.904   0.527   0.173  3.8415 -1.5549  0.3522
   91MOL   H10448884   2.016   0.571   0.293 -0.4074  0.0013  2.3703
   91MOL   H10548885   1.658   0.845   0.077 -1.7402 -1.3860  0.8175
   91MOL   H10648886   1.660   1.015   0.146 -0.9157 -0.3608  1.9516
   91MOL   H10748887   1.651   0.859   0.244  2.1851  1.9075  2.2544
   91MOL   H10848888   1.896   1.115   0.047  1.6172  1.2273 -3.2704
   91MOL   H10948889   2.015   0.987   0.041  0.5120  0.4885  0.1204
   91MOL   C11048890   1.473   1.421   0.291  0.8285 -0.1197  0.1042
   91MOL   C11148891   1.576   1.312   0.274  0.3179 -0.2189 -0.1169
   91MOL   C11248892   1.624   1.300   0.136 -0.1275  0.6101  0.5293
   91MOL   C11348893   1.528   1.235   0.030  0.3265 -0.2430 -0.3923
   91MOL   C11448894   1.592   1.240   7.701  0.0545  0.0001 -0.4971
   91MOL   O11548895   1.709   1.170   7.706 -0.3633  0.0526 -0.3512
   91MOL   C11648896   1.718   1.037   7.683  0.5751 -0.0295 -0.1982
   91MOL   O11748897   1.622   0.958   7.670  0.5731  0.0307  0.1430
   91MOL   C11848898   1.859   0.984   7.703 -0.1556  0.1770 -0.0542
   91MOL   C11948899   1.866   0.834   7.669 -0.7673  0.4210  0.0149
   91MOL   C12048900   1.953   1.075   7.607  0.1809 -0.2991  0.2550
   91MOL   H12148901   1.454   1.439   0.396 -0.1156 -0.4177 -0.0080
   91MOL   H12248902   1.505   1.515   0.246 -0.1747 -0.4909 -1.4428
   91MOL   H12348903   1.381   1.385   0.245  0.8584 -0.7333  0.5283
   91MOL   H12448904   1.665   1.336   0.333 -0.6104 -0.7407  1.5390
   91MOL   H12548905   1.533   1.225   0.324 -1.3039  1.4903  1.5286
   91MOL   H12648906   1.657   1.393   0.090 -0.1455 -0.2556 -1.2735
   91MOL   H12748907   1.714   1.239   0.140  0.3966  1.3863  0.6173
   91MOL   H12848908   1.430   1.284   0.023  0.7919  1.3070  2.7526
   91MOL   H12948909   1.495   1.133   0.047 -1.8051  0.6189  0.9125
   91MOL   H13048910   1.521   1.198   7.630 -0.1732 -0.3431 -0.0719
   91MOL   H13148911   1.609   1.342   7.667 -0.2732 -0.3503 -1.7106
   91MOL   H13248912   1.972   0.813   7.661 -0.7000  1.0884 -0.9431
   91MOL   H13348913   1.823   0.772   7.748  1.1138  0.4918  1.1169
   91MOL   H13448914   1.812   0.807   7.578  0.5732 -0.5995 -0.4861
   91MOL   H13548915   1.922   1.179   7.620 -0.3753 -0.4028 -0.2573
   91MOL   H13648916   2.053   1.079   7.650 -0.9140  1.4726  2.7688
   91MOL   C13748917   2.363   0.506   7.181  0.2007  0.1550  0.9484
   91MOL   C13848918   2.412   0.572   7.306 -0.0540 -0.0071  0.1154
   91MOL   C13948919   2.323   0.558   7.429  0.5341  0.2662  0.0034
   91MOL   C14048920   2.273   0.694   7.471 -0.3443 -0.3225 -0.0689
   91MOL   C14148921   2.171   0.750   7.370  0.1789  0.1912  0.3174
   91MOL   O14248922   2.131   0.877   7.433 -0.1399 -0.1264  0.2877
   91MOL   C14348923   2.001   0.924   7.409  0.1974  0.2937 -0.2829
   91MOL   O14448924   1.919   0.849   7.355  0.1047  0.2300 -0.3382
   91MOL   C14548925   1.961   1.069   7.451 -0.7038 -0.2964  0.1196
   91MOL   C14648926   1.827   1.103   7.392  0.1321 -0.1374 -0.3705
   91MOL   C14748927   2.069   1.176   7.405  0.4586  0.3459  0.3001
   91MOL   H14848928   2.362   0.397   7.183 -1.1609  0.1151 -0.6089
   91MOL   H14948929   2.425   0.525   7.093  0.6651 -3.0777  0.5283
   91MOL   H15048930   2.258   0.528   7.160  0.1347 -0.2473  0.8462
   91MOL   H15148931   2.423   0.675   7.273 -3.1217  0.0461 -0.9523
   91MOL   H15248932   2.515   0.547   7.330  0.0239 -0.3932 -0.6010
   91MOL   H15348933   2.242   0.486   7.417  1.1759 -0.4933  0.2727
   91MOL   H15448934   2.391   0.525   7.507 -0.1732 -0.9303  0.1256
   91MOL   H15548935   2.228   0.687   7.570  0.3658 -1.1683  0.1987
   91MOL   H15648936   2.359   0.761   7.471 -1.6524  1.3872  0.6133
   91MOL   H15748937   2.095   0.672   7.367  1.2101 -0.8000 -0.3721
   91MOL   H15848938   2.211   0.769   7.271  1.7093  1.5346  1.1708
   91MOL   H15948939   1.836   1.109   7.283 -1.0470 -0.7201 -0.5053
   91MOL   H16048940   1.797   1.200   7.430  0.9426 -0.3364  0.8106
   91MOL   H16148941   1.748   1.030   7.408 -0.8655  0.4029 -2.6424
   91MOL   H16248942   2.038   1.269   7.454  0.0360  0.4483 -0.1608
   91MOL   H16348943   2.159   1.144   7.458  0.4043 -0.8575 -0.3168
   91MOL   C16448944   1.973   1.313   6.503  0.0278  0.5144  0.4375
   91MOL   C16548945   2.002   1.418   6.609 -0.5507 -0.3629 -0.0891
   91MOL   C16648946   2.007   1.364   6.751 -0.3029 -0.1051  0.5127
   91MOL   C16748947   2.017   1.474   6.859 -0.2701 -0.9878 -0.7766
   91MOL   C16848948   1.950   1.458   6.997  0.3484  0.3007  0.6176
   91MOL   O16948949   2.013   1.349   7.068  0.2095 -0.0301  0.7426
   91MOL   C17048950   2.000   1.332   7.200 -0.0526 -0.0593  0.2757
   91MOL   O17148951   1.919   1.388   7.274 -0.1506 -0.5302  0.2376
   91MOL   C17248952   2.091   1.219   7.253 -0.2852 -0.1976  0.1690
   91MOL   C17348953   2.074   1.104   7.153 -0.1011 -0.2432  0.3853
   91MOL   C17448954   2.250   1.258   7.223 -0.0339 -0.0145 -0.4455
   91MOL   H17548955   2.046   1.233   6.503  0.0461  0.5269  1.6836
   91MOL   H17648956   1.974   1.350   6.400  0.8449 -2.2960 -0.6149
   91MOL   H17748957   1.877   1.263   6.517 -0.0511  0.5089 -0.1039
   91MOL   H17848958   1.913   1.480   6.605  0.4537  1.1029  0.0815
   91MOL   H17948959   2.089   1.476   6.579  0.3638 -2.3304 -1.3718
   91MOL   H18048960   1.922   1.306   6.787  1.2825 -2.0917  1.1779
   91MOL   H18148961   2.097   1.303   6.760  0.1443  0.9140  3.2660
   91MOL   H18248962   1.972   1.565   6.820 -0.9299  1.1139  4.4559
   91MOL   H18348963   2.123   1.486   6.879 -0.2487 -0.9026 -0.9395
   91MOL   H18448964   1.844   1.436   6.986  0.1837  0.8481  1.0722
   91MOL   H18548965   1.960   1.552   7.053  0.3318  0.5470  0.2114
   91MOL   H18648966   2.140   1.023   7.184 -0.3012  0.0193  1.4996
   91MOL   H18748967   2.107   1.129   7.052 -2.7050  1.6252 -0.0567
   91MOL   H18848968   1.974   1.060   7.148 -0.0834 -0.4610  1.8077
   91MOL   H18948969   2.308   1.166   7.227  1.0211  0.6069 -1.2389
   91MOL   H19048970   2.243   1.280   7.116 -1.8136  0.5399 -0.2331
   91MOL   C19148971   2.433   0.843   0.184 -0.5424 -0.2851  0.9445
   91MOL   C19248972   2.389   0.886   0.046 -0.2647 -0.0483  0.2101
   91MOL   C19348973   2.415   1.035   0.011  0.2275 -0.7501  0.6021
   91MOL   C19448974   2.382   1.072   7.671 -0.6734 -0.1843  0.1493
   91MOL   C19548975   2.414   1.218   7.639 -0.0795 -0.6786 -0.0256
   91MOL   O19648976   2.404   1.246   7.500  0.1088  0.8125 -0.2563
   91MOL   C19748977   2.325   1.344   7.453  0.0077  1.0722 -0.8474
   91MOL   O19848978   2.252   1.407   7.531 -0.5139 -0.2434  0.0598
   91MOL   C19948979   2.332   1.373   7.298 -0.2737 -0.0809  0.1876
   91MOL   C20048980   2.263   1.516   7.275  0.0190  0.0887 -0.0657
   91MOL   C20148981   2.488   1.362   7.267 -0.1784  0.2661  0.1291
   91MOL   H20248982   2.386   0.907   0.258 -0.2516  1.4037 -0.3204
   91MOL   H20348983   2.394   0.743   0.206  1.7214 -1.4446 -0.1543
   91MOL   H20448984   2.539   0.847   0.207 -0.3772  0.1545  0.1270
   91MOL   H20548985   2.283   0.864   0.037 -0.9225  2.4856  1.2328
   91MOL   H20648986   2.448   0.829   7.788 -2.4404 -1.2343 -0.6893
   91MOL   H20748987   2.523   1.052   0.010  0.2525 -0.9563 -1.1136
   91MOL   H20848988   2.364   1.099   0.083 -0.2542  0.8926 -1.1625
   91MOL   H20948989   2.449   1.005   7.617 -0.3569 -0.2488  0.6244
   91MOL   H21048990   2.278   1.056   7.643 -0.2339 -1.0603 -1.0088
   91MOL   H21148991   2.349   1.276   7.704 -0.3176 -1.2139  0.2155
   91MOL   H21248992   2.515   1.240   7.673  0.4046 -1.4509 -0.9302
   91MOL   H21348993   2.284   1.558   7.177 -0.2797 -1.6955 -0.9038
   91MOL   H21448994   2.292   1.587   7.353 -3.4272 -1.0717  2.4115
   91MOL   H21548995   2.155   1.521   7.287  0.2085  3.4927  0.7097
   91MOL   H21648996   2.510   1.256   7.280 -1.0962  0.3117  2.3389
   91MOL   H21748997   2.534   1.418   7.349  0.5528 -0.9244  0.5423
   91MOL   C21848998   2.869   2.159   6.766 -0.1582  0.3148  0.1864
   91MOL   C21948999   2.830   2.009   6.765  0.3091  0.1788 -0.4046
   91MOL   C22049000   2.766   1.952   6.890 -0.1302 -0.9947 -0.4222
   91MOL   C22149001   2.752   1.794   6.881  0.1090  0.1465  0.0314
   91MOL   C22249002   2.660   1.754   6.999 -0.0153  0.7018  0.4498
   91MOL   O22349003   2.626   1.615   7.009 -0.2287 -0.8804  0.5432
   91MOL   C22449004   2.563   1.576   7.122 -0.4038  0.3428  0.0356
   91MOL   O22549005   2.535   1.645   7.219  0.0386 -0.2998 -0.4777
   91MOL   C22649006   2.561   1.421   7.134  0.3006  0.6870 -0.3372
   91MOL   C22749007   2.487   1.361   7.020  0.7994  0.1192 -0.0595
   91MOL   C22849008   2.706   1.366   7.120  0.4967  0.0539 -0.2358
   91MOL   H22949009   2.945   2.193   6.837  0.3569  1.5346 -0.9293
   91MOL   H23049010   2.920   2.191   6.675 -0.7524 -0.6383 -0.4911
   91MOL   H23149011   2.785   2.226   6.779 -0.2345 -0.0065  1.3929
   91MOL   H23249012   2.922   1.955   6.741  1.3666  2.1105 -0.7230
   91MOL   H23349013   2.755   1.986   6.689  0.5890  1.6396 -1.1263
   91MOL   H23449014   2.669   2.001   6.897  0.1828 -0.3497 -0.6050
   91MOL   H23549015   2.827   1.968   6.979 -0.3926 -0.3668 -0.3484
   91MOL   H23649016   2.706   1.768   6.786 -4.3310  1.8765  1.5593
   91MOL   H23749017   2.848   1.744   6.889 -0.0696 -0.3952 -1.1910
   91MOL   H23849018   2.564   1.805   6.994  0.5543  1.6841 -0.6196
   91MOL   H23949019   2.713   1.778   7.091 -1.3009 -1.0229  1.6700
   91MOL   H24049020   2.442   1.269   7.056 -1.6257  0.0721 -3.0382
   91MOL   H24149021   2.544   1.345   6.929  2.1230 -0.8385  0.9281
   91MOL   H24249022   2.412   1.434   6.991  0.0822  0.3902  2.3110
   91MOL   H24349023   2.736   1.395   7.019 -1.7418  0.8411 -0.6873
   91MOL   H24449024   2.700   1.257   7.120  0.2240  0.0699 -0.4358
   91MOL   C24549025   2.700   0.638   7.625  0.1523  0.6393  0.1244
   91MOL   C24649026   2.743   0.728   7.506 -0.2716  0.7068  0.2935
   91MOL   C24749027   2.751   0.874   7.546 -0.2967  0.4672 -0.4871
   91MOL   C24849028   2.776   0.967   7.425 -0.4826 -0.6895 -0.4823
   91MOL   C24949029   2.744   1.113   7.443 -0.9258  1.0153 -0.7414
   91MOL   O25049030   2.765   1.190   7.329 -0.0561  0.0770  0.0855
   91MOL   C25149031   2.794   1.323   7.350 -0.7422 -0.2606  0.4616
   91MOL   O25249032   2.787   1.384   7.457  0.2728  0.1642 -0.2416
   91MOL   C25349033   2.826   1.389   7.216 -0.1167  1.0552 -0.2259
   91MOL   C25449034   2.862   1.531   7.237 -0.8327  0.2514 -0.4422
   91MOL   C25549035   2.942   1.310   7.145  0.9673  0.5461 -0.2562
   91MOL   H25649036   2.729   0.669   7.725  1.4610 -2.7158  0.8514
   91MOL   H25749037   2.592   0.628   7.615  0.2238  1.6450 -1.8656
   91MOL   H25849038   2.746   0.541   7.606 -1.3375 -0.1452  0.4712
   91MOL   H25949039   2.839   0.703   7.461  1.1835  1.5984  2.7914
   91MOL   H26049040   2.681   0.702   7.420  0.8844 -1.4171  0.0688
   91MOL   H26149041   2.821   0.886   7.629  2.4229 -2.1467 -2.3018
   91MOL   H26249042   2.652   0.904   7.580 -0.8068 -2.0810  0.4015
   91MOL   H26349043   2.877   0.958   7.385  0.8811  0.2315  2.6030
   91MOL   H26449044   2.705   0.933   7.349 -1.8155  1.2058 -0.1186
   91MOL   H26549045   2.647   1.136   7.488 -1.2348 -0.3491 -0.6650
   91MOL   H26649046   2.811   1.139   7.525  0.5954  1.5136 -2.1147
   91MOL   H26749047   2.904   1.598   7.162 -0.0918  0.3257  0.0300
   91MOL   H26849048   2.775   1.585   7.275  0.4942  1.1275  1.4506
   91MOL   H26949049   2.930   1.543   7.321 -0.3810 -0.2598 -0.7286
   91MOL   H27049050   2.914   1.205   7.132 -2.0809  1.4933 -1.8622
   91MOL   H27149051   2.947   1.355   7.046 -0.6840 -1.4405 -1.2812
   91MOL   C27249052   3.238   2.060   6.850  0.5991  0.0763  0.0558
   91MOL   C27349053   3.208   1.905   6.883 -0.2354 -0.1573  0.1249
   91MOL   C27449054   3.217   1.869   7.034 -0.2073 -0.5040 -0.3201
   91MOL   C27549055   3.140   1.738   7.068  0.0436  0.9895 -0.3123
   91MOL   C27649056   3.204   1.609   7.009 -0.3344  0.4150 -1.1277
   91MOL   O27749057   3.136   1.496   7.052 -0.0154 -0.4483 -0.5724
   91MOL   C27849058   3.166   1.434   7.174  0.6904 -0.3975 -0.2173
   91MOL   O27949059   3.239   1.488   7.253 -0.0974 -0.7488  0.4413
   91MOL   C28049060   3.088   1.305   7.204  1.2220 -0.2692  0.1349
   91MOL   C28149061   3.089   1.270   7.356 -0.1305  0.4958 -0.2288
   91MOL   C28249062   3.158   1.187   7.130 -0.3830 -0.2149  0.4255
   91MOL   H28349063   3.333   2.095   6.890  0.4000 -0.9396  1.4965
   91MOL   H28449064   3.243   2.075   6.743  0.3324  1.8446  0.2733
   91MOL   H28549065   3.161   2.125   6.894 -0.0612 -1.4809  1.2589
   91MOL   H28649066   3.105   1.889   6.851 -0.4439  0.4315  0.4848
   91MOL   H28749067   3.288   1.848   6.836 -0.1690 -0.0407  0.0951
   91MOL   H28849068   3.321   1.849   7.060 -1.1618 -0.7729  3.6137
   91MOL   H28949069   3.165   1.947   7.091 -0.9472 -0.7744 -0.6124
   91MOL   H29049070   3.134   1.721   7.176  2.6138  0.6319 -0.1935
   91MOL   H29149071   3.037   1.756   7.040 -0.4812  1.0864  1.6265
   91MOL   H29249072   3.311   1.601   7.028 -0.1302 -1.6485 -2.9216
   91MOL   H29349073   3.190   1.619   6.901 -1.3426 -0.5162 -1.0850
   91MOL   H29449074   3.016   1.201   7.399  0.8117 -0.9800 -0.9343
   91MOL   H29549075   3.186   1.236   7.391 -0.1923 -0.5612 -1.0531
   91MOL   H29649076   3.075   1.359   7.417 -1.1787 -0.4397  0.9426
   91MOL   H29749077   3.101   1.102   7.167  1.4136 -1.4917  0.3549
   91MOL   H29849078   3.129   1.204   7.026 -1.2028  2.8390  1.0893
   91MOL   C29949079   3.988   1.470   6.753  1.0780 -0.5118 -0.3102
   91MOL   C30049080   3.868   1.416   6.831 -0.2842  0.3689  0.4534
   91MOL   C30149081   3.820   1.272   6.796  0.2920 -0.7401 -0.1656
   91MOL   C30249082   3.733   1.224   6.913  0.3250  0.0686  0.2223
   91MOL   C30349083   3.590   1.257   6.884  0.4192 -0.1330 -0.2333
   91MOL   O30449084   3.515   1.231   6.998 -0.7675  0.0263  0.3571
   91MOL   C30549085   3.384   1.250   7.013 -0.5544 -0.8180 -0.0790
   91MOL   O30649086   3.327   1.331   6.942  0.0771  0.1251  0.1055
   91MOL   C30749087   3.316   1.163   7.122 -0.2776 -0.6415  0.5513
   91MOL   C30849088   3.385   1.184   7.259  0.3507 -0.0862 -0.0868
   91MOL   C30949089   3.318   1.013   7.077 -0.4936 -0.3598  0.1177
   91MOL   H31049090   4.013   1.568   6.794  4.1321 -1.6226  0.6285
   91MOL   H31149091   3.981   1.474   6.645 -0.7487 -3.7377 -0.3800
   91MOL   H31249092   4.077   1.408   6.767  2.1054  0.3887 -2.5701
   91MOL   H31349093   3.799   1.499   6.813  0.3357  0.5601 -1.1078
   91MOL   H31449094   3.895   1.414   6.937  0.5304 -1.9174  0.2423
   91MOL   H31549095   3.907   1.206   6.790 -0.4122 -1.6103 -1.0125
   91MOL   H31649096   3.764   1.263   6.703  0.0775  3.4401 -0.5289
   91MOL   H31749097   3.757   1.273   7.007 -0.9213 -2.2494  1.7921
   91MOL   H31849098   3.747   1.117   6.923  2.0682  0.2107 -0.4516
   91MOL   H31949099   3.582   1.360   6.852  0.6458  0.2785  1.0159
   91MOL   H32049100   3.543   1.200   6.803  1.5790 -0.6366 -0.5639
   91MOL   H32149101   3.339   1.123   7.337 -2.2943  0.3981 -1.2055
   91MOL   H32249102   3.492   1.169   7.251  0.6804  0.3147  2.8926
   91MOL   H32349103   3.375   1.289   7.290  1.9849  0.3553 -1.0334
   91MOL   H32449104   3.409   1.005   7.017 -2.5021 -0.1140 -3.0783
   91MOL   H32549105   3.249   0.991   6.996 -0.4069  3.2562 -1.0440
   91MOL   C32649106   3.918   0.471   7.098 -0.8836  0.2296  1.1488
   91MOL   C32749107   3.854   0.553   7.211 -0.1231 -0.6528  0.0116
   91MOL   C32849108   3.783   0.683   7.167 -0.1901  0.2699  0.7252
   91MOL   C32949109   3.722   0.750   7.298 -0.0585 -0.4723 -0.4971
   91MOL   C33049110   3.678   0.898   7.272 -0.3533 -0.2228  0.3006
   91MOL   O33149111   3.555   0.898   7.199 -0.5014  0.3920  0.9349
   91MOL   C33249112   3.436   0.882   7.270 -0.7530  0.1758  0.2878
   91MOL   O33349113   3.426   0.859   7.388 -0.9165 -0.0147 -0.6521
   91MOL   C33449114   3.315   0.885   7.178 -0.6581  0.3337 -0.2310
   91MOL   C33549115   3.184   0.878   7.266 -0.1408  0.1578 -0.5767
   91MOL   C33649116   3.333   0.760   7.079  0.1159  0.4787  0.2618
   91MOL   H33749117   3.838   0.435   7.034 -1.4365  0.5586  1.6554
   91MOL   H33849118   3.981   0.387   7.128  2.9491  1.9982 -1.6242
   91MOL   H33949119   3.975   0.534   7.029 -1.0816 -0.1088  0.6749
   91MOL   H34049120   3.930   0.590   7.281 -0.3977  1.2672 -0.6675
   91MOL   H34149121   3.795   0.489   7.277 -0.8189  0.0172  0.0473
   91MOL   H34249122   3.708   0.655   7.092  0.6428  0.4657 -0.1958
   91MOL   H34349123   3.848   0.753   7.115 -0.1031  0.1963  0.7352
   91MOL   H34449124   3.797   0.761   7.377 -1.0990  2.3201  0.1775
   91MOL   H34549125   3.637   0.691   7.331  0.6444 -1.9092 -1.2028
   91MOL   H34649126   3.755   0.944   7.210 -0.0096  0.4253  1.1920
   91MOL   H34749127   3.674   0.936   7.374  2.4620  0.7220  0.0912
   91MOL   H34849128   3.180   0.799   7.341 -3.7005  0.7239 -0.0611
   91MOL   H34949129   3.095   0.874   7.203  0.8835  0.0963 -2.0346
   91MOL   H35049130   3.166   0.971   7.320  1.1192  1.4829 -2.3877
   91MOL   H35149131   3.431   0.750   7.032 -0.0297  0.5849 -0.0618
   91MOL   H35249132   3.287   0.790   6.985 -0.5421 -0.9250  0.1239
   91MOL   C35349133   2.860   1.097   6.708 -0.0033 -0.2785 -0.0152
   91MOL   C35449134   2.854   1.039   6.850 -0.2430 -0.9795  0.3178
   91MOL   C35549135   2.922   0.901   6.868 -0.8975 -0.4089  0.3367
   91MOL   C35649136   2.869   0.830   6.997  0.0489 -0.2620  0.7047
   91MOL   C35749137   2.917   0.686   7.020 -0.0903 -0.2808 -0.2272
   91MOL   O35849138   3.059   0.681   7.022  0.6291  0.0606 -0.4302
   91MOL   C35949139   3.121   0.625   7.124 -0.1481  0.6120  0.3731
   91MOL   O36049140   3.071   0.586   7.226  0.3593  0.0809 -0.4372
   91MOL   C36149141   3.273   0.612   7.105  0.0835 -0.0614  0.4349
   91MOL   C36249142   3.339   0.562   7.233 -0.4323  0.0487 -0.7310
   91MOL   C36349143   3.308   0.533   6.975  0.7651 -0.0323 -0.7081
   91MOL   H36449144   2.792   1.031   6.653  0.8127 -0.8886 -0.3145
   91MOL   H36549145   2.963   1.083   6.674 -0.6359 -2.8969 -1.0414
   91MOL   H36649146   2.834   1.202   6.704  1.1567 -0.0230 -1.6546
   91MOL   H36749147   2.904   1.111   6.914  2.4744 -0.4564 -2.2839
   91MOL   H36849148   2.750   1.030   6.880 -0.1991 -2.5170  0.0824
   91MOL   H36949149   3.030   0.911   6.877 -0.8709 -0.7439  0.4039
   91MOL   H37049150   2.898   0.839   6.781  1.9438 -0.3045 -0.5796
   91MOL   H37149151   2.761   0.817   6.994 -0.0484  0.8744 -1.3854
   91MOL   H37249152   2.907   0.884   7.085 -1.7188  1.0337  0.6898
   91MOL   H37349153   2.879   0.650   7.116  3.2261  1.4897  1.8136
   91MOL   H37449154   2.880   0.627   6.936  1.0720 -0.7348 -0.4211
   91MOL   H37549155   3.444   0.539   7.219 -0.8631 -1.2861 -1.9651
   91MOL   H37649156   3.339   0.632   7.316  0.4568 -0.7727 -0.0322
   91MOL   H37749157   3.302   0.466   7.268 -1.5889  0.8437  0.2807
   91MOL   H37849158   3.277   0.583   6.883  0.8818  0.4550 -0.4815
   91MOL   H37949159   3.416   0.518   6.976  0.4875 -2.2913 -0.6444
   91MOL   C38049160   3.647   0.382   7.569  0.2454  0.5672 -0.1422
   91MOL   C38149161   3.690   0.253   7.500 -0.8067  0.2690  0.2020
   91MOL   C38249162   3.574   0.183   7.418  0.8147  0.8349 -0.4923
   91MOL   C38349163   3.534   0.266   7.301  0.0096  0.0666  0.7344
   91MOL   C38449164   3.454   0.185   7.199 -0.1155  0.5467  0.2585
   91MOL   O38549165   3.422   0.268   7.097 -0.1033  0.0070  0.0397
   91MOL   C38649166   3.291   0.284   7.064 -0.0053  0.8067  0.3370
   91MOL   O38749167   3.199   0.223   7.113 -0.1704  0.2958 -0.2767
   91MOL   C38849168   3.259   0.384   6.945 -0.0225 -0.4954 -0.3059
   91MOL   C38949169   3.107   0.388   6.924 -1.0346  0.3401 -0.1298
   91MOL   C39049170   3.341   0.352   6.812  0.3903  0.6772 -0.1338
   91MOL   H39149171   3.727   0.439   7.618 -2.2611  1.4914  3.0533
   91MOL   H39249172   3.593   0.451   7.504  0.4708 -0.6033 -1.5859
   91MOL   H39349173   3.579   0.355   7.650  0.3128  0.1418 -0.2303
   91MOL   H39449174   3.725   0.185   7.578  1.9730  0.8924 -0.4530
   91MOL   H39549175   3.776   0.274   7.437 -1.2307  2.5817  0.3626
   91MOL   H39649176   3.602   0.083   7.384  0.5539 -0.1383  2.0120
   91MOL   H39749177   3.484   0.175   7.480  0.4885  0.0876 -1.0518
   91MOL   H39849178   3.487   0.361   7.327  0.8487  0.6166  0.2605
   91MOL   H39949179   3.627   0.294   7.251 -1.8597 -2.0685 -4.3174
   91MOL   H40049180   3.379   0.129   7.254  1.3541  0.7993  2.5686
   91MOL   H40149181   3.523   0.114   7.153  0.8242  0.4956  1.7058
   91MOL   H40249182   3.062   0.400   7.022  2.9405 -1.7490  2.0650
   91MOL   H40349183   3.075   0.291   6.886  1.6638 -0.8901  0.6106
   91MOL   H40449184   3.083   0.472   6.858 -0.8047  1.0364  0.6660
   91MOL   H40549185   3.438   0.317   6.848  0.5400 -1.8377 -2.7850
   91MOL   H40649186   3.369   0.447   6.767 -1.1452  1.0526 -0.3354
   91MOL   C40749187   3.269   0.938   6.640 -0.2070  0.6288  0.4075
   91MOL   C40849188   3.150   0.845   6.603  0.3399 -0.0635 -0.5593
   91MOL   C40949189   3.207   0.711   6.553 -0.1324  0.1346 -0.3340
   91MOL   C41049190   3.097   0.603   6.536 -0.6921 -0.0598 -0.3153
   91MOL   C41149191   3.130   0.471   6.462  0.1707 -0.3741 -0.5664
   91MOL   O41249192   3.225   0.399   6.545  0.0189  0.5122 -0.4725
   91MOL   C41349193   3.186   0.298   6.622 -0.0483 -0.0153 -0.3969
   91MOL   O41449194   3.066   0.266   6.629 -0.2462  0.5309  0.7582
   91MOL   C41549195   3.299   0.241   6.713 -0.1429  0.1883 -0.6193
   91MOL   C41649196   3.416   0.226   6.616 -0.0463  0.7920 -0.5737
   91MOL   C41749197   3.275   0.104   6.784 -0.2012 -0.4878 -0.1972
   91MOL   H41849198   3.322   0.977   6.553 -1.0672  2.5815  0.7250
   91MOL   H41949199   3.216   1.023   6.683 -0.6679  0.7380 -0.3674
   91MOL   H42049200   3.325   0.898   6.724 -0.8806 -1.6303 -0.1988
   91MOL   H42149201   3.081   0.897   6.536 -0.3903  1.1250  1.0669
   91MOL   H42249202   3.086   0.838   6.692  1.4193 -0.1913  0.2106
   91MOL   H42349203   3.232   0.713   6.447  0.0635  0.3937 -0.2808
   91MOL   H42449204   3.294   0.677   6.610 -0.5404 -0.4971 -0.0684
   91MOL   H42549205   3.015   0.650   6.482 -0.4766  0.7172  0.0250
   91MOL   H42649206   3.052   0.587   6.634  0.6480 -0.9638  0.1644
   91MOL   H42749207   3.040   0.413   6.441 -0.7069  0.2868  1.2494
   91MOL   H42849208   3.169   0.492   6.362  0.2783 -1.6514 -0.8026
   91MOL   H42949209   3.445   0.321   6.572 -0.0322 -0.9630 -4.5598
   91MOL   H43049210   3.392   0.162   6.531 -1.8901 -0.3332  0.7469
   91MOL   H43149211   3.508   0.188   6.661  0.7850  0.1547 -2.7586
   91MOL   H43249212   3.191   0.126   6.850  0.8043  0.6068  0.7444
   91MOL   H43349213   3.356   0.098   6.857  0.1481  1.1279 -0.4348
   91MOL   C43449214   3.712   7.172   6.405 -0.5495 -0.0100 -0.2827
   91MOL   C43549215   3.605   7.288   6.400 -0.2792  0.1289 -0.3266
   91MOL   C43649216   3.502   7.261   6.514 -0.4519  0.6851  0.7049
   91MOL   C43749217   3.394   7.374   6.519 -0.0180  0.3798 -0.0669
   91MOL   C43849218   3.450   7.516   6.525 -0.3326 -0.4346  0.0198
   91MOL   O43949219   3.345   7.595   6.573  0.1399 -0.9427  0.1756
   91MOL   C44049220   3.376   7.714   6.638  0.8038  0.1681  0.1274
   91MOL   O44149221   3.491   7.754   6.641  0.6407 -0.2966 -0.2022
   91MOL   C44249222   3.255   7.777   6.711  1.2959  0.0487  0.0009
   91MOL   C44349223   3.146   7.795   6.612  0.0140  0.4744 -0.3912
   91MOL   C44449224   3.199   7.675   6.813 -0.1654  0.5478 -0.0615
   91MOL   H44549225   3.776   7.182   6.492 -0.3649 -3.3451  0.0347
   91MOL   H44649226   3.674   7.071   6.422 -0.9319  0.6726  3.2149
   91MOL   H44749227   3.758   7.171   6.306 -0.5500  0.4170 -0.2877
   91MOL   H44849228   3.656   7.385   6.404 -1.9194  0.9708  0.4831
   91MOL   H44949229   3.549   7.286   6.306 -0.3513  2.1581 -0.3527
   91MOL   H45049230   3.467   7.163   6.484  0.1132  0.4405  0.8266
   91MOL   H45149231   3.545   7.233   6.610  3.6340  0.3381 -1.0841
   91MOL   H45249232   3.321   7.344   6.595 -0.9564 -0.8752 -1.4220
   91MOL   H45349233   3.337   7.358   6.427  1.2255  2.1247 -1.1535
   91MOL   H45449234   3.474   7.562   6.429  0.4460 -0.3329  0.2596
   91MOL   H45549235   3.537   7.512   6.590 -1.6022 -0.7445  1.7566
   91MOL   H45649236   3.048   0.014   6.647  0.9287  2.2467  0.5557
   91MOL   H45749237   3.174   0.026   6.517 -0.3732 -0.6263 -1.0319
   91MOL   H45849238   3.125   7.697   6.568 -0.0673  0.6350 -0.7124
   91MOL   H45949239   3.149   7.597   6.756 -0.5573  0.3197  0.5818
   91MOL   H46049240   3.110   7.720   6.857 -2.5967 -2.7431 -1.4477
   91MOL   C46149241   2.820   7.546   7.539  0.6612  0.3002 -0.2061
   91MOL   C46249242   2.821   7.519   7.386  0.0915 -0.2448 -0.1327
   91MOL   C46349243   2.952   7.568   7.323  0.3538  0.8544 -0.9458
   91MOL   C46449244   2.947   7.704   7.270  0.5052 -1.0563 -0.1193
   91MOL   C46549245   3.079   7.762   7.219  0.2316 -0.0189 -0.1710
   91MOL   O46649246   3.120   7.707   7.095  0.1340 -0.0413 -0.2488
   91MOL   C46749247   3.250   7.693   7.063  0.4396 -0.3633 -0.2145
   91MOL   O46849248   3.343   7.733   7.132  0.1217 -0.1046 -0.5456
   91MOL   C46949249   3.274   7.608   6.937  0.0763 -0.5004 -0.0202
   91MOL   C47049250   3.431   7.604   6.915  0.2603 -0.4612  0.5715
   91MOL   C47149251   3.213   7.461   6.948 -0.6442 -0.3937  0.1066
   91MOL   H47249252   2.728   7.500   7.575  1.2820 -1.2135 -0.4844
   91MOL   H47349253   2.810   7.653   7.551 -2.5928  0.0897 -0.7030
   91MOL   H47449254   2.899   7.503   7.601  0.8069 -1.6126 -1.6402
   91MOL   H47549255   2.733   7.555   7.334  0.9566 -0.2867 -1.6670
   91MOL   H47649256   2.816   7.410   7.373  1.4129 -0.1729 -1.4327
   91MOL   H47749257   2.974   7.517   7.229  1.7931  2.2314 -1.3848
   91MOL   H47849258   3.036   7.541   7.387 -0.1134 -0.4892 -0.8812
   91MOL   H47949259   2.907   7.776   7.341  0.0417 -0.6224 -0.8031
   91MOL   H48049260   2.872   7.711   7.191 -1.3855 -2.2829  1.5360
   91MOL   H48149261   3.054   0.054   7.206 -1.8849 -0.6404 -1.3404
   91MOL   H48249262   3.156   7.741   7.292 -0.7880  3.6490  2.1206
   91MOL   H48349263   3.478   7.540   6.841  0.1312  0.3080 -0.1779
   91MOL   H48449264   3.475   7.567   7.008  0.6571  1.3577  1.1276
   91MOL   H48549265   3.470   7.705   6.899  1.4058 -0.8920  0.5698
   91MOL   H48649266   3.213   7.419   6.847  0.1120 -1.8220  0.6850
   91MOL   H48749267   3.108   7.473   6.977 -0.2473  0.6109  1.1514
   91MOL   C48849268   2.693   6.837   6.619 -0.3663  0.0085  0.2149
   91MOL   C48949269   2.793   6.955   6.628 -0.4023  0.2249  0.5306
   91MOL   C49049270   2.826   6.984   6.773  0.7328  0.3158  0.2859
   91MOL   C49149271   2.950   7.068   6.788 -0.0669  0.2451  0.1411
   91MOL   C49249272   2.983   7.127   6.931 -0.1963 -0.2769 -0.2480
   91MOL   O49349273   3.089   7.213   6.936 -0.1681 -0.1522 -0.0922
   91MOL   C49449274   3.151   7.245   7.046  0.2064 -1.0020 -0.1205
   91MOL   O49549275   3.130   7.197   7.156  0.3992 -0.3305 -0.3598
   91MOL   C49649276   3.280   7.346   7.025 -0.8867  0.0636  0.7074
   91MOL   C49749277   3.321   7.383   7.168 -0.5191 -0.2903 -0.4029
   91MOL   C49849278   3.386   7.260   6.935 -0.5976 -0.4015  0.3314
   91MOL   H49949279   2.618   6.858   6.695  0.0676  0.5305  0.5030
   91MOL   H50049280   2.649   6.818   6.522 -2.4486  0.9626  0.9420
   91MOL   H50149281   2.740   6.741   6.644  2.5217  1.0903 -0.8663
   91MOL   H50249282   2.762   7.045   6.575 -2.1609  0.0295  1.2030
   91MOL   H50349283   2.885   6.928   6.578  0.2834  0.8230  1.4416
   91MOL   H50449284   2.740   7.040   6.809  0.3820  0.5015 -0.8283
   91MOL   H50549285   2.828   6.894   6.834 -0.5117 -0.0829 -0.2416
   91MOL   H50649286   2.945   7.142   6.708  2.7402  0.6922  0.3242
   91MOL   H50749287   3.033   7.002   6.762 -0.4954 -0.2142 -0.0774
   91MOL   H50849288   2.895   7.183   6.962 -1.0562 -1.5081 -0.3963
   91MOL   H50949289   2.997   7.050   7.007 -0.0521  2.3595  2.4898
   91MOL   H51049290   3.340   7.304   7.241 -0.4952 -0.0042 -0.1030
   91MOL   H51149291   3.241   7.449   7.198  0.4713 -0.1131  1.9416
   91MOL   H51249292   3.416   7.437   7.168 -0.4781 -0.3316  1.0868
   91MOL   H51349293   3.439   7.333   6.875 -2.5466  2.2788  1.7393
   91MOL   H51449294   3.328   7.196   6.869  2.3448 -3.6975  0.7774
   91MOL   C51549295   4.080   7.422   6.684  0.1193  0.2079  0.9887
   91MOL   C51649296   4.010   7.496   6.793  0.2718  0.3062 -0.6029
   91MOL   C51749297   3.884   7.421   6.849  0.3459 -0.3247 -0.1899
   91MOL   C51849298   3.807   7.511   6.953  0.7309 -0.1999  0.0871
   91MOL   C51949299   3.744   7.447   7.073 -0.0775  0.3150 -0.4636
   91MOL   O52049300   3.637   7.369   7.018  0.8178 -0.0740 -0.3812
   91MOL   C52149301   3.597   7.256   7.074 -0.5090 -0.2820 -0.8313
   91MOL   O52249302   3.630   7.221   7.187  0.4090 -0.4192  0.0566
   91MOL   C52349303   3.500   7.181   6.991 -0.4396  0.1079  0.3865
   91MOL   C52449304   3.585   7.114   6.875 -0.2405  0.9881  0.2309
   91MOL   C52549305   3.437   7.063   7.070  0.9286 -0.5512 -0.2303
   91MOL   H52649306   4.124   7.331   6.725  1.0063  0.4984  0.6957
   91MOL   H52749307   4.022   7.389   6.599  0.6172 -2.4321  1.6105
   91MOL   H52849308   4.162   7.486   6.651 -0.0541  1.5284  3.0228
   91MOL   H52949309   4.068   7.514   6.883  1.4530  0.5490 -1.4043
   91MOL   H53049310   3.950   7.582   6.764 -0.4284 -0.7393 -2.3646
   91MOL   H53149311   3.812   7.398   6.770  0.9916 -2.2193 -0.2419
   91MOL   H53249312   3.915   7.330   6.900  3.8787  0.2457 -1.2459
   91MOL   H53349313   3.751   7.591   6.905  1.5505 -0.5304 -1.4229
   91MOL   H53449314   3.890   7.561   7.004  2.1654  0.0759 -2.4321
   91MOL   H53549315   3.819   7.384   7.121  0.2241  0.5946 -0.5692
   91MOL   H53649316   3.694   7.518   7.139 -1.8472 -2.3976  1.2405
   91MOL   H53749317   3.667   7.047   6.903 -0.9556  0.7495  1.8265
   91MOL   H53849318   3.642   7.188   6.820  1.3381  0.0073  0.5146
   91MOL   H53949319   3.515   7.071   6.803  1.4580 -0.9359 -0.3260
   91MOL   H54049320   3.513   6.989   7.097  0.2329 -1.7685 -1.4805
   91MOL   H54149321   3.359   7.004   7.022 -1.2118  0.5791  1.7659
   91MOL   H54249322   3.394   7.100   7.163  0.6273 -0.8745 -0.2394
   92MOL     C149323   5.622   2.707   0.721 -0.0183  0.2239 -0.1875
   92MOL     C249324   5.721   2.587   0.688  0.2947  0.4517  0.4288
   92MOL     C349325   5.756   2.581   0.540 -0.2156  0.1511 -0.1978
   92MOL     C449326   5.645   2.537   0.449  0.5847 -0.2133  0.2610
   92MOL     C549327   5.691   2.555   0.303 -0.2669 -0.6304  0.0051
   92MOL     O649328   5.693   2.687   0.271 -0.0771  0.1888  0.2863
   92MOL     C749329   5.595   2.750   0.202  0.6521 -0.0358  0.3962
   92MOL     O849330   5.491   2.704   0.156 -0.0924  0.6844 -0.3127
   92MOL     C949331   5.640   2.896   0.173  0.1810  0.2401  0.2408
   92MOL    C1049332   5.739   2.906   0.062 -0.0277 -0.2870  0.0197
   92MOL    C1149333   5.674   2.971   0.299  0.1956 -0.2067  0.1416
   92MOL    H1249334   5.661   2.805   0.694  0.2765  0.0426 -0.4211
   92MOL    H1349335   5.606   2.715   0.828  1.4801 -1.0899  0.1633
   92MOL    H1449336   5.524   2.702   0.673  0.1869 -0.0521 -0.5830
   92MOL    H1549337   5.814   2.595   0.744  0.2130 -1.5120  0.8623
   92MOL    H1649338   5.677   2.490   0.712  0.9205 -0.2930 -1.3814
   92MOL    H1749339   5.797   2.676   0.507  0.7109  0.0040  0.5127
   92MOL    H1849340   5.837   2.509   0.535  1.0578  1.4572  1.2032
   92MOL    H1949341   5.552   2.585   0.479 -0.6936 -2.0725 -0.5843
   92MOL    H2049342   5.616   2.432   0.457 -0.1261 -0.1011 -0.7335
   92MOL    H2149343   5.792   2.518   0.286  0.9341  2.4286  0.2551
   92MOL    H2249344   5.632   2.492   0.236 -1.4344  0.2960  0.1590
   92MOL    H2349345   5.715   2.988   7.809 -1.4017 -0.3560  0.4163
   92MOL    H2449346   5.756   2.812   0.009  2.6005  0.2280 -0.1317
   92MOL    H2549347   5.835   2.935   0.105 -0.6465  2.6019 -0.4926
   92MOL    H2649348   5.778   3.005   0.298  0.1526 -0.0479  1.0060
   92MOL    H2749349   5.670   2.906   0.386  0.0766 -0.9088 -0.3907
   92MOL    H2849350   5.547   2.929   0.127 -0.2388 -2.7464 -1.1568
   92MOL    C2949351   5.361   2.823   0.944  0.1792  0.0885 -0.2108
   92MOL    C3049352   5.282   2.788   0.815  0.4087 -0.6436  0.2276
   92MOL    C3149353   5.315   2.888   0.709 -0.2895  0.4733 -0.0605
   92MOL    C3249354   5.273   2.835   0.573  0.0207 -0.2776  0.6264
   92MOL    C3349355   5.273   2.921   0.445  0.4419 -0.4785 -0.5325
   92MOL    O3449356   5.404   2.971   0.435  0.0360 -0.3611  0.3840
   92MOL    C3549357   5.441   3.053   0.335 -0.1459 -0.2235  0.4147
   92MOL    O3649358   5.361   3.089   0.250 -0.0014 -0.2608  0.0664
   92MOL    C3749359   5.588   3.099   0.335  0.1143  0.0187  0.6506
   92MOL    C3849360   5.613   3.209   0.233  0.6014  0.3680 -0.3363
   92MOL    C3949361   5.628   3.141   0.480 -0.1910 -0.2080 -0.0051
   92MOL    H4049362   5.466   2.847   0.923  0.2501 -1.5409 -1.8305
   92MOL    H4149363   5.335   2.920   0.987  3.2068  0.1781  1.5464
   92MOL    H4249364   5.362   2.756   1.029 -0.4263  0.3328 -0.0082
   92MOL    H4349365   5.177   2.780   0.846  0.2501  1.6770  0.3969
   92MOL    H4449366   5.317   2.691   0.778 -0.1417 -1.0262  0.6916
   92MOL    H4549367   5.420   2.918   0.712 -0.2516  0.2502  4.6511
   92MOL    H4649368   5.250   2.975   0.722 -1.9217 -0.5994 -0.8482
   92MOL    H4749369   5.329   2.753   0.527  0.2371  0.1602  0.1158
   92MOL    H4849370   5.168   2.808   0.592  0.6785 -2.3636  1.4663
   92MOL    H4949371   5.186   2.986   0.453  0.0793 -1.0610  0.3249
   92MOL    H5049372   5.250   2.856   0.361  0.8537  1.1177 -1.9186
   92MOL    H5149373   5.707   3.263   0.242 -0.2137  1.2452  3.7514
   92MOL    H5249374   5.535   3.285   0.236 -0.7621 -1.0851  1.8281
   92MOL    H5349375   5.602   3.159   0.136 -0.5765  1.0541 -0.5742
   92MOL    H5449376   5.737   3.144   0.479 -0.2107  0.6137 -0.5320
   92MOL    H5549377   5.615   3.060   0.551  1.2702 -1.7510 -1.4618
   92MOL    C5649378   5.849   3.616   0.932  0.1429 -0.2071  0.1785
   92MOL    C5749379   5.821   3.568   0.792 -0.0131  0.0713 -0.0387
   92MOL    C5849380   5.925   3.622   0.695  0.2086  0.7221 -0.5957
   92MOL    C5949381   5.896   3.601   0.548 -0.0160  0.3615  0.6681
   92MOL    C6049382   5.902   3.460   0.490  0.4578  0.1685 -0.0868
   92MOL    O6149383   5.808   3.369   0.536 -0.1656  0.1940  0.2935
   92MOL    C6249384   5.681   3.382   0.494  0.6386 -0.4671 -0.1036
   92MOL    O6349385   5.644   3.468   0.407 -0.5400  0.3825 -0.8651
   92MOL    C6449386   5.582   3.276   0.549 -0.9617 -0.5882  0.0928
   92MOL    C6549387   5.602   3.259   0.701 -0.2093  0.5119 -0.3343
   92MOL    C6649388   5.429   3.313   0.515  0.4195  0.4870 -0.3071
   92MOL    H6749389   5.791   3.555   1.000 -0.2512  0.1524  0.1630
   92MOL    H6849390   5.825   3.721   0.947  3.0227  0.2969  1.6621
   92MOL    H6949391   5.953   3.600   0.961  1.2165  3.9308 -1.0743
   92MOL    H7049392   5.813   3.459   0.784  0.4481 -0.0224  0.7363
   92MOL    H7149393   5.727   3.610   0.757 -0.5794  1.6835  3.2055
   92MOL    H7249394   5.949   3.726   0.713 -0.2859  0.8040 -0.4206
   92MOL    H7349395   6.021   3.575   0.718  0.7131  1.4780 -1.1155
   92MOL    H7449396   5.979   3.648   0.495  0.0145  0.0017  0.3931
   92MOL    H7549397   5.806   3.649   0.510  0.8711 -0.3858 -2.5047
   92MOL    H7649398   5.914   3.462   0.381  1.3401  0.2213  0.0118
   92MOL    H7749399   5.996   3.423   0.531 -0.7001 -2.9087 -0.0678
   92MOL    H7849400   5.577   3.353   0.749 -0.7284  0.1533  0.1095
   92MOL    H7949401   5.698   3.229   0.744 -0.4330 -1.7255 -1.3037
   92MOL    H8049402   5.539   3.185   0.750  0.5252  0.3660  0.3909
   92MOL    H8149403   5.376   3.218   0.520  0.8859  0.2996  1.5519
   92MOL    H8249404   5.415   3.341   0.411  0.3266  1.4671 -0.0430
   92MOL    C8349405   4.800   2.997   1.107  0.3080 -0.3188 -0.0794
   92MOL    C8449406   4.871   3.050   0.983 -0.2200 -0.1788  0.2134
   92MOL    C8549407   5.011   3.113   0.996 -0.1197 -0.6025 -0.1701
   92MOL    C8649408   5.055   3.164   0.858  0.3715  0.2289 -0.3934
   92MOL    C8749409   5.195   3.223   0.878  0.1490 -1.1596  0.4105
   92MOL    O8849410   5.242   3.268   0.745  0.5767 -0.2468 -0.8198
   92MOL    C8949411   5.310   3.384   0.734 -0.7085  0.4555 -0.2930
   92MOL    O9049412   5.341   3.461   0.826 -0.5285 -0.0507  0.3651
   92MOL    C9149413   5.339   3.421   0.588  0.2140  0.1581 -0.1427
   92MOL    C9249414   5.415   3.558   0.570  0.1816  0.8503  0.1664
   92MOL    C9349415   5.196   3.428   0.506  0.2066  0.0871 -0.4663
   92MOL    H9449416   4.696   2.965   1.100  0.5221 -1.0974  0.3269
   92MOL    H9549417   4.865   2.922   1.152  1.4205 -0.3782 -1.7155
   92MOL    H9649418   4.801   3.082   1.176  1.3666 -1.2424  1.0667
   92MOL    H9749419   4.808   3.132   0.951 -0.4506 -0.3664  0.1810
   92MOL    H9849420   4.865   2.977   0.902  1.3378  0.6814 -0.7015
   92MOL    H9949421   5.074   3.037   1.042 -1.2762 -0.9075  0.9242
   92MOL   H10049422   5.017   3.194   1.070 -1.7541 -0.9557  0.3564
   92MOL   H10149423   4.983   3.229   0.808  1.3703 -0.4261 -2.7741
   92MOL   H10249424   5.064   3.082   0.787 -0.4219  0.4690 -0.7772
   92MOL   H10349425   5.269   3.149   0.909  1.4771  0.4495  1.1723
   92MOL   H10449426   5.196   3.304   0.951  0.4235 -0.8910  0.1117
   92MOL   H10549427   5.434   3.586   0.467  0.1695  0.9219  0.1832
   92MOL   H10649428   5.512   3.561   0.621  0.4901  2.7581 -0.4972
   92MOL   H10749429   5.352   3.633   0.617 -1.6295 -1.0782  0.8961
   92MOL   H10849430   5.229   3.442   0.404  0.2880  0.1750 -0.4277
   92MOL   H10949431   5.157   3.326   0.512  1.5861 -0.4122  0.2789
   92MOL   C11049432   5.105   4.276   0.153 -0.9908 -1.1346  0.5044
   92MOL   C11149433   5.055   4.133   0.164 -0.2195  0.3282  0.0704
   92MOL   C11249434   5.159   4.026   0.205 -0.6560  0.2413  0.4613
   92MOL   C11349435   5.100   3.895   0.263  0.5890 -0.1541  0.8226
   92MOL   C11449436   5.209   3.792   0.297 -0.0777 -0.1794  0.0575
   92MOL   O11549437   5.161   3.675   0.360 -0.3795  0.5781  0.3654
   92MOL   C11649438   5.120   3.671   0.487 -0.3464  1.1820 -0.4558
   92MOL   O11749439   5.119   3.764   0.564 -0.0252 -0.3627  0.1932
   92MOL   C11849440   5.075   3.527   0.528 -0.2007 -0.3090  0.6226
   92MOL   C11949441   5.031   3.521   0.679  0.2222 -0.3691  0.8116
   92MOL   C12049442   4.956   3.481   0.432 -0.2675  0.0000 -0.0142
   92MOL   H12149443   5.015   4.337   0.154 -0.2307  0.0560 -0.9844
   92MOL   H12249444   5.159   4.316   0.239  0.0637 -1.4444 -0.0000
   92MOL   H12349445   5.160   4.296   0.060  0.6827  0.1826  1.7384
   92MOL   H12449446   4.974   4.125   0.236  0.5077 -0.1717  0.8418
   92MOL   H12549447   5.006   4.100   0.072  1.7385  0.9601 -1.2224
   92MOL   H12649448   5.187   3.990   0.106 -0.6769 -1.7559  1.1618
   92MOL   H12749449   5.248   4.057   0.259 -1.1362 -1.5366  2.3496
   92MOL   H12849450   5.025   3.857   0.193  2.2580  0.0290 -1.1209
   92MOL   H12949451   5.048   3.912   0.356 -0.2678 -0.8344  0.4720
   92MOL   H13049452   5.267   3.761   0.210  0.5073 -1.2700  0.8252
   92MOL   H13149453   5.287   3.834   0.361 -0.4618  0.4953  0.0863
   92MOL   H13249454   4.991   3.423   0.704 -1.5152 -0.0939 -0.8109
   92MOL   H13349455   5.111   3.560   0.742  0.3273  0.6942  0.0387
   92MOL   H13449456   4.949   3.589   0.701 -1.8356 -1.9995 -1.5114
   92MOL   H13549457   4.997   3.494   0.331  0.4723 -1.2800  0.1110
   92MOL   H13649458   4.942   3.375   0.454  0.7874 -0.4704 -1.5040
   92MOL   C13749459   4.511   2.888   0.650  0.2312 -0.4311 -0.2569
   92MOL   C13849460   4.628   2.951   0.578  0.3735 -0.2328  0.0586
   92MOL   C13949461   4.627   3.104   0.571  0.2805  0.0998 -0.4589
   92MOL   C14049462   4.661   3.164   0.711  0.1424  0.0629  0.1212
   92MOL   C14149463   4.674   3.318   0.721  0.1064  0.3668 -0.2728
   92MOL   O14249464   4.725   3.364   0.599 -0.1900  0.0355 -0.1083
   92MOL   C14349465   4.737   3.495   0.571  0.3505 -0.3163 -0.3878
   92MOL   O14449466   4.703   3.586   0.653 -0.0309 -0.3124 -0.0721
   92MOL   C14549467   4.801   3.522   0.433 -0.4735  0.1587 -0.4686
   92MOL   C14649468   4.790   3.677   0.408  0.0931 -0.4088 -0.7662
   92MOL   C14749469   4.729   3.441   0.320 -0.2984 -0.0386  0.0318
   92MOL   H14849470   4.510   2.781   0.629  1.7884  0.1160 -3.3434
   92MOL   H14949471   4.415   2.924   0.612  0.1789 -1.0085 -0.6825
   92MOL   H15049472   4.499   2.914   0.755  0.4019 -0.5514 -0.2087
   92MOL   H15149473   4.624   2.922   0.473 -1.3011  1.2389 -0.3292
   92MOL   H15249474   4.724   2.919   0.617  0.9580 -0.0362 -1.2158
   92MOL   H15349475   4.700   3.139   0.498 -1.2054  2.1214 -1.0149
   92MOL   H15449476   4.526   3.138   0.548 -1.1119 -2.2920  1.8585
   92MOL   H15549477   4.596   3.122   0.788 -0.5204  0.9236  0.0376
   92MOL   H15649478   4.756   3.117   0.737  0.5834 -0.9586 -3.1235
   92MOL   H15749479   4.734   3.353   0.805 -0.9423 -0.1173  0.6945
   92MOL   H15849480   4.572   3.355   0.727 -0.3810 -1.0896  0.8883
   92MOL   H15949481   4.825   3.735   0.494 -0.4421  1.3661 -1.7195
   92MOL   H16049482   4.686   3.710   0.405 -0.3907 -1.6259  1.3373
   92MOL   H16149483   4.851   3.710   0.324 -2.1380  1.8128 -1.5951
   92MOL   H16249484   4.798   3.448   0.236  1.1702 -0.4919  1.1843
   92MOL   H16349485   4.719   3.339   0.355  2.8369  0.8825  4.0332
   92MOL   C16449486   4.204   3.410   7.502  0.2062  0.0439  0.0743
   92MOL   C16549487   4.182   3.502   7.611 -0.2260  0.4577  0.5955
   92MOL   C16649488   4.315   3.547   7.673 -0.5744  0.1858  0.3040
   92MOL   C16749489   4.317   3.686   7.745 -0.4451  0.6578 -0.1256
   92MOL   C16849490   4.454   3.714   0.000  0.2948 -0.7150  0.1307
   92MOL   O16949491   4.471   3.626   0.103  0.4530  0.1017 -0.3404
   92MOL   C17049492   4.595   3.583   0.146  0.5387  0.6297 -0.2339
   92MOL   O17149493   4.700   3.624   0.096  0.0587  0.2075  0.6008
   92MOL   C17249494   4.584   3.474   0.255  0.1215 -0.8241  0.2918
   92MOL   C17349495   4.472   3.512   0.353 -0.6356  0.8221  0.4488
   92MOL   C17449496   4.530   3.345   0.185  0.5967  0.4131  0.3998
   92MOL   H17549497   4.298   3.437   7.453  0.4643 -0.0852  0.4928
   92MOL   H17649498   4.122   3.418   7.431 -0.9922  0.5947  1.4979
   92MOL   H17749499   4.214   3.307   7.535 -0.6295  0.3882  1.4321
   92MOL   H17849500   4.118   3.462   7.690 -1.8970 -0.5005 -1.1885
   92MOL   H17949501   4.128   3.586   7.567 -2.1069 -1.1393 -0.2233
   92MOL   H18049502   4.348   3.466   7.738 -1.2800 -0.8020 -0.5516
   92MOL   H18149503   4.392   3.552   7.596  0.3774  2.0667  1.3465
   92MOL   H18249504   4.239   3.669   0.004 -1.0460 -0.6512 -1.0627
   92MOL   H18349505   4.294   3.763   7.671  2.2001 -0.7172 -2.4888
   92MOL   H18449506   4.444   3.817   0.035 -0.8713 -0.2893 -1.4047
   92MOL   H18549507   4.534   3.722   7.741  0.3017  1.3479  0.3196
   92MOL   H18649508   4.477   3.613   0.394 -2.8205  0.4531  1.7014
   92MOL   H18749509   4.463   3.427   0.420 -0.4858  1.2016  0.9579
   92MOL   H18849510   4.372   3.508   0.311 -0.2910 -1.5000 -0.1759
   92MOL   H18949511   4.489   3.280   0.262  1.2024 -0.4115  0.0384
   92MOL   H19049512   4.434   3.374   0.141 -0.4342 -2.5044  0.6145
   92MOL   C19149513   5.184   2.751   7.797  0.1683  0.0611  0.2909
   92MOL   C19249514   5.051   2.788   0.053 -0.2159 -0.7106 -0.0930
   92MOL   C19349515   5.063   2.936   0.100  0.1100  0.4813  0.2076
   92MOL   C19449516   4.947   2.975   0.190 -0.8141  0.2124  0.5106
   92MOL   C19549517   4.924   3.122   0.217  0.0872 -0.2326 -0.4591
   92MOL   O19649518   4.821   3.174   0.137  0.3080 -0.8730 -0.5667
   92MOL   C19749519   4.694   3.160   0.171 -0.5634 -0.0493  0.1830
   92MOL   O19849520   4.659   3.087   0.260  0.0925 -0.5178  0.0515
   92MOL   C19949521   4.594   3.245   0.087 -0.2492  0.1558 -0.0858
   92MOL   C20049522   4.668   3.327   7.787  0.2514 -0.6758  0.8560
   92MOL   C20149523   4.477   3.159   0.025 -0.6310  0.1082 -0.2969
   92MOL   H20249524   5.174   2.657   7.743  0.8676  0.2983 -0.2525
   92MOL   H20349525   5.208   2.822   7.718 -0.3378 -1.2500 -1.0527
   92MOL   H20449526   5.264   2.744   0.056 -0.9157  2.2598  1.7633
   92MOL   H20549527   5.028   2.710   0.126  0.1608  0.0508  0.8611
   92MOL   H20649528   4.971   2.784   7.794  0.6555  0.0353 -1.1092
   92MOL   H20749529   5.058   3.000   0.012 -0.8346 -1.4977 -1.2013
   92MOL   H20849530   5.156   2.957   0.154  0.0811 -0.0071  0.4489
   92MOL   H20949531   4.854   2.936   0.149  0.5832 -1.6085 -0.9921
   92MOL   H21049532   4.968   2.929   0.286  0.3395  1.5888  0.9294
   92MOL   H21149533   4.905   3.140   0.323  1.0232 -1.2336 -0.1205
   92MOL   H21249534   5.019   3.174   0.204 -0.6778  1.2203 -0.3082
   92MOL   H21349535   4.710   3.270   7.704  1.3765  1.8755 -0.4028
   92MOL   H21449536   4.744   3.392   0.016  0.0006  1.1246 -1.3259
   92MOL   H21549537   4.593   3.391   7.741  2.3734  0.3928 -1.2250
   92MOL   H21649538   4.428   3.228   7.771  3.3714  1.7226 -1.6813
   92MOL   H21749539   4.397   3.152   0.100 -2.2994  0.0345 -2.0457
   92MOL   C21849540   4.403   2.366   0.448  0.0203 -0.2878 -0.2067
   92MOL   C21949541   4.304   2.472   0.390 -0.0396 -0.5189  0.4919
   92MOL   C22049542   4.366   2.619   0.387  0.4282  0.0333  0.8245
   92MOL   C22149543   4.343   2.687   0.254  0.0454  0.1479  0.6529
   92MOL   C22249544   4.398   2.828   0.267  0.3525 -0.0136  0.4594
   92MOL   O22349545   4.398   2.898   0.145  0.1569  0.0954 -0.0211
   92MOL   C22449546   4.509   2.908   0.060 -0.1843 -0.0395 -0.2596
   92MOL   O22549547   4.611   2.844   0.073  0.0225 -0.3100 -0.6490
   92MOL   C22649548   4.492   3.018   7.770  0.7970  0.5362  0.6807
   92MOL   C22749549   4.612   3.020   7.676  0.4558  0.2788  0.4649
   92MOL   C22849550   4.361   2.984   7.690  0.2217  0.2334  0.3440
   92MOL   H22949551   4.506   2.372   0.411 -0.1082 -0.3179 -0.5692
   92MOL   H23049552   4.400   2.367   0.557 -1.1125 -1.6127 -0.2284
   92MOL   H23149553   4.368   2.266   0.424 -0.2052 -0.6736  1.6048
   92MOL   H23249554   4.206   2.469   0.437 -0.5957  1.1194 -0.5237
   92MOL   H23349555   4.292   2.431   0.290  1.1022 -0.0834  0.1653
   92MOL   H23449556   4.472   2.610   0.408  1.2504 -1.2349 -3.5312
   92MOL   H23549557   4.325   2.679   0.469 -2.0877  1.0580 -1.0933
   92MOL   H23649558   4.399   2.627   0.181  0.6336  1.2034  0.2296
   92MOL   H23749559   4.238   2.676   0.226  0.3628 -0.7850 -0.2370
   92MOL   H23849560   4.499   2.818   0.307  0.8630 -0.6500 -0.9784
   92MOL   H23949561   4.347   2.894   0.338 -0.2195 -0.5795  0.5897
   92MOL   H24049562   4.607   3.095   7.598  0.3406 -1.7564 -1.5513
   92MOL   H24149563   4.621   2.924   7.624  1.2580  0.7965 -0.3476
   92MOL   H24249564   4.707   3.045   7.722 -0.7319  2.2415  1.9175
   92MOL   H24349565   4.348   3.071   7.626  1.1422 -0.4658 -0.8188
   92MOL   H24449566   4.273   2.999   7.753  0.0923  1.5368 -0.1482
   92MOL   C24549567   4.019   3.263   7.182  0.4501  0.3253  0.0835
   92MOL   C24649568   4.117   3.156   7.127  1.0792 -0.2207 -0.2841
   92MOL   C24749569   4.225   3.128   7.227 -0.4841  0.1408 -0.7723
   92MOL   C24849570   4.337   3.041   7.170  0.2460  0.0400 -0.6090
   92MOL   C24949571   4.450   3.015   7.268  0.4550 -0.6662 -0.2594
   92MOL   O25049572   4.394   2.990   7.393 -0.4770 -0.2703  0.2536
   92MOL   C25149573   4.421   2.876   7.467 -0.0101  0.1117  0.1168
   92MOL   O25249574   4.509   2.795   7.447 -0.4548  0.2130 -0.2458
   92MOL   C25349575   4.332   2.859   7.594  0.2114 -0.3402 -0.7495
   92MOL   C25449576   4.183   2.872   7.558  0.3820  0.1504  1.2813
   92MOL   C25549577   4.357   2.720   7.671  0.6932 -0.4804  0.2819
   92MOL   H25649578   3.959   3.223   7.265  0.6459  2.3280  1.2315
   92MOL   H25749579   4.067   3.353   7.221  1.6079 -0.1035 -0.3451
   92MOL   H25849580   3.949   3.294   7.105  0.0760 -1.8046 -0.4539
   92MOL   H25949581   4.063   3.066   7.098  1.7151 -0.4722 -0.6999
   92MOL   H26049582   4.157   3.188   7.031 -1.9494  2.5693 -0.6887
   92MOL   H26149583   4.163   3.080   7.303 -2.1536  1.6872 -1.1062
   92MOL   H26249584   4.260   3.218   7.278 -3.1840  0.8982 -0.1504
   92MOL   H26349585   4.307   2.942   7.134 -1.6490  0.1251  0.6756
   92MOL   H26449586   4.377   3.088   7.080 -0.7465  1.7081 -0.1901
   92MOL   H26549587   4.520   2.945   7.221  2.0472  1.7088 -1.5506
   92MOL   H26649588   4.503   3.109   7.284 -1.8416  0.5319  0.4809
   92MOL   H26749589   4.143   2.806   7.480 -0.0050  3.1566 -1.1849
   92MOL   H26849590   4.129   2.865   7.652  2.4847 -0.1161  2.4735
   92MOL   H26949591   4.179   2.977   7.528 -1.0916  0.0131  0.9245
   92MOL   H27049592   4.465   2.710   7.682  0.4934 -0.4903  2.5494
   92MOL   H27149593   4.319   2.747   7.769  0.1368 -0.7799  0.1550
   92MOL   C27249594   3.929   2.926   0.338  1.8418  0.1051  0.2102
   92MOL   C27349595   3.860   2.790   0.325 -0.4642 -0.1188  0.0900
   92MOL   C27449596   3.847   2.723   0.185 -0.4766  0.0736 -0.1120
   92MOL   C27549597   3.977   2.656   0.136 -0.1943  1.0286 -0.3508
   92MOL   C27649598   3.985   2.613   7.803 -0.5687  0.3014 -0.2322
   92MOL   O27749599   4.124   2.581   7.768 -0.3917 -0.4094 -0.0358
   92MOL   C27849600   4.152   2.574   7.636  0.1643 -0.2806  0.5669
   92MOL   O27949601   4.070   2.563   7.549  0.4140 -0.6479 -0.6650
   92MOL   C28049602   4.302   2.583   7.617  0.4957  0.8881 -0.5896
   92MOL   C28149603   4.326   2.559   7.465  0.6940  0.4251  0.5472
   92MOL   C28249604   4.384   2.479   7.696 -0.1107  0.1374  0.3551
   92MOL   H28349605   3.870   2.993   0.276  0.1593 -0.0173  1.6463
   92MOL   H28449606   3.928   2.977   0.434  0.8247 -0.5716  0.5592
   92MOL   H28549607   4.028   2.921   0.292  1.5611 -1.1392 -0.2675
   92MOL   H28649608   3.906   2.727   0.401 -2.3907  1.3467  2.5388
   92MOL   H28749609   3.758   2.809   0.358 -1.0805 -3.0971  0.0740
   92MOL   H28849610   3.772   2.644   0.183  2.2564 -2.5963 -0.9171
   92MOL   H28949611   3.817   2.796   0.110 -0.8518  0.8478  0.7759
   92MOL   H29049612   4.053   2.732   0.152 -1.5501  2.3365 -0.0365
   92MOL   H29149613   3.998   2.569   0.198  0.1627  1.4378  0.1128
   92MOL   H29249614   3.949   2.693   7.739 -0.4220  0.2981 -0.3180
   92MOL   H29349615   3.931   2.520   7.783  0.0585 -0.0481 -0.3296
   92MOL   H29449616   4.433   2.554   7.441  0.0402 -0.0169 -2.4823
   92MOL   H29549617   4.276   2.472   7.424  0.4430  0.7977  0.0576
   92MOL   H29649618   4.292   2.644   7.405  2.1505 -0.6426 -1.8827
   92MOL   H29749619   4.491   2.501   7.691 -0.6722  2.6941 -0.8463
   92MOL   H29849620   4.364   2.498   7.802 -1.0715  0.3819  0.1323
   92MOL   C29949621   4.132   2.064   0.406  0.3415 -0.8382 -0.1674
   92MOL   C30049622   4.049   2.159   0.313  0.1404 -0.0260 -0.1522
   92MOL   C30149623   4.080   2.146   0.170  0.6369 -0.5049 -0.4944
   92MOL   C30249624   3.987   2.227   0.078 -0.5100  0.3408 -0.1934
   92MOL   C30349625   4.023   2.202   7.744 -0.5538  0.2531 -0.4610
   92MOL   O30449626   4.153   2.258   7.746 -0.2404 -0.4393  0.2550
   92MOL   C30549627   4.247   2.258   7.647 -0.1863 -0.0704  0.6649
   92MOL   O30649628   4.221   2.215   7.536  0.3248 -0.0633 -0.2325
   92MOL   C30749629   4.389   2.320   7.679 -0.1306 -0.6220  0.0324
   92MOL   C30849630   4.486   2.285   7.560 -0.3227 -0.2261  0.0664
   92MOL   C30949631   4.439   2.265   0.004  0.5189 -0.2809 -0.3365
   92MOL   H31049632   4.239   2.081   0.393  0.2732 -0.8691 -0.7952
   92MOL   H31149633   4.118   1.960   0.376  1.7044 -1.0977  0.0597
   92MOL   H31249634   4.107   2.076   0.511 -2.5681  1.8856 -1.1204
   92MOL   H31349635   4.065   2.262   0.347 -2.9957  0.0446  1.2470
   92MOL   H31449636   3.944   2.137   0.332 -0.6956  0.0065 -4.3187
   92MOL   H31549637   4.075   2.040   0.143 -1.4963 -0.6068  0.1980
   92MOL   H31649638   4.181   2.186   0.171 -0.0973  1.3516  0.6406
   92MOL   H31749639   3.970   2.329   0.113 -1.1712  0.3428 -0.5109
   92MOL   H31849640   3.883   2.193   0.073 -0.7851  1.2713 -0.9916
   92MOL   H31949641   4.016   2.097   7.717  1.2059 -0.0990  0.3734
   92MOL   H32049642   3.953   2.255   7.679 -2.2642  0.7701  1.7690
   92MOL   H32149643   4.484   2.177   7.548 -0.7843 -0.0886 -1.1479
   92MOL   H32249644   4.455   2.319   7.461  2.3772 -0.5183 -0.9137
   92MOL   H32349645   4.586   2.328   7.566 -0.3097 -0.3274  0.5967
   92MOL   H32449646   4.358   2.272   0.076 -1.7467 -1.2955 -2.6881
   92MOL   H32549647   4.513   2.338   0.037  1.8640 -0.8428 -2.0387
   92MOL   C32649648   4.005   1.858   7.308 -0.5151  0.1514  0.0293
   92MOL   C32749649   4.017   1.790   7.444 -0.0869  0.1890 -0.4520
   92MOL   C32849650   4.161   1.766   7.495  0.1928  0.1130 -0.3037
   92MOL   C32949651   4.221   1.884   7.578  0.2366 -0.0837  0.6309
   92MOL   C33049652   4.363   1.862   7.626  0.1100 -0.0931  0.2065
   92MOL   O33149653   4.418   1.985   7.664 -0.2592 -0.1342  0.2522
   92MOL   C33249654   4.408   2.006   7.791 -0.6064 -0.1616 -0.0281
   92MOL   O33349655   4.331   1.951   0.057 -0.6599  0.7945 -0.8496
   92MOL   C33449656   4.501   2.120   0.031 -0.0932  0.0538 -0.0376
   92MOL   C33549657   4.645   2.118   7.785 -0.6574  0.1666 -0.4962
   92MOL   C33649658   4.524   2.116   0.191 -0.2393 -0.0780  0.2787
   92MOL   H33749659   4.047   1.797   7.228 -0.0673  0.3654  0.1003
   92MOL   H33849660   4.049   1.958   7.304 -0.7472  0.1967 -2.2905
   92MOL   H33949661   3.900   1.871   7.282 -1.6502  0.4312  4.3335
   92MOL   H34049662   3.993   1.684   7.430  2.5813 -0.6563  0.9614
   92MOL   H34149663   3.956   1.821   7.529  1.4279 -1.7148  1.4178
   92MOL   H34249664   4.230   1.748   7.413  0.7030 -0.0045  0.1451
   92MOL   H34349665   4.153   1.674   7.553 -0.1274  0.4090  0.1322
   92MOL   H34449666   4.162   1.913   7.664 -0.6789 -0.6633  0.2007
   92MOL   H34549667   4.209   1.975   7.518  0.6124  0.1730  0.9401
   92MOL   H34649668   4.420   1.828   7.540 -2.7057 -1.2553 -1.2782
   92MOL   H34749669   4.370   1.789   7.706 -0.3235  1.0774  1.3360
   92MOL   H34849670   4.705   2.030   7.811  1.1094  1.0445 -1.4871
   92MOL   H34949671   4.712   2.203   7.800 -0.4500 -0.3693  1.7402
   92MOL   H35049672   4.633   2.115   7.677 -3.0384 -0.5271 -0.2349
   92MOL   H35149673   4.428   2.103   0.241 -0.0662  1.0596  0.9220
   92MOL   H35249674   4.558   2.212   0.231  1.6793 -1.4690  2.1161
   92MOL   C35349675   5.291   2.455   0.262  0.1836 -0.4844  0.2801
   92MOL   C35449676   5.218   2.350   0.353  0.3881  0.0803 -0.6525
   92MOL   C35549677   5.198   2.219   0.271  1.0156 -0.6926  0.0844
   92MOL   C35649678   5.061   2.155   0.308 -0.1177 -0.2096  0.2333
   92MOL   C35749679   4.943   2.214   0.231 -0.7942 -0.3859  0.1088
   92MOL   O35849680   4.817   2.168   0.286 -0.1447  0.0134  0.2860
   92MOL   C35949681   4.775   2.043   0.247 -0.7215  0.0524 -0.3758
   92MOL   O36049682   4.844   1.947   0.205 -0.3116  0.7994 -0.0528
   92MOL   C36149683   4.621   2.009   0.262  0.2278 -0.5603 -0.1707
   92MOL   C36249684   4.587   1.856   0.223  0.2885 -0.2528  0.2730
   92MOL   C36349685   4.591   2.026   0.421 -0.3077  0.3097 -0.6298
   92MOL   H36449686   5.331   2.529   0.331  1.3045 -0.9672  0.1552
   92MOL   H36549687   5.231   2.496   0.180  0.4538 -0.1831  0.2318
   92MOL   H36649688   5.378   2.409   0.215 -0.4892  0.8892 -2.4561
   92MOL   H36749689   5.287   2.328   0.434 -0.2029 -0.3097 -0.2538
   92MOL   H36849690   5.128   2.393   0.396  1.0367 -0.0269  0.8645
   92MOL   H36949691   5.279   2.148   0.286  0.8483 -1.3269 -1.8228
   92MOL   H37049692   5.188   2.247   0.166 -0.5452  0.1987  0.4484
   92MOL   H37149693   5.031   2.170   0.412  0.0675  0.5634  0.1737
   92MOL   H37249694   5.064   2.047   0.291 -0.1030 -0.4612  1.7458
   92MOL   H37349695   4.936   2.321   0.246  0.5931 -0.7562  3.7286
   92MOL   H37449696   4.938   2.185   0.126  2.8290  3.2661 -1.2074
   92MOL   H37549697   4.665   1.792   0.264 -0.5319 -1.2135  0.3553
   92MOL   H37649698   4.484   1.837   0.253  0.9369  0.1846  2.8539
   92MOL   H37749699   4.590   1.844   0.114  3.4542  0.0286  0.2706
   92MOL   H37849700   4.579   2.132   0.446 -2.0018  0.2042 -0.9385
   92MOL   H37949701   4.484   2.007   0.427  0.4170 -3.7500  0.9490
   92MOL   C38049702   4.204   1.720   1.090  0.1326  0.7925  0.5974
   92MOL   C38149703   4.121   1.709   0.957  0.6088 -0.1663  0.8011
   92MOL   C38249704   4.201   1.662   0.833 -0.6150  0.3581 -0.2371
   92MOL   C38349705   4.310   1.760   0.782  0.3211  0.0762  0.3555
   92MOL   C38449706   4.348   1.725   0.633 -0.1489 -0.7749  0.0442
   92MOL   O38549707   4.426   1.835   0.578 -0.1703  0.1847  0.5208
   92MOL   C38649708   4.556   1.814   0.558  0.2673  0.1133 -0.0244
   92MOL   O38749709   4.611   1.708   0.552 -0.3554 -0.3923  0.2966
   92MOL   C38849710   4.642   1.941   0.538 -0.5932  0.0161 -0.2696
   92MOL   C38949711   4.790   1.896   0.518  0.1061 -0.5345  0.0097
   92MOL   C39049712   4.631   2.029   0.672  0.3558  0.6232 -1.2123
   92MOL   H39149713   4.249   1.624   1.111 -1.1185  0.0167 -0.1578
   92MOL   H39249714   4.280   1.797   1.081  0.8403  0.0437  0.1779
   92MOL   H39349715   4.131   1.745   1.168 -1.0845 -0.0293 -0.2566
   92MOL   H39449716   4.077   1.806   0.937  0.2985 -0.8718 -2.1758
   92MOL   H39549717   4.043   1.634   0.971  0.3099  0.4215  2.4448
   92MOL   H39649718   4.245   1.567   0.861 -0.3857  0.9200  1.3533
   92MOL   H39749719   4.131   1.639   0.752  2.4487 -0.9820 -2.6103
   92MOL   H39849720   4.274   1.862   0.778  0.1533 -0.0336 -1.5464
   92MOL   H39949721   4.393   1.745   0.851 -0.8389 -0.8887  1.5596
   92MOL   H40049722   4.262   1.710   0.568 -0.0645  1.4973 -0.6210
   92MOL   H40149723   4.396   1.626   0.633  1.6863  0.0767 -1.6075
   92MOL   H40249724   4.830   1.858   0.612  1.5983  1.9547  0.4379
   92MOL   H40349725   4.866   1.969   0.491 -0.3829  0.1476  0.4556
   92MOL   H40449726   4.790   1.816   0.444 -2.2474  0.1377 -0.7596
   92MOL   H40549727   4.591   1.961   0.747  2.2734  0.0065 -0.7320
   92MOL   H40649728   4.536   2.083   0.666 -0.3038 -0.0459  2.0200
   92MOL   C40749729   5.189   1.725   0.374  0.5638 -0.2375 -0.2278
   92MOL   C40849730   5.246   1.835   0.463 -0.1315 -0.7416 -0.4242
   92MOL   C40949731   5.159   1.876   0.590  0.4759  0.1291 -0.2470
   92MOL   C41049732   5.195   2.011   0.661  0.1465  1.2149  1.0116
   92MOL   C41149733   5.102   2.054   0.770  0.2388 -0.3273 -0.1748
   92MOL   O41249734   4.978   2.078   0.710  0.3012  0.0362  0.0744
   92MOL   C41349735   4.865   2.053   0.775 -0.5415  0.6810 -0.7462
   92MOL   O41449736   4.860   1.973   0.872 -0.3119  0.1783 -0.5799
   92MOL   C41549737   4.736   2.135   0.726 -1.1851 -0.1577 -0.1214
   92MOL   C41649738   4.781   2.229   0.608  0.6658  0.0610  0.6626
   92MOL   C41749739   4.670   2.207   0.847 -0.0533  0.1862 -0.8324
   92MOL   H41849740   5.179   1.627   0.420  1.5834 -1.3480 -2.2885
   92MOL   H41949741   5.088   1.758   0.349  1.2269  4.1115  2.3591
   92MOL   H42049742   5.240   1.719   0.278 -0.7973  0.2250 -0.9841
   92MOL   H42149743   5.282   1.920   0.405  0.1252  1.0758  2.3201
   92MOL   H42249744   5.344   1.796   0.492  1.6410  2.2353 -2.1788
   92MOL   H42349745   5.060   1.885   0.546  0.4278 -0.4828 -0.2675
   92MOL   H42449746   5.153   1.792   0.659 -0.3501  0.8988  0.6449
   92MOL   H42549747   5.190   2.081   0.578  0.9162 -1.5934 -1.4912
   92MOL   H42649748   5.297   2.023   0.698  1.1314 -1.9092 -0.4847
   92MOL   H42749749   5.088   1.976   0.844 -1.2933 -0.0097 -0.0983
   92MOL   H42849750   5.121   2.147   0.823 -0.0697 -0.5417  0.3183
   92MOL   H42949751   4.866   2.297   0.623  0.9122  0.2664 -1.4855
   92MOL   H43049752   4.699   2.287   0.564  0.2964 -2.3060 -1.8600
   92MOL   H43149753   4.814   2.169   0.524  1.6947 -1.7036  2.2891
   92MOL   H43249754   4.655   2.130   0.923  0.0392 -0.3566 -1.3588
   92MOL   H43349755   4.565   2.229   0.827 -0.5794 -2.2041 -0.8548
   92MOL   C43449756   4.736   2.565   0.243  0.0518  0.7105  0.2635
   92MOL   C43549757   4.844   2.601   0.344  0.3520 -0.2200 -0.1295
   92MOL   C43649758   4.775   2.614   0.481 -0.3935  0.4604 -0.1795
   92MOL   C43749759   4.881   2.638   0.595  0.0842  0.2528  0.3513
   92MOL   C43849760   4.817   2.656   0.737  0.7617 -0.6576  0.5509
   92MOL   O43949761   4.817   2.533   0.803  0.1095  0.2799 -0.6189
   92MOL   C44049762   4.706   2.461   0.825 -0.1617 -0.2951  0.2175
   92MOL   O44149763   4.594   2.486   0.771  0.1201 -1.0309 -0.1321
   92MOL   C44249764   4.721   2.342   0.911 -0.1252  0.2935 -0.4219
   92MOL   C44349765   4.867   2.313   0.955  0.5700 -0.2222  0.2375
   92MOL   C44449766   4.632   2.358   1.039  0.0178 -0.4179  0.0235
   92MOL   H44549767   4.700   2.464   0.265  1.5538 -0.0154 -0.5358
   92MOL   H44649768   4.650   2.631   0.253 -0.8426  0.1013 -2.8588
   92MOL   H44749769   4.779   2.573   0.143 -0.4564  1.0150  0.0667
   92MOL   H44849770   4.934   2.539   0.340 -0.3056 -1.0623 -3.0716
   92MOL   H44949771   4.893   2.695   0.319 -0.1923  0.0894 -0.0458
   92MOL   H45049772   4.703   2.696   0.477  0.0226  0.8611  0.4500
   92MOL   H45149773   4.715   2.530   0.516  1.8094 -1.1365 -0.1335
   92MOL   H45249774   4.939   2.722   0.559  0.7476  0.0185  0.8656
   92MOL   H45349775   4.963   2.566   0.599  1.4506  1.7130 -1.1450
   92MOL   H45449776   4.714   2.693   0.734  0.2908 -2.0481 -2.7096
   92MOL   H45549777   4.883   2.727   0.788  0.4926 -0.4445  0.6062
   92MOL   H45649778   4.874   2.214   1.000  0.7658  0.5120  1.8846
   92MOL   H45749779   4.944   2.309   0.879  0.2628 -0.2453 -0.0722
   92MOL   H45849780   4.899   2.382   1.033  0.4266  1.6794 -1.3408
   92MOL   H45949781   4.649   2.271   1.103  0.8206 -0.8817 -0.7988
   92MOL   H46049782   4.529   2.341   1.007 -0.5691  0.7306  1.2831
   92MOL   C46149783   3.903   2.733   0.783 -0.4516  0.0026 -0.0324
   92MOL   C46249784   4.003   2.635   0.855  0.4410 -0.0870 -0.7711
   92MOL   C46349785   4.072   2.693   0.980 -0.0196  0.0146 -0.4011
   92MOL   C46449786   4.198   2.611   1.028  0.4458 -0.3666 -0.1501
   92MOL   C46549787   4.332   2.639   0.959  0.0445  0.0534 -0.0845
   92MOL   O46649788   4.415   2.557   1.033  0.2345 -0.0314  0.1778
   92MOL   C46749789   4.530   2.600   1.087  0.4437  0.4648  0.3163
   92MOL   O46849790   4.564   2.717   1.095  0.6011  0.1381  0.3201
   92MOL   C46949791   4.628   2.484   1.139  0.0964 -0.3370  0.3504
   92MOL   C47049792   4.766   2.543   1.164 -0.9630 -0.5979  0.0899
   92MOL   C47149793   4.584   2.435   1.289  0.4885 -0.8003  0.2361
   92MOL   H47249794   3.806   2.738   0.833 -0.3246  0.8331  0.1302
   92MOL   H47349795   3.880   2.692   0.684  2.1287 -2.1310  0.1901
   92MOL   H47449796   3.952   2.829   0.770  0.4701 -0.6038 -1.1377
   92MOL   H47549797   4.071   2.588   0.784  0.5127  0.2477 -0.9216
   92MOL   H47649798   3.927   2.559   0.875  0.6581 -0.4982 -1.5023
   92MOL   H47749799   4.001   2.710   1.061  2.8326 -0.9330  2.4157
   92MOL   H47849800   4.106   2.793   0.955 -2.0567  0.8080 -0.0234
   92MOL   H47949801   4.178   2.505   1.018  1.3153 -0.3567 -2.0183
   92MOL   H48049802   4.202   2.635   1.135 -1.2352  0.0313 -0.1497
   92MOL   H48149803   4.333   2.599   0.858  1.4729  0.8418 -0.3961
   92MOL   H48249804   4.356   2.745   0.956 -0.2952  0.0828 -2.4731
   92MOL   H48349805   4.804   2.597   1.077  1.1161 -0.0994  1.2905
   92MOL   H48449806   4.841   2.475   1.203 -1.2797 -0.0130  1.7586
   92MOL   H48549807   4.766   2.614   1.247  1.1398 -1.2578  0.6795
   92MOL   H48649808   4.625   2.505   1.362 -2.0862 -1.3534  2.2969
   92MOL   H48749809   4.641   2.349   1.324 -1.7214 -3.1661 -1.8443
   92MOL   C48849810   4.119   2.328   0.750 -0.3521  0.2272  0.4401
   92MOL   C48949811   4.137   2.179   0.778  0.6371 -0.2906 -0.8753
   92MOL   C49049812   4.151   2.135   0.924 -0.0890 -0.1233 -1.0317
   92MOL   C49149813   4.291   2.169   0.987  0.1031 -0.1752  0.0697
   92MOL   C49249814   4.299   2.119   1.133 -0.4153 -1.3520  0.1629
   92MOL   O49349815   4.384   2.218   1.201 -0.2206  0.5874 -0.4715
   92MOL   C49449816   4.338   2.336   1.256 -0.1518  0.8001  1.0202
   92MOL   O49549817   4.225   2.377   1.242 -0.0618  0.1515  0.3895
   92MOL   C49649818   4.445   2.408   1.346  1.2116 -0.1449 -0.3959
   92MOL   C49749819   4.371   2.535   1.395 -0.2414  0.0934 -0.3177
   92MOL   C49849820   4.476   2.328   1.477  0.4886  0.1905  0.5677
   92MOL   H49949821   4.198   2.396   0.784  0.9810 -0.5345 -1.0902
   92MOL   H50049822   4.100   2.340   0.644  0.7980 -1.0571  0.0804
   92MOL   H50149823   4.018   2.347   0.788  0.2963 -0.3658  2.5358
   92MOL   H50249824   4.222   2.128   0.732 -0.6024 -1.5147 -1.8162
   92MOL   H50349825   4.056   2.124   0.731  1.3341 -1.5048 -0.6794
   92MOL   H50449826   4.077   2.185   0.986 -0.8092 -1.7718 -0.5298
   92MOL   H50549827   4.137   2.028   0.939  1.3210 -0.3365 -1.1389
   92MOL   H50649828   4.272   2.276   0.996 -3.1626 -0.6153 -0.6740
   92MOL   H50749829   4.379   2.162   0.924 -0.0659  0.4639 -0.2467
   92MOL   H50849830   4.199   2.118   1.177 -0.1635 -0.0591  0.8113
   92MOL   H50949831   4.344   2.020   1.135 -0.8357 -1.5578 -0.4588
   92MOL   H51049832   4.270   2.528   1.435  0.3149  0.0169  1.1276
   92MOL   H51149833   4.376   2.611   1.318 -2.0574  0.3686 -0.1843
   92MOL   H51249834   4.437   2.581   1.469  1.2657  1.0551 -2.1994
   92MOL   H51349835   4.552   2.382   1.533  1.4303 -0.2607 -0.2477
   92MOL   H51449836   4.526   2.236   1.444 -1.4118 -0.9054  0.6770
   92MOL   C51549837   4.423   1.594   1.447 -0.9314 -0.2268 -0.3010
   92MOL   C51649838   4.447   1.647   1.585 -0.2109  0.3559  0.5241
   92MOL   C51749839   4.505   1.787   1.566 -0.2558 -0.5831  0.0569
   92MOL   C51849840   4.536   1.851   1.704  0.2246 -0.3412  0.2189
   92MOL   C51949841   4.609   1.986   1.712  0.0103 -0.3463 -0.0077
   92MOL   O52049842   4.536   2.075   1.630 -0.0964 -0.6677  0.0901
   92MOL   C52149843   4.477   2.192   1.683  0.1582  0.8236 -0.7928
   92MOL   O52249844   4.479   2.218   1.802 -0.9874  0.1370 -0.2933
   92MOL   C52349845   4.378   2.265   1.584  0.1173 -0.3120  0.4380
   92MOL   C52449846   4.292   2.159   1.515 -0.2399  0.0327 -0.7939
   92MOL   C52549847   4.294   2.370   1.664 -0.0251  0.2087  0.3139
   92MOL   H52649848   4.326   1.618   1.404 -0.7665 -1.6322 -1.4698
   92MOL   H52749849   4.501   1.610   1.373  0.8983 -0.9571  1.4237
   92MOL   H52849850   4.412   1.485   1.444 -2.9284 -0.1705  2.5924
   92MOL   H52949851   4.361   1.645   1.652 -0.0917  3.5450  0.8408
   92MOL   H53049852   4.525   1.585   1.629 -0.2726  0.0198  0.1658
   92MOL   H53149853   4.594   1.797   1.504 -1.7542  2.0282 -1.7650
   92MOL   H53249854   4.444   1.847   1.499  2.8663 -1.2747 -3.5510
   92MOL   H53349855   4.584   1.778   1.768  0.6521  0.0118  0.3017
   92MOL   H53449856   4.445   1.863   1.763 -0.3916  2.1556 -1.1437
   92MOL   H53549857   4.607   2.024   1.815  0.5947  0.9770 -0.4813
   92MOL   H53649858   4.714   1.982   1.683 -0.0508  0.3090 -0.3173
   92MOL   H53749859   4.350   2.085   1.461  0.3771  0.8165 -1.2021
   92MOL   H53849860   4.215   2.193   1.446  1.1914  1.5958 -1.6613
   92MOL   H53949861   4.243   2.094   1.589  1.7442 -0.4864  0.1009
   92MOL   H54049862   4.221   2.426   1.605  1.3152  1.1667 -0.4368
   92MOL   H54149863   4.360   2.440   1.715  0.5747  0.0736 -0.2788
   92MOL   H54249864   4.231   2.327   1.743  0.9644 -0.0833  0.9511
   7.81395   7.81395   7.81395
