;
; Gromacs include topology (itp) file.
; For Molecular Group XYZ
; Force field scheme: opls2005
; Produced from DL_FIELD v4.11
;


[ moleculetype ]
; name    nrexcl
XYZ    3

[ atoms ]
; nr   type   resnr   residu    atom    cgnr    charge    mass
    1        CT    1  MOL      C1     1  -0.1800000   12.0115
    2        CT    1  MOL      C2     2  -0.1200000   12.0115
    3        CT    1  MOL      C3     3  -0.1200000   12.0115
    4        CT    1  MOL      C4     4  -0.1200000   12.0115
    5        CT    1  MOL      C5     5   0.1900000   12.0115
    6       OES    1  MOL      O6     6  -0.3300000   15.9994
    7       CO4    1  MOL      C7     7   0.5100000   12.0115
    8         O    1  MOL      O8     8  -0.4300000   15.9994
    9        CT    1  MOL      C9     9  -0.0600000   12.0115
   10        CT    1  MOL     C10    10  -0.1800000   12.0115
   11        CT    1  MOL     C11    11  -0.1200000   12.0115
   12        HC    1  MOL     H12    12   0.0600000    1.0080
   13        HC    1  MOL     H13    13   0.0600000    1.0080
   14        HC    1  MOL     H14    14   0.0600000    1.0080
   15        HC    1  MOL     H15    15   0.0600000    1.0080
   16        HC    1  MOL     H16    16   0.0600000    1.0080
   17        HC    1  MOL     H17    17   0.0600000    1.0080
   18        HC    1  MOL     H18    18   0.0600000    1.0080
   19        HC    1  MOL     H19    19   0.0600000    1.0080
   20        HC    1  MOL     H20    20   0.0600000    1.0080
   21       HAE    1  MOL     H21    21   0.0300000    1.0080
   22       HAE    1  MOL     H22    22   0.0300000    1.0080
   23        HC    1  MOL     H23    23   0.0600000    1.0080
   24        HC    1  MOL     H24    24   0.0600000    1.0080
   25        HC    1  MOL     H25    25   0.0600000    1.0080
   26        HC    1  MOL     H26    26   0.0600000    1.0080
   27        HC    1  MOL     H27    27   0.0600000    1.0080
   28       HAE    1  MOL     H28    28   0.0600000    1.0080
   29        CT    1  MOL     C29    29  -0.1800000   12.0115
   30        CT    1  MOL     C30    30  -0.1200000   12.0115
   31        CT    1  MOL     C31    31  -0.1200000   12.0115
   32        CT    1  MOL     C32    32  -0.1200000   12.0115
   33        CT    1  MOL     C33    33   0.1900000   12.0115
   34       OES    1  MOL     O34    34  -0.3300000   15.9994
   35       CO4    1  MOL     C35    35   0.5100000   12.0115
   36         O    1  MOL     O36    36  -0.4300000   15.9994
   37        CT    1  MOL     C37    37   0.0000000   12.0115
   38        CT    1  MOL     C38    38  -0.1800000   12.0115
   39        CT    1  MOL     C39    39  -0.1200000   12.0115
   40        HC    1  MOL     H40    40   0.0600000    1.0080
   41        HC    1  MOL     H41    41   0.0600000    1.0080
   42        HC    1  MOL     H42    42   0.0600000    1.0080
   43        HC    1  MOL     H43    43   0.0600000    1.0080
   44        HC    1  MOL     H44    44   0.0600000    1.0080
   45        HC    1  MOL     H45    45   0.0600000    1.0080
   46        HC    1  MOL     H46    46   0.0600000    1.0080
   47        HC    1  MOL     H47    47   0.0600000    1.0080
   48        HC    1  MOL     H48    48   0.0600000    1.0080
   49       HAE    1  MOL     H49    49   0.0300000    1.0080
   50       HAE    1  MOL     H50    50   0.0300000    1.0080
   51        HC    1  MOL     H51    51   0.0600000    1.0080
   52        HC    1  MOL     H52    52   0.0600000    1.0080
   53        HC    1  MOL     H53    53   0.0600000    1.0080
   54        HC    1  MOL     H54    54   0.0600000    1.0080
   55        HC    1  MOL     H55    55   0.0600000    1.0080
   56        CT    1  MOL     C56    56  -0.1800000   12.0115
   57        CT    1  MOL     C57    57  -0.1200000   12.0115
   58        CT    1  MOL     C58    58  -0.1200000   12.0115
   59        CT    1  MOL     C59    59  -0.1200000   12.0115
   60        CT    1  MOL     C60    60   0.1900000   12.0115
   61       OES    1  MOL     O61    61  -0.3300000   15.9994
   62       CO4    1  MOL     C62    62   0.5100000   12.0115
   63         O    1  MOL     O63    63  -0.4300000   15.9994
   64        CT    1  MOL     C64    64   0.0000000   12.0115
   65        CT    1  MOL     C65    65  -0.1800000   12.0115
   66        CT    1  MOL     C66    66  -0.1200000   12.0115
   67        HC    1  MOL     H67    67   0.0600000    1.0080
   68        HC    1  MOL     H68    68   0.0600000    1.0080
   69        HC    1  MOL     H69    69   0.0600000    1.0080
   70        HC    1  MOL     H70    70   0.0600000    1.0080
   71        HC    1  MOL     H71    71   0.0600000    1.0080
   72        HC    1  MOL     H72    72   0.0600000    1.0080
   73        HC    1  MOL     H73    73   0.0600000    1.0080
   74        HC    1  MOL     H74    74   0.0600000    1.0080
   75        HC    1  MOL     H75    75   0.0600000    1.0080
   76       HAE    1  MOL     H76    76   0.0300000    1.0080
   77       HAE    1  MOL     H77    77   0.0300000    1.0080
   78        HC    1  MOL     H78    78   0.0600000    1.0080
   79        HC    1  MOL     H79    79   0.0600000    1.0080
   80        HC    1  MOL     H80    80   0.0600000    1.0080
   81        HC    1  MOL     H81    81   0.0600000    1.0080
   82        HC    1  MOL     H82    82   0.0600000    1.0080
   83        CT    1  MOL     C83    83  -0.1800000   12.0115
   84        CT    1  MOL     C84    84  -0.1200000   12.0115
   85        CT    1  MOL     C85    85  -0.1200000   12.0115
   86        CT    1  MOL     C86    86  -0.1200000   12.0115
   87        CT    1  MOL     C87    87   0.1900000   12.0115
   88       OES    1  MOL     O88    88  -0.3300000   15.9994
   89       CO4    1  MOL     C89    89   0.5100000   12.0115
   90         O    1  MOL     O90    90  -0.4300000   15.9994
   91        CT    1  MOL     C91    91   0.0000000   12.0115
   92        CT    1  MOL     C92    92  -0.1800000   12.0115
   93        CT    1  MOL     C93    93  -0.1200000   12.0115
   94        HC    1  MOL     H94    94   0.0600000    1.0080
   95        HC    1  MOL     H95    95   0.0600000    1.0080
   96        HC    1  MOL     H96    96   0.0600000    1.0080
   97        HC    1  MOL     H97    97   0.0600000    1.0080
   98        HC    1  MOL     H98    98   0.0600000    1.0080
   99        HC    1  MOL     H99    99   0.0600000    1.0080
  100        HC    1  MOL    H100   100   0.0600000    1.0080
  101        HC    1  MOL    H101   101   0.0600000    1.0080
  102        HC    1  MOL    H102   102   0.0600000    1.0080
  103       HAE    1  MOL    H103   103   0.0300000    1.0080
  104       HAE    1  MOL    H104   104   0.0300000    1.0080
  105        HC    1  MOL    H105   105   0.0600000    1.0080
  106        HC    1  MOL    H106   106   0.0600000    1.0080
  107        HC    1  MOL    H107   107   0.0600000    1.0080
  108        HC    1  MOL    H108   108   0.0600000    1.0080
  109        HC    1  MOL    H109   109   0.0600000    1.0080
  110        CT    1  MOL    C110   110  -0.1800000   12.0115
  111        CT    1  MOL    C111   111  -0.1200000   12.0115
  112        CT    1  MOL    C112   112  -0.1200000   12.0115
  113        CT    1  MOL    C113   113  -0.1200000   12.0115
  114        CT    1  MOL    C114   114   0.1900000   12.0115
  115       OES    1  MOL    O115   115  -0.3300000   15.9994
  116       CO4    1  MOL    C116   116   0.5100000   12.0115
  117         O    1  MOL    O117   117  -0.4300000   15.9994
  118        CT    1  MOL    C118   118   0.0000000   12.0115
  119        CT    1  MOL    C119   119  -0.1800000   12.0115
  120        CT    1  MOL    C120   120  -0.1200000   12.0115
  121        HC    1  MOL    H121   121   0.0600000    1.0080
  122        HC    1  MOL    H122   122   0.0600000    1.0080
  123        HC    1  MOL    H123   123   0.0600000    1.0080
  124        HC    1  MOL    H124   124   0.0600000    1.0080
  125        HC    1  MOL    H125   125   0.0600000    1.0080
  126        HC    1  MOL    H126   126   0.0600000    1.0080
  127        HC    1  MOL    H127   127   0.0600000    1.0080
  128        HC    1  MOL    H128   128   0.0600000    1.0080
  129        HC    1  MOL    H129   129   0.0600000    1.0080
  130       HAE    1  MOL    H130   130   0.0300000    1.0080
  131       HAE    1  MOL    H131   131   0.0300000    1.0080
  132        HC    1  MOL    H132   132   0.0600000    1.0080
  133        HC    1  MOL    H133   133   0.0600000    1.0080
  134        HC    1  MOL    H134   134   0.0600000    1.0080
  135        HC    1  MOL    H135   135   0.0600000    1.0080
  136        HC    1  MOL    H136   136   0.0600000    1.0080
  137        CT    1  MOL    C137   137  -0.1800000   12.0115
  138        CT    1  MOL    C138   138  -0.1200000   12.0115
  139        CT    1  MOL    C139   139  -0.1200000   12.0115
  140        CT    1  MOL    C140   140  -0.1200000   12.0115
  141        CT    1  MOL    C141   141   0.1900000   12.0115
  142       OES    1  MOL    O142   142  -0.3300000   15.9994
  143       CO4    1  MOL    C143   143   0.5100000   12.0115
  144         O    1  MOL    O144   144  -0.4300000   15.9994
  145        CT    1  MOL    C145   145   0.0000000   12.0115
  146        CT    1  MOL    C146   146  -0.1800000   12.0115
  147        CT    1  MOL    C147   147  -0.1200000   12.0115
  148        HC    1  MOL    H148   148   0.0600000    1.0080
  149        HC    1  MOL    H149   149   0.0600000    1.0080
  150        HC    1  MOL    H150   150   0.0600000    1.0080
  151        HC    1  MOL    H151   151   0.0600000    1.0080
  152        HC    1  MOL    H152   152   0.0600000    1.0080
  153        HC    1  MOL    H153   153   0.0600000    1.0080
  154        HC    1  MOL    H154   154   0.0600000    1.0080
  155        HC    1  MOL    H155   155   0.0600000    1.0080
  156        HC    1  MOL    H156   156   0.0600000    1.0080
  157       HAE    1  MOL    H157   157   0.0300000    1.0080
  158       HAE    1  MOL    H158   158   0.0300000    1.0080
  159        HC    1  MOL    H159   159   0.0600000    1.0080
  160        HC    1  MOL    H160   160   0.0600000    1.0080
  161        HC    1  MOL    H161   161   0.0600000    1.0080
  162        HC    1  MOL    H162   162   0.0600000    1.0080
  163        HC    1  MOL    H163   163   0.0600000    1.0080
  164        CT    1  MOL    C164   164  -0.1800000   12.0115
  165        CT    1  MOL    C165   165  -0.1200000   12.0115
  166        CT    1  MOL    C166   166  -0.1200000   12.0115
  167        CT    1  MOL    C167   167  -0.1200000   12.0115
  168        CT    1  MOL    C168   168   0.1900000   12.0115
  169       OES    1  MOL    O169   169  -0.3300000   15.9994
  170       CO4    1  MOL    C170   170   0.5100000   12.0115
  171         O    1  MOL    O171   171  -0.4300000   15.9994
  172        CT    1  MOL    C172   172   0.0000000   12.0115
  173        CT    1  MOL    C173   173  -0.1800000   12.0115
  174        CT    1  MOL    C174   174  -0.1200000   12.0115
  175        HC    1  MOL    H175   175   0.0600000    1.0080
  176        HC    1  MOL    H176   176   0.0600000    1.0080
  177        HC    1  MOL    H177   177   0.0600000    1.0080
  178        HC    1  MOL    H178   178   0.0600000    1.0080
  179        HC    1  MOL    H179   179   0.0600000    1.0080
  180        HC    1  MOL    H180   180   0.0600000    1.0080
  181        HC    1  MOL    H181   181   0.0600000    1.0080
  182        HC    1  MOL    H182   182   0.0600000    1.0080
  183        HC    1  MOL    H183   183   0.0600000    1.0080
  184       HAE    1  MOL    H184   184   0.0300000    1.0080
  185       HAE    1  MOL    H185   185   0.0300000    1.0080
  186        HC    1  MOL    H186   186   0.0600000    1.0080
  187        HC    1  MOL    H187   187   0.0600000    1.0080
  188        HC    1  MOL    H188   188   0.0600000    1.0080
  189        HC    1  MOL    H189   189   0.0600000    1.0080
  190        HC    1  MOL    H190   190   0.0600000    1.0080
  191        CT    1  MOL    C191   191  -0.1800000   12.0115
  192        CT    1  MOL    C192   192  -0.1200000   12.0115
  193        CT    1  MOL    C193   193  -0.1200000   12.0115
  194        CT    1  MOL    C194   194  -0.1200000   12.0115
  195        CT    1  MOL    C195   195   0.1900000   12.0115
  196       OES    1  MOL    O196   196  -0.3300000   15.9994
  197       CO4    1  MOL    C197   197   0.5100000   12.0115
  198         O    1  MOL    O198   198  -0.4300000   15.9994
  199        CT    1  MOL    C199   199   0.0000000   12.0115
  200        CT    1  MOL    C200   200  -0.1800000   12.0115
  201        CT    1  MOL    C201   201  -0.1200000   12.0115
  202        HC    1  MOL    H202   202   0.0600000    1.0080
  203        HC    1  MOL    H203   203   0.0600000    1.0080
  204        HC    1  MOL    H204   204   0.0600000    1.0080
  205        HC    1  MOL    H205   205   0.0600000    1.0080
  206        HC    1  MOL    H206   206   0.0600000    1.0080
  207        HC    1  MOL    H207   207   0.0600000    1.0080
  208        HC    1  MOL    H208   208   0.0600000    1.0080
  209        HC    1  MOL    H209   209   0.0600000    1.0080
  210        HC    1  MOL    H210   210   0.0600000    1.0080
  211       HAE    1  MOL    H211   211   0.0300000    1.0080
  212       HAE    1  MOL    H212   212   0.0300000    1.0080
  213        HC    1  MOL    H213   213   0.0600000    1.0080
  214        HC    1  MOL    H214   214   0.0600000    1.0080
  215        HC    1  MOL    H215   215   0.0600000    1.0080
  216        HC    1  MOL    H216   216   0.0600000    1.0080
  217        HC    1  MOL    H217   217   0.0600000    1.0080
  218        CT    1  MOL    C218   218  -0.1800000   12.0115
  219        CT    1  MOL    C219   219  -0.1200000   12.0115
  220        CT    1  MOL    C220   220  -0.1200000   12.0115
  221        CT    1  MOL    C221   221  -0.1200000   12.0115
  222        CT    1  MOL    C222   222   0.1900000   12.0115
  223       OES    1  MOL    O223   223  -0.3300000   15.9994
  224       CO4    1  MOL    C224   224   0.5100000   12.0115
  225         O    1  MOL    O225   225  -0.4300000   15.9994
  226        CT    1  MOL    C226   226   0.0000000   12.0115
  227        CT    1  MOL    C227   227  -0.1800000   12.0115
  228        CT    1  MOL    C228   228  -0.1200000   12.0115
  229        HC    1  MOL    H229   229   0.0600000    1.0080
  230        HC    1  MOL    H230   230   0.0600000    1.0080
  231        HC    1  MOL    H231   231   0.0600000    1.0080
  232        HC    1  MOL    H232   232   0.0600000    1.0080
  233        HC    1  MOL    H233   233   0.0600000    1.0080
  234        HC    1  MOL    H234   234   0.0600000    1.0080
  235        HC    1  MOL    H235   235   0.0600000    1.0080
  236        HC    1  MOL    H236   236   0.0600000    1.0080
  237        HC    1  MOL    H237   237   0.0600000    1.0080
  238       HAE    1  MOL    H238   238   0.0300000    1.0080
  239       HAE    1  MOL    H239   239   0.0300000    1.0080
  240        HC    1  MOL    H240   240   0.0600000    1.0080
  241        HC    1  MOL    H241   241   0.0600000    1.0080
  242        HC    1  MOL    H242   242   0.0600000    1.0080
  243        HC    1  MOL    H243   243   0.0600000    1.0080
  244        HC    1  MOL    H244   244   0.0600000    1.0080
  245        CT    1  MOL    C245   245  -0.1800000   12.0115
  246        CT    1  MOL    C246   246  -0.1200000   12.0115
  247        CT    1  MOL    C247   247  -0.1200000   12.0115
  248        CT    1  MOL    C248   248  -0.1200000   12.0115
  249        CT    1  MOL    C249   249   0.1900000   12.0115
  250       OES    1  MOL    O250   250  -0.3300000   15.9994
  251       CO4    1  MOL    C251   251   0.5100000   12.0115
  252         O    1  MOL    O252   252  -0.4300000   15.9994
  253        CT    1  MOL    C253   253   0.0000000   12.0115
  254        CT    1  MOL    C254   254  -0.1800000   12.0115
  255        CT    1  MOL    C255   255  -0.1200000   12.0115
  256        HC    1  MOL    H256   256   0.0600000    1.0080
  257        HC    1  MOL    H257   257   0.0600000    1.0080
  258        HC    1  MOL    H258   258   0.0600000    1.0080
  259        HC    1  MOL    H259   259   0.0600000    1.0080
  260        HC    1  MOL    H260   260   0.0600000    1.0080
  261        HC    1  MOL    H261   261   0.0600000    1.0080
  262        HC    1  MOL    H262   262   0.0600000    1.0080
  263        HC    1  MOL    H263   263   0.0600000    1.0080
  264        HC    1  MOL    H264   264   0.0600000    1.0080
  265       HAE    1  MOL    H265   265   0.0300000    1.0080
  266       HAE    1  MOL    H266   266   0.0300000    1.0080
  267        HC    1  MOL    H267   267   0.0600000    1.0080
  268        HC    1  MOL    H268   268   0.0600000    1.0080
  269        HC    1  MOL    H269   269   0.0600000    1.0080
  270        HC    1  MOL    H270   270   0.0600000    1.0080
  271        HC    1  MOL    H271   271   0.0600000    1.0080
  272        CT    1  MOL    C272   272  -0.1800000   12.0115
  273        CT    1  MOL    C273   273  -0.1200000   12.0115
  274        CT    1  MOL    C274   274  -0.1200000   12.0115
  275        CT    1  MOL    C275   275  -0.1200000   12.0115
  276        CT    1  MOL    C276   276   0.1900000   12.0115
  277       OES    1  MOL    O277   277  -0.3300000   15.9994
  278       CO4    1  MOL    C278   278   0.5100000   12.0115
  279         O    1  MOL    O279   279  -0.4300000   15.9994
  280        CT    1  MOL    C280   280   0.0000000   12.0115
  281        CT    1  MOL    C281   281  -0.1800000   12.0115
  282        CT    1  MOL    C282   282  -0.1200000   12.0115
  283        HC    1  MOL    H283   283   0.0600000    1.0080
  284        HC    1  MOL    H284   284   0.0600000    1.0080
  285        HC    1  MOL    H285   285   0.0600000    1.0080
  286        HC    1  MOL    H286   286   0.0600000    1.0080
  287        HC    1  MOL    H287   287   0.0600000    1.0080
  288        HC    1  MOL    H288   288   0.0600000    1.0080
  289        HC    1  MOL    H289   289   0.0600000    1.0080
  290        HC    1  MOL    H290   290   0.0600000    1.0080
  291        HC    1  MOL    H291   291   0.0600000    1.0080
  292       HAE    1  MOL    H292   292   0.0300000    1.0080
  293       HAE    1  MOL    H293   293   0.0300000    1.0080
  294        HC    1  MOL    H294   294   0.0600000    1.0080
  295        HC    1  MOL    H295   295   0.0600000    1.0080
  296        HC    1  MOL    H296   296   0.0600000    1.0080
  297        HC    1  MOL    H297   297   0.0600000    1.0080
  298        HC    1  MOL    H298   298   0.0600000    1.0080
  299        CT    1  MOL    C299   299  -0.1800000   12.0115
  300        CT    1  MOL    C300   300  -0.1200000   12.0115
  301        CT    1  MOL    C301   301  -0.1200000   12.0115
  302        CT    1  MOL    C302   302  -0.1200000   12.0115
  303        CT    1  MOL    C303   303   0.1900000   12.0115
  304       OES    1  MOL    O304   304  -0.3300000   15.9994
  305       CO4    1  MOL    C305   305   0.5100000   12.0115
  306         O    1  MOL    O306   306  -0.4300000   15.9994
  307        CT    1  MOL    C307   307   0.0000000   12.0115
  308        CT    1  MOL    C308   308  -0.1800000   12.0115
  309        CT    1  MOL    C309   309  -0.1200000   12.0115
  310        HC    1  MOL    H310   310   0.0600000    1.0080
  311        HC    1  MOL    H311   311   0.0600000    1.0080
  312        HC    1  MOL    H312   312   0.0600000    1.0080
  313        HC    1  MOL    H313   313   0.0600000    1.0080
  314        HC    1  MOL    H314   314   0.0600000    1.0080
  315        HC    1  MOL    H315   315   0.0600000    1.0080
  316        HC    1  MOL    H316   316   0.0600000    1.0080
  317        HC    1  MOL    H317   317   0.0600000    1.0080
  318        HC    1  MOL    H318   318   0.0600000    1.0080
  319       HAE    1  MOL    H319   319   0.0300000    1.0080
  320       HAE    1  MOL    H320   320   0.0300000    1.0080
  321        HC    1  MOL    H321   321   0.0600000    1.0080
  322        HC    1  MOL    H322   322   0.0600000    1.0080
  323        HC    1  MOL    H323   323   0.0600000    1.0080
  324        HC    1  MOL    H324   324   0.0600000    1.0080
  325        HC    1  MOL    H325   325   0.0600000    1.0080
  326        CT    1  MOL    C326   326  -0.1800000   12.0115
  327        CT    1  MOL    C327   327  -0.1200000   12.0115
  328        CT    1  MOL    C328   328  -0.1200000   12.0115
  329        CT    1  MOL    C329   329  -0.1200000   12.0115
  330        CT    1  MOL    C330   330   0.1900000   12.0115
  331       OES    1  MOL    O331   331  -0.3300000   15.9994
  332       CO4    1  MOL    C332   332   0.5100000   12.0115
  333         O    1  MOL    O333   333  -0.4300000   15.9994
  334        CT    1  MOL    C334   334   0.0000000   12.0115
  335        CT    1  MOL    C335   335  -0.1800000   12.0115
  336        CT    1  MOL    C336   336  -0.1200000   12.0115
  337        HC    1  MOL    H337   337   0.0600000    1.0080
  338        HC    1  MOL    H338   338   0.0600000    1.0080
  339        HC    1  MOL    H339   339   0.0600000    1.0080
  340        HC    1  MOL    H340   340   0.0600000    1.0080
  341        HC    1  MOL    H341   341   0.0600000    1.0080
  342        HC    1  MOL    H342   342   0.0600000    1.0080
  343        HC    1  MOL    H343   343   0.0600000    1.0080
  344        HC    1  MOL    H344   344   0.0600000    1.0080
  345        HC    1  MOL    H345   345   0.0600000    1.0080
  346       HAE    1  MOL    H346   346   0.0300000    1.0080
  347       HAE    1  MOL    H347   347   0.0300000    1.0080
  348        HC    1  MOL    H348   348   0.0600000    1.0080
  349        HC    1  MOL    H349   349   0.0600000    1.0080
  350        HC    1  MOL    H350   350   0.0600000    1.0080
  351        HC    1  MOL    H351   351   0.0600000    1.0080
  352        HC    1  MOL    H352   352   0.0600000    1.0080
  353        CT    1  MOL    C353   353  -0.1800000   12.0115
  354        CT    1  MOL    C354   354  -0.1200000   12.0115
  355        CT    1  MOL    C355   355  -0.1200000   12.0115
  356        CT    1  MOL    C356   356  -0.1200000   12.0115
  357        CT    1  MOL    C357   357   0.1900000   12.0115
  358       OES    1  MOL    O358   358  -0.3300000   15.9994
  359       CO4    1  MOL    C359   359   0.5100000   12.0115
  360         O    1  MOL    O360   360  -0.4300000   15.9994
  361        CT    1  MOL    C361   361   0.0000000   12.0115
  362        CT    1  MOL    C362   362  -0.1800000   12.0115
  363        CT    1  MOL    C363   363  -0.1200000   12.0115
  364        HC    1  MOL    H364   364   0.0600000    1.0080
  365        HC    1  MOL    H365   365   0.0600000    1.0080
  366        HC    1  MOL    H366   366   0.0600000    1.0080
  367        HC    1  MOL    H367   367   0.0600000    1.0080
  368        HC    1  MOL    H368   368   0.0600000    1.0080
  369        HC    1  MOL    H369   369   0.0600000    1.0080
  370        HC    1  MOL    H370   370   0.0600000    1.0080
  371        HC    1  MOL    H371   371   0.0600000    1.0080
  372        HC    1  MOL    H372   372   0.0600000    1.0080
  373       HAE    1  MOL    H373   373   0.0300000    1.0080
  374       HAE    1  MOL    H374   374   0.0300000    1.0080
  375        HC    1  MOL    H375   375   0.0600000    1.0080
  376        HC    1  MOL    H376   376   0.0600000    1.0080
  377        HC    1  MOL    H377   377   0.0600000    1.0080
  378        HC    1  MOL    H378   378   0.0600000    1.0080
  379        HC    1  MOL    H379   379   0.0600000    1.0080
  380        CT    1  MOL    C380   380  -0.1800000   12.0115
  381        CT    1  MOL    C381   381  -0.1200000   12.0115
  382        CT    1  MOL    C382   382  -0.1200000   12.0115
  383        CT    1  MOL    C383   383  -0.1200000   12.0115
  384        CT    1  MOL    C384   384   0.1900000   12.0115
  385       OES    1  MOL    O385   385  -0.3300000   15.9994
  386       CO4    1  MOL    C386   386   0.5100000   12.0115
  387         O    1  MOL    O387   387  -0.4300000   15.9994
  388        CT    1  MOL    C388   388   0.0000000   12.0115
  389        CT    1  MOL    C389   389  -0.1800000   12.0115
  390        CT    1  MOL    C390   390  -0.1200000   12.0115
  391        HC    1  MOL    H391   391   0.0600000    1.0080
  392        HC    1  MOL    H392   392   0.0600000    1.0080
  393        HC    1  MOL    H393   393   0.0600000    1.0080
  394        HC    1  MOL    H394   394   0.0600000    1.0080
  395        HC    1  MOL    H395   395   0.0600000    1.0080
  396        HC    1  MOL    H396   396   0.0600000    1.0080
  397        HC    1  MOL    H397   397   0.0600000    1.0080
  398        HC    1  MOL    H398   398   0.0600000    1.0080
  399        HC    1  MOL    H399   399   0.0600000    1.0080
  400       HAE    1  MOL    H400   400   0.0300000    1.0080
  401       HAE    1  MOL    H401   401   0.0300000    1.0080
  402        HC    1  MOL    H402   402   0.0600000    1.0080
  403        HC    1  MOL    H403   403   0.0600000    1.0080
  404        HC    1  MOL    H404   404   0.0600000    1.0080
  405        HC    1  MOL    H405   405   0.0600000    1.0080
  406        HC    1  MOL    H406   406   0.0600000    1.0080
  407        CT    1  MOL    C407   407  -0.1800000   12.0115
  408        CT    1  MOL    C408   408  -0.1200000   12.0115
  409        CT    1  MOL    C409   409  -0.1200000   12.0115
  410        CT    1  MOL    C410   410  -0.1200000   12.0115
  411        CT    1  MOL    C411   411   0.1900000   12.0115
  412       OES    1  MOL    O412   412  -0.3300000   15.9994
  413       CO4    1  MOL    C413   413   0.5100000   12.0115
  414         O    1  MOL    O414   414  -0.4300000   15.9994
  415        CT    1  MOL    C415   415   0.0000000   12.0115
  416        CT    1  MOL    C416   416  -0.1800000   12.0115
  417        CT    1  MOL    C417   417  -0.1200000   12.0115
  418        HC    1  MOL    H418   418   0.0600000    1.0080
  419        HC    1  MOL    H419   419   0.0600000    1.0080
  420        HC    1  MOL    H420   420   0.0600000    1.0080
  421        HC    1  MOL    H421   421   0.0600000    1.0080
  422        HC    1  MOL    H422   422   0.0600000    1.0080
  423        HC    1  MOL    H423   423   0.0600000    1.0080
  424        HC    1  MOL    H424   424   0.0600000    1.0080
  425        HC    1  MOL    H425   425   0.0600000    1.0080
  426        HC    1  MOL    H426   426   0.0600000    1.0080
  427       HAE    1  MOL    H427   427   0.0300000    1.0080
  428       HAE    1  MOL    H428   428   0.0300000    1.0080
  429        HC    1  MOL    H429   429   0.0600000    1.0080
  430        HC    1  MOL    H430   430   0.0600000    1.0080
  431        HC    1  MOL    H431   431   0.0600000    1.0080
  432        HC    1  MOL    H432   432   0.0600000    1.0080
  433        HC    1  MOL    H433   433   0.0600000    1.0080
  434        CT    1  MOL    C434   434  -0.1800000   12.0115
  435        CT    1  MOL    C435   435  -0.1200000   12.0115
  436        CT    1  MOL    C436   436  -0.1200000   12.0115
  437        CT    1  MOL    C437   437  -0.1200000   12.0115
  438        CT    1  MOL    C438   438   0.1900000   12.0115
  439       OES    1  MOL    O439   439  -0.3300000   15.9994
  440       CO4    1  MOL    C440   440   0.5100000   12.0115
  441         O    1  MOL    O441   441  -0.4300000   15.9994
  442        CT    1  MOL    C442   442   0.0000000   12.0115
  443        CT    1  MOL    C443   443  -0.1800000   12.0115
  444        CT    1  MOL    C444   444  -0.1200000   12.0115
  445        HC    1  MOL    H445   445   0.0600000    1.0080
  446        HC    1  MOL    H446   446   0.0600000    1.0080
  447        HC    1  MOL    H447   447   0.0600000    1.0080
  448        HC    1  MOL    H448   448   0.0600000    1.0080
  449        HC    1  MOL    H449   449   0.0600000    1.0080
  450        HC    1  MOL    H450   450   0.0600000    1.0080
  451        HC    1  MOL    H451   451   0.0600000    1.0080
  452        HC    1  MOL    H452   452   0.0600000    1.0080
  453        HC    1  MOL    H453   453   0.0600000    1.0080
  454       HAE    1  MOL    H454   454   0.0300000    1.0080
  455       HAE    1  MOL    H455   455   0.0300000    1.0080
  456        HC    1  MOL    H456   456   0.0600000    1.0080
  457        HC    1  MOL    H457   457   0.0600000    1.0080
  458        HC    1  MOL    H458   458   0.0600000    1.0080
  459        HC    1  MOL    H459   459   0.0600000    1.0080
  460        HC    1  MOL    H460   460   0.0600000    1.0080
  461        CT    1  MOL    C461   461  -0.1800000   12.0115
  462        CT    1  MOL    C462   462  -0.1200000   12.0115
  463        CT    1  MOL    C463   463  -0.1200000   12.0115
  464        CT    1  MOL    C464   464  -0.1200000   12.0115
  465        CT    1  MOL    C465   465   0.1900000   12.0115
  466       OES    1  MOL    O466   466  -0.3300000   15.9994
  467       CO4    1  MOL    C467   467   0.5100000   12.0115
  468         O    1  MOL    O468   468  -0.4300000   15.9994
  469        CT    1  MOL    C469   469   0.0000000   12.0115
  470        CT    1  MOL    C470   470  -0.1800000   12.0115
  471        CT    1  MOL    C471   471  -0.1200000   12.0115
  472        HC    1  MOL    H472   472   0.0600000    1.0080
  473        HC    1  MOL    H473   473   0.0600000    1.0080
  474        HC    1  MOL    H474   474   0.0600000    1.0080
  475        HC    1  MOL    H475   475   0.0600000    1.0080
  476        HC    1  MOL    H476   476   0.0600000    1.0080
  477        HC    1  MOL    H477   477   0.0600000    1.0080
  478        HC    1  MOL    H478   478   0.0600000    1.0080
  479        HC    1  MOL    H479   479   0.0600000    1.0080
  480        HC    1  MOL    H480   480   0.0600000    1.0080
  481       HAE    1  MOL    H481   481   0.0300000    1.0080
  482       HAE    1  MOL    H482   482   0.0300000    1.0080
  483        HC    1  MOL    H483   483   0.0600000    1.0080
  484        HC    1  MOL    H484   484   0.0600000    1.0080
  485        HC    1  MOL    H485   485   0.0600000    1.0080
  486        HC    1  MOL    H486   486   0.0600000    1.0080
  487        HC    1  MOL    H487   487   0.0600000    1.0080
  488        CT    1  MOL    C488   488  -0.1800000   12.0115
  489        CT    1  MOL    C489   489  -0.1200000   12.0115
  490        CT    1  MOL    C490   490  -0.1200000   12.0115
  491        CT    1  MOL    C491   491  -0.1200000   12.0115
  492        CT    1  MOL    C492   492   0.1900000   12.0115
  493       OES    1  MOL    O493   493  -0.3300000   15.9994
  494       CO4    1  MOL    C494   494   0.5100000   12.0115
  495         O    1  MOL    O495   495  -0.4300000   15.9994
  496        CT    1  MOL    C496   496   0.0000000   12.0115
  497        CT    1  MOL    C497   497  -0.1800000   12.0115
  498        CT    1  MOL    C498   498  -0.1200000   12.0115
  499        HC    1  MOL    H499   499   0.0600000    1.0080
  500        HC    1  MOL    H500   500   0.0600000    1.0080
  501        HC    1  MOL    H501   501   0.0600000    1.0080
  502        HC    1  MOL    H502   502   0.0600000    1.0080
  503        HC    1  MOL    H503   503   0.0600000    1.0080
  504        HC    1  MOL    H504   504   0.0600000    1.0080
  505        HC    1  MOL    H505   505   0.0600000    1.0080
  506        HC    1  MOL    H506   506   0.0600000    1.0080
  507        HC    1  MOL    H507   507   0.0600000    1.0080
  508       HAE    1  MOL    H508   508   0.0300000    1.0080
  509       HAE    1  MOL    H509   509   0.0300000    1.0080
  510        HC    1  MOL    H510   510   0.0600000    1.0080
  511        HC    1  MOL    H511   511   0.0600000    1.0080
  512        HC    1  MOL    H512   512   0.0600000    1.0080
  513        HC    1  MOL    H513   513   0.0600000    1.0080
  514        HC    1  MOL    H514   514   0.0600000    1.0080
  515        CT    1  MOL    C515   515  -0.1800000   12.0115
  516        CT    1  MOL    C516   516  -0.1200000   12.0115
  517        CT    1  MOL    C517   517  -0.1200000   12.0115
  518        CT    1  MOL    C518   518  -0.1200000   12.0115
  519        CT    1  MOL    C519   519   0.1900000   12.0115
  520       OES    1  MOL    O520   520  -0.3300000   15.9994
  521       CO4    1  MOL    C521   521   0.5100000   12.0115
  522         O    1  MOL    O522   522  -0.4300000   15.9994
  523        CT    1  MOL    C523   523   0.0000000   12.0115
  524        CT    1  MOL    C524   524  -0.1800000   12.0115
  525        CT    1  MOL    C525   525  -0.1800000   12.0115
  526        HC    1  MOL    H526   526   0.0600000    1.0080
  527        HC    1  MOL    H527   527   0.0600000    1.0080
  528        HC    1  MOL    H528   528   0.0600000    1.0080
  529        HC    1  MOL    H529   529   0.0600000    1.0080
  530        HC    1  MOL    H530   530   0.0600000    1.0080
  531        HC    1  MOL    H531   531   0.0600000    1.0080
  532        HC    1  MOL    H532   532   0.0600000    1.0080
  533        HC    1  MOL    H533   533   0.0600000    1.0080
  534        HC    1  MOL    H534   534   0.0600000    1.0080
  535       HAE    1  MOL    H535   535   0.0300000    1.0080
  536       HAE    1  MOL    H536   536   0.0300000    1.0080
  537        HC    1  MOL    H537   537   0.0600000    1.0080
  538        HC    1  MOL    H538   538   0.0600000    1.0080
  539        HC    1  MOL    H539   539   0.0600000    1.0080
  540        HC    1  MOL    H540   540   0.0600000    1.0080
  541        HC    1  MOL    H541   541   0.0600000    1.0080
  542        HC    1  MOL    H542   542   0.0600000    1.0080

[ bonds ]
      1      2   1      0.1529 224262.4000
      1     12   1      0.1090 284512.0000
      1     13   1      0.1090 284512.0000
      1     14   1      0.1090 284512.0000
      2      3   1      0.1529 224262.4000
      2     15   1      0.1090 284512.0000
      2     16   1      0.1090 284512.0000
      3      4   1      0.1529 224262.4000
      3     17   1      0.1090 284512.0000
      3     18   1      0.1090 284512.0000
      4      5   1      0.1529 224262.4000
      4     19   1      0.1090 284512.0000
      4     20   1      0.1090 284512.0000
      5      6   1      0.1410 267776.0000
      5     21   1      0.1090 284512.0000
      5     22   1      0.1090 284512.0000
      6      7   1      0.1327 179075.2000
      7      8   1      0.1229 476976.0000
      7      9   1      0.1522 265265.6000
      9     10   1      0.1529 224262.4000
      9     11   1      0.1529 224262.4000
      9     28   1      0.1090 284512.0000
     10     23   1      0.1090 284512.0000
     10     24   1      0.1090 284512.0000
     10     25   1      0.1090 284512.0000
     11     26   1      0.1090 284512.0000
     11     27   1      0.1090 284512.0000
     11     37   1      0.1529 224262.4000
     29     30   1      0.1529 224262.4000
     29     40   1      0.1090 284512.0000
     29     41   1      0.1090 284512.0000
     29     42   1      0.1090 284512.0000
     30     31   1      0.1529 224262.4000
     30     43   1      0.1090 284512.0000
     30     44   1      0.1090 284512.0000
     31     32   1      0.1529 224262.4000
     31     45   1      0.1090 284512.0000
     31     46   1      0.1090 284512.0000
     32     33   1      0.1529 224262.4000
     32     47   1      0.1090 284512.0000
     32     48   1      0.1090 284512.0000
     33     34   1      0.1410 267776.0000
     33     49   1      0.1090 284512.0000
     33     50   1      0.1090 284512.0000
     34     35   1      0.1327 179075.2000
     35     36   1      0.1229 476976.0000
     35     37   1      0.1522 265265.6000
     37     38   1      0.1529 224262.4000
     37     39   1      0.1529 224262.4000
     38     51   1      0.1090 284512.0000
     38     52   1      0.1090 284512.0000
     38     53   1      0.1090 284512.0000
     39     54   1      0.1090 284512.0000
     39     55   1      0.1090 284512.0000
     39     64   1      0.1529 224262.4000
     56     57   1      0.1529 224262.4000
     56     67   1      0.1090 284512.0000
     56     68   1      0.1090 284512.0000
     56     69   1      0.1090 284512.0000
     57     58   1      0.1529 224262.4000
     57     70   1      0.1090 284512.0000
     57     71   1      0.1090 284512.0000
     58     59   1      0.1529 224262.4000
     58     72   1      0.1090 284512.0000
     58     73   1      0.1090 284512.0000
     59     60   1      0.1529 224262.4000
     59     74   1      0.1090 284512.0000
     59     75   1      0.1090 284512.0000
     60     61   1      0.1410 267776.0000
     60     76   1      0.1090 284512.0000
     60     77   1      0.1090 284512.0000
     61     62   1      0.1327 179075.2000
     62     63   1      0.1229 476976.0000
     62     64   1      0.1522 265265.6000
     64     65   1      0.1529 224262.4000
     64     66   1      0.1529 224262.4000
     65     78   1      0.1090 284512.0000
     65     79   1      0.1090 284512.0000
     65     80   1      0.1090 284512.0000
     66     81   1      0.1090 284512.0000
     66     82   1      0.1090 284512.0000
     66     91   1      0.1529 224262.4000
     83     84   1      0.1529 224262.4000
     83     94   1      0.1090 284512.0000
     83     95   1      0.1090 284512.0000
     83     96   1      0.1090 284512.0000
     84     85   1      0.1529 224262.4000
     84     97   1      0.1090 284512.0000
     84     98   1      0.1090 284512.0000
     85     86   1      0.1529 224262.4000
     85     99   1      0.1090 284512.0000
     85    100   1      0.1090 284512.0000
     86     87   1      0.1529 224262.4000
     86    101   1      0.1090 284512.0000
     86    102   1      0.1090 284512.0000
     87     88   1      0.1410 267776.0000
     87    103   1      0.1090 284512.0000
     87    104   1      0.1090 284512.0000
     88     89   1      0.1327 179075.2000
     89     90   1      0.1229 476976.0000
     89     91   1      0.1522 265265.6000
     91     92   1      0.1529 224262.4000
     91     93   1      0.1529 224262.4000
     92    105   1      0.1090 284512.0000
     92    106   1      0.1090 284512.0000
     92    107   1      0.1090 284512.0000
     93    108   1      0.1090 284512.0000
     93    109   1      0.1090 284512.0000
     93    118   1      0.1529 224262.4000
    110    111   1      0.1529 224262.4000
    110    121   1      0.1090 284512.0000
    110    122   1      0.1090 284512.0000
    110    123   1      0.1090 284512.0000
    111    112   1      0.1529 224262.4000
    111    124   1      0.1090 284512.0000
    111    125   1      0.1090 284512.0000
    112    113   1      0.1529 224262.4000
    112    126   1      0.1090 284512.0000
    112    127   1      0.1090 284512.0000
    113    114   1      0.1529 224262.4000
    113    128   1      0.1090 284512.0000
    113    129   1      0.1090 284512.0000
    114    115   1      0.1410 267776.0000
    114    130   1      0.1090 284512.0000
    114    131   1      0.1090 284512.0000
    115    116   1      0.1327 179075.2000
    116    117   1      0.1229 476976.0000
    116    118   1      0.1522 265265.6000
    118    119   1      0.1529 224262.4000
    118    120   1      0.1529 224262.4000
    119    132   1      0.1090 284512.0000
    119    133   1      0.1090 284512.0000
    119    134   1      0.1090 284512.0000
    120    135   1      0.1090 284512.0000
    120    136   1      0.1090 284512.0000
    120    145   1      0.1529 224262.4000
    137    138   1      0.1529 224262.4000
    137    148   1      0.1090 284512.0000
    137    149   1      0.1090 284512.0000
    137    150   1      0.1090 284512.0000
    138    139   1      0.1529 224262.4000
    138    151   1      0.1090 284512.0000
    138    152   1      0.1090 284512.0000
    139    140   1      0.1529 224262.4000
    139    153   1      0.1090 284512.0000
    139    154   1      0.1090 284512.0000
    140    141   1      0.1529 224262.4000
    140    155   1      0.1090 284512.0000
    140    156   1      0.1090 284512.0000
    141    142   1      0.1410 267776.0000
    141    157   1      0.1090 284512.0000
    141    158   1      0.1090 284512.0000
    142    143   1      0.1327 179075.2000
    143    144   1      0.1229 476976.0000
    143    145   1      0.1522 265265.6000
    145    146   1      0.1529 224262.4000
    145    147   1      0.1529 224262.4000
    146    159   1      0.1090 284512.0000
    146    160   1      0.1090 284512.0000
    146    161   1      0.1090 284512.0000
    147    162   1      0.1090 284512.0000
    147    163   1      0.1090 284512.0000
    147    172   1      0.1529 224262.4000
    164    165   1      0.1529 224262.4000
    164    175   1      0.1090 284512.0000
    164    176   1      0.1090 284512.0000
    164    177   1      0.1090 284512.0000
    165    166   1      0.1529 224262.4000
    165    178   1      0.1090 284512.0000
    165    179   1      0.1090 284512.0000
    166    167   1      0.1529 224262.4000
    166    180   1      0.1090 284512.0000
    166    181   1      0.1090 284512.0000
    167    168   1      0.1529 224262.4000
    167    182   1      0.1090 284512.0000
    167    183   1      0.1090 284512.0000
    168    169   1      0.1410 267776.0000
    168    184   1      0.1090 284512.0000
    168    185   1      0.1090 284512.0000
    169    170   1      0.1327 179075.2000
    170    171   1      0.1229 476976.0000
    170    172   1      0.1522 265265.6000
    172    173   1      0.1529 224262.4000
    172    174   1      0.1529 224262.4000
    173    186   1      0.1090 284512.0000
    173    187   1      0.1090 284512.0000
    173    188   1      0.1090 284512.0000
    174    189   1      0.1090 284512.0000
    174    190   1      0.1090 284512.0000
    174    199   1      0.1529 224262.4000
    191    192   1      0.1529 224262.4000
    191    202   1      0.1090 284512.0000
    191    203   1      0.1090 284512.0000
    191    204   1      0.1090 284512.0000
    192    193   1      0.1529 224262.4000
    192    205   1      0.1090 284512.0000
    192    206   1      0.1090 284512.0000
    193    194   1      0.1529 224262.4000
    193    207   1      0.1090 284512.0000
    193    208   1      0.1090 284512.0000
    194    195   1      0.1529 224262.4000
    194    209   1      0.1090 284512.0000
    194    210   1      0.1090 284512.0000
    195    196   1      0.1410 267776.0000
    195    211   1      0.1090 284512.0000
    195    212   1      0.1090 284512.0000
    196    197   1      0.1327 179075.2000
    197    198   1      0.1229 476976.0000
    197    199   1      0.1522 265265.6000
    199    200   1      0.1529 224262.4000
    199    201   1      0.1529 224262.4000
    200    213   1      0.1090 284512.0000
    200    214   1      0.1090 284512.0000
    200    215   1      0.1090 284512.0000
    201    216   1      0.1090 284512.0000
    201    217   1      0.1090 284512.0000
    201    226   1      0.1529 224262.4000
    218    219   1      0.1529 224262.4000
    218    229   1      0.1090 284512.0000
    218    230   1      0.1090 284512.0000
    218    231   1      0.1090 284512.0000
    219    220   1      0.1529 224262.4000
    219    232   1      0.1090 284512.0000
    219    233   1      0.1090 284512.0000
    220    221   1      0.1529 224262.4000
    220    234   1      0.1090 284512.0000
    220    235   1      0.1090 284512.0000
    221    222   1      0.1529 224262.4000
    221    236   1      0.1090 284512.0000
    221    237   1      0.1090 284512.0000
    222    223   1      0.1410 267776.0000
    222    238   1      0.1090 284512.0000
    222    239   1      0.1090 284512.0000
    223    224   1      0.1327 179075.2000
    224    225   1      0.1229 476976.0000
    224    226   1      0.1522 265265.6000
    226    227   1      0.1529 224262.4000
    226    228   1      0.1529 224262.4000
    227    240   1      0.1090 284512.0000
    227    241   1      0.1090 284512.0000
    227    242   1      0.1090 284512.0000
    228    243   1      0.1090 284512.0000
    228    244   1      0.1090 284512.0000
    228    253   1      0.1529 224262.4000
    245    246   1      0.1529 224262.4000
    245    256   1      0.1090 284512.0000
    245    257   1      0.1090 284512.0000
    245    258   1      0.1090 284512.0000
    246    247   1      0.1529 224262.4000
    246    259   1      0.1090 284512.0000
    246    260   1      0.1090 284512.0000
    247    248   1      0.1529 224262.4000
    247    261   1      0.1090 284512.0000
    247    262   1      0.1090 284512.0000
    248    249   1      0.1529 224262.4000
    248    263   1      0.1090 284512.0000
    248    264   1      0.1090 284512.0000
    249    250   1      0.1410 267776.0000
    249    265   1      0.1090 284512.0000
    249    266   1      0.1090 284512.0000
    250    251   1      0.1327 179075.2000
    251    252   1      0.1229 476976.0000
    251    253   1      0.1522 265265.6000
    253    254   1      0.1529 224262.4000
    253    255   1      0.1529 224262.4000
    254    267   1      0.1090 284512.0000
    254    268   1      0.1090 284512.0000
    254    269   1      0.1090 284512.0000
    255    270   1      0.1090 284512.0000
    255    271   1      0.1090 284512.0000
    255    280   1      0.1529 224262.4000
    272    273   1      0.1529 224262.4000
    272    283   1      0.1090 284512.0000
    272    284   1      0.1090 284512.0000
    272    285   1      0.1090 284512.0000
    273    274   1      0.1529 224262.4000
    273    286   1      0.1090 284512.0000
    273    287   1      0.1090 284512.0000
    274    275   1      0.1529 224262.4000
    274    288   1      0.1090 284512.0000
    274    289   1      0.1090 284512.0000
    275    276   1      0.1529 224262.4000
    275    290   1      0.1090 284512.0000
    275    291   1      0.1090 284512.0000
    276    277   1      0.1410 267776.0000
    276    292   1      0.1090 284512.0000
    276    293   1      0.1090 284512.0000
    277    278   1      0.1327 179075.2000
    278    279   1      0.1229 476976.0000
    278    280   1      0.1522 265265.6000
    280    281   1      0.1529 224262.4000
    280    282   1      0.1529 224262.4000
    281    294   1      0.1090 284512.0000
    281    295   1      0.1090 284512.0000
    281    296   1      0.1090 284512.0000
    282    297   1      0.1090 284512.0000
    282    298   1      0.1090 284512.0000
    282    307   1      0.1529 224262.4000
    299    300   1      0.1529 224262.4000
    299    310   1      0.1090 284512.0000
    299    311   1      0.1090 284512.0000
    299    312   1      0.1090 284512.0000
    300    301   1      0.1529 224262.4000
    300    313   1      0.1090 284512.0000
    300    314   1      0.1090 284512.0000
    301    302   1      0.1529 224262.4000
    301    315   1      0.1090 284512.0000
    301    316   1      0.1090 284512.0000
    302    303   1      0.1529 224262.4000
    302    317   1      0.1090 284512.0000
    302    318   1      0.1090 284512.0000
    303    304   1      0.1410 267776.0000
    303    319   1      0.1090 284512.0000
    303    320   1      0.1090 284512.0000
    304    305   1      0.1327 179075.2000
    305    306   1      0.1229 476976.0000
    305    307   1      0.1522 265265.6000
    307    308   1      0.1529 224262.4000
    307    309   1      0.1529 224262.4000
    308    321   1      0.1090 284512.0000
    308    322   1      0.1090 284512.0000
    308    323   1      0.1090 284512.0000
    309    324   1      0.1090 284512.0000
    309    325   1      0.1090 284512.0000
    309    334   1      0.1529 224262.4000
    326    327   1      0.1529 224262.4000
    326    337   1      0.1090 284512.0000
    326    338   1      0.1090 284512.0000
    326    339   1      0.1090 284512.0000
    327    328   1      0.1529 224262.4000
    327    340   1      0.1090 284512.0000
    327    341   1      0.1090 284512.0000
    328    329   1      0.1529 224262.4000
    328    342   1      0.1090 284512.0000
    328    343   1      0.1090 284512.0000
    329    330   1      0.1529 224262.4000
    329    344   1      0.1090 284512.0000
    329    345   1      0.1090 284512.0000
    330    331   1      0.1410 267776.0000
    330    346   1      0.1090 284512.0000
    330    347   1      0.1090 284512.0000
    331    332   1      0.1327 179075.2000
    332    333   1      0.1229 476976.0000
    332    334   1      0.1522 265265.6000
    334    335   1      0.1529 224262.4000
    334    336   1      0.1529 224262.4000
    335    348   1      0.1090 284512.0000
    335    349   1      0.1090 284512.0000
    335    350   1      0.1090 284512.0000
    336    351   1      0.1090 284512.0000
    336    352   1      0.1090 284512.0000
    336    361   1      0.1529 224262.4000
    353    354   1      0.1529 224262.4000
    353    364   1      0.1090 284512.0000
    353    365   1      0.1090 284512.0000
    353    366   1      0.1090 284512.0000
    354    355   1      0.1529 224262.4000
    354    367   1      0.1090 284512.0000
    354    368   1      0.1090 284512.0000
    355    356   1      0.1529 224262.4000
    355    369   1      0.1090 284512.0000
    355    370   1      0.1090 284512.0000
    356    357   1      0.1529 224262.4000
    356    371   1      0.1090 284512.0000
    356    372   1      0.1090 284512.0000
    357    358   1      0.1410 267776.0000
    357    373   1      0.1090 284512.0000
    357    374   1      0.1090 284512.0000
    358    359   1      0.1327 179075.2000
    359    360   1      0.1229 476976.0000
    359    361   1      0.1522 265265.6000
    361    362   1      0.1529 224262.4000
    361    363   1      0.1529 224262.4000
    362    375   1      0.1090 284512.0000
    362    376   1      0.1090 284512.0000
    362    377   1      0.1090 284512.0000
    363    378   1      0.1090 284512.0000
    363    379   1      0.1090 284512.0000
    363    388   1      0.1529 224262.4000
    380    381   1      0.1529 224262.4000
    380    391   1      0.1090 284512.0000
    380    392   1      0.1090 284512.0000
    380    393   1      0.1090 284512.0000
    381    382   1      0.1529 224262.4000
    381    394   1      0.1090 284512.0000
    381    395   1      0.1090 284512.0000
    382    383   1      0.1529 224262.4000
    382    396   1      0.1090 284512.0000
    382    397   1      0.1090 284512.0000
    383    384   1      0.1529 224262.4000
    383    398   1      0.1090 284512.0000
    383    399   1      0.1090 284512.0000
    384    385   1      0.1410 267776.0000
    384    400   1      0.1090 284512.0000
    384    401   1      0.1090 284512.0000
    385    386   1      0.1327 179075.2000
    386    387   1      0.1229 476976.0000
    386    388   1      0.1522 265265.6000
    388    389   1      0.1529 224262.4000
    388    390   1      0.1529 224262.4000
    389    402   1      0.1090 284512.0000
    389    403   1      0.1090 284512.0000
    389    404   1      0.1090 284512.0000
    390    405   1      0.1090 284512.0000
    390    406   1      0.1090 284512.0000
    390    415   1      0.1529 224262.4000
    407    408   1      0.1529 224262.4000
    407    418   1      0.1090 284512.0000
    407    419   1      0.1090 284512.0000
    407    420   1      0.1090 284512.0000
    408    409   1      0.1529 224262.4000
    408    421   1      0.1090 284512.0000
    408    422   1      0.1090 284512.0000
    409    410   1      0.1529 224262.4000
    409    423   1      0.1090 284512.0000
    409    424   1      0.1090 284512.0000
    410    411   1      0.1529 224262.4000
    410    425   1      0.1090 284512.0000
    410    426   1      0.1090 284512.0000
    411    412   1      0.1410 267776.0000
    411    427   1      0.1090 284512.0000
    411    428   1      0.1090 284512.0000
    412    413   1      0.1327 179075.2000
    413    414   1      0.1229 476976.0000
    413    415   1      0.1522 265265.6000
    415    416   1      0.1529 224262.4000
    415    417   1      0.1529 224262.4000
    416    429   1      0.1090 284512.0000
    416    430   1      0.1090 284512.0000
    416    431   1      0.1090 284512.0000
    417    432   1      0.1090 284512.0000
    417    433   1      0.1090 284512.0000
    417    442   1      0.1529 224262.4000
    434    435   1      0.1529 224262.4000
    434    445   1      0.1090 284512.0000
    434    446   1      0.1090 284512.0000
    434    447   1      0.1090 284512.0000
    435    436   1      0.1529 224262.4000
    435    448   1      0.1090 284512.0000
    435    449   1      0.1090 284512.0000
    436    437   1      0.1529 224262.4000
    436    450   1      0.1090 284512.0000
    436    451   1      0.1090 284512.0000
    437    438   1      0.1529 224262.4000
    437    452   1      0.1090 284512.0000
    437    453   1      0.1090 284512.0000
    438    439   1      0.1410 267776.0000
    438    454   1      0.1090 284512.0000
    438    455   1      0.1090 284512.0000
    439    440   1      0.1327 179075.2000
    440    441   1      0.1229 476976.0000
    440    442   1      0.1522 265265.6000
    442    443   1      0.1529 224262.4000
    442    444   1      0.1529 224262.4000
    443    456   1      0.1090 284512.0000
    443    457   1      0.1090 284512.0000
    443    458   1      0.1090 284512.0000
    444    459   1      0.1090 284512.0000
    444    460   1      0.1090 284512.0000
    444    469   1      0.1529 224262.4000
    461    462   1      0.1529 224262.4000
    461    472   1      0.1090 284512.0000
    461    473   1      0.1090 284512.0000
    461    474   1      0.1090 284512.0000
    462    463   1      0.1529 224262.4000
    462    475   1      0.1090 284512.0000
    462    476   1      0.1090 284512.0000
    463    464   1      0.1529 224262.4000
    463    477   1      0.1090 284512.0000
    463    478   1      0.1090 284512.0000
    464    465   1      0.1529 224262.4000
    464    479   1      0.1090 284512.0000
    464    480   1      0.1090 284512.0000
    465    466   1      0.1410 267776.0000
    465    481   1      0.1090 284512.0000
    465    482   1      0.1090 284512.0000
    466    467   1      0.1327 179075.2000
    467    468   1      0.1229 476976.0000
    467    469   1      0.1522 265265.6000
    469    470   1      0.1529 224262.4000
    469    471   1      0.1529 224262.4000
    470    483   1      0.1090 284512.0000
    470    484   1      0.1090 284512.0000
    470    485   1      0.1090 284512.0000
    471    486   1      0.1090 284512.0000
    471    487   1      0.1090 284512.0000
    471    496   1      0.1529 224262.4000
    488    489   1      0.1529 224262.4000
    488    499   1      0.1090 284512.0000
    488    500   1      0.1090 284512.0000
    488    501   1      0.1090 284512.0000
    489    490   1      0.1529 224262.4000
    489    502   1      0.1090 284512.0000
    489    503   1      0.1090 284512.0000
    490    491   1      0.1529 224262.4000
    490    504   1      0.1090 284512.0000
    490    505   1      0.1090 284512.0000
    491    492   1      0.1529 224262.4000
    491    506   1      0.1090 284512.0000
    491    507   1      0.1090 284512.0000
    492    493   1      0.1410 267776.0000
    492    508   1      0.1090 284512.0000
    492    509   1      0.1090 284512.0000
    493    494   1      0.1327 179075.2000
    494    495   1      0.1229 476976.0000
    494    496   1      0.1522 265265.6000
    496    497   1      0.1529 224262.4000
    496    498   1      0.1529 224262.4000
    497    510   1      0.1090 284512.0000
    497    511   1      0.1090 284512.0000
    497    512   1      0.1090 284512.0000
    498    513   1      0.1090 284512.0000
    498    514   1      0.1090 284512.0000
    498    523   1      0.1529 224262.4000
    515    516   1      0.1529 224262.4000
    515    526   1      0.1090 284512.0000
    515    527   1      0.1090 284512.0000
    515    528   1      0.1090 284512.0000
    516    517   1      0.1529 224262.4000
    516    529   1      0.1090 284512.0000
    516    530   1      0.1090 284512.0000
    517    518   1      0.1529 224262.4000
    517    531   1      0.1090 284512.0000
    517    532   1      0.1090 284512.0000
    518    519   1      0.1529 224262.4000
    518    533   1      0.1090 284512.0000
    518    534   1      0.1090 284512.0000
    519    520   1      0.1410 267776.0000
    519    535   1      0.1090 284512.0000
    519    536   1      0.1090 284512.0000
    520    521   1      0.1327 179075.2000
    521    522   1      0.1229 476976.0000
    521    523   1      0.1522 265265.6000
    523    524   1      0.1529 224262.4000
    523    525   1      0.1529 224262.4000
    524    537   1      0.1090 284512.0000
    524    538   1      0.1090 284512.0000
    524    539   1      0.1090 284512.0000
    525    540   1      0.1090 284512.0000
    525    541   1      0.1090 284512.0000
    525    542   1      0.1090 284512.0000

[ pairs ]
; ai   aj   funct   fudge_QQ  charge_i   charge_j   c6    c12
     12      3   2   0.50000     0.0600000   -0.1200000   2.494471e-04  1.671101e-07
     12     15   2   0.50000     0.0600000    0.0600000   6.128906e-05  1.496315e-08
     12     16   2   0.50000     0.0600000    0.0600000   6.128906e-05  1.496315e-08
     13      3   2   0.50000     0.0600000   -0.1200000   2.494471e-04  1.671101e-07
     13     15   2   0.50000     0.0600000    0.0600000   6.128906e-05  1.496315e-08
     13     16   2   0.50000     0.0600000    0.0600000   6.128906e-05  1.496315e-08
     14      3   2   0.50000     0.0600000   -0.1200000   2.494471e-04  1.671101e-07
     14     15   2   0.50000     0.0600000    0.0600000   6.128906e-05  1.496315e-08
     14     16   2   0.50000     0.0600000    0.0600000   6.128906e-05  1.496315e-08
      1      4   2   0.50000    -0.1800000   -0.1200000   1.015252e-03  1.866303e-06
      1     17   2   0.50000    -0.1800000    0.0600000   2.494471e-04  1.671101e-07
      1     18   2   0.50000    -0.1800000    0.0600000   2.494471e-04  1.671101e-07
     15      4   2   0.50000     0.0600000   -0.1200000   2.494471e-04  1.671101e-07
     15     17   2   0.50000     0.0600000    0.0600000   6.128906e-05  1.496315e-08
     15     18   2   0.50000     0.0600000    0.0600000   6.128906e-05  1.496315e-08
     16      4   2   0.50000     0.0600000   -0.1200000   2.494471e-04  1.671101e-07
     16     17   2   0.50000     0.0600000    0.0600000   6.128906e-05  1.496315e-08
     16     18   2   0.50000     0.0600000    0.0600000   6.128906e-05  1.496315e-08
      2      5   2   0.50000    -0.1200000    0.1900000   1.015252e-03  1.866303e-06
      2     19   2   0.50000    -0.1200000    0.0600000   2.494471e-04  1.671101e-07
      2     20   2   0.50000    -0.1200000    0.0600000   2.494471e-04  1.671101e-07
     17      5   2   0.50000     0.0600000    0.1900000   2.494471e-04  1.671101e-07
     17     19   2   0.50000     0.0600000    0.0600000   6.128906e-05  1.496315e-08
     17     20   2   0.50000     0.0600000    0.0600000   6.128906e-05  1.496315e-08
     18      5   2   0.50000     0.0600000    0.1900000   2.494471e-04  1.671101e-07
     18     19   2   0.50000     0.0600000    0.0600000   6.128906e-05  1.496315e-08
     18     20   2   0.50000     0.0600000    0.0600000   6.128906e-05  1.496315e-08
      3      6   2   0.50000    -0.1200000   -0.3300000   1.026091e-03  1.187829e-06
      3     21   2   0.50000    -0.1200000    0.0300000   1.599888e-04  9.721644e-08
      3     22   2   0.50000    -0.1200000    0.0300000   1.599888e-04  9.721644e-08
     19      6   2   0.50000     0.0600000   -0.3300000   2.521103e-04  1.063590e-07
     19     21   2   0.50000     0.0600000    0.0300000   3.930919e-05  8.704828e-09
     19     22   2   0.50000     0.0600000    0.0300000   3.930919e-05  8.704828e-09
     20      6   2   0.50000     0.0600000   -0.3300000   2.521103e-04  1.063590e-07
     20     21   2   0.50000     0.0600000    0.0300000   3.930919e-05  8.704828e-09
     20     22   2   0.50000     0.0600000    0.0300000   3.930919e-05  8.704828e-09
      4      7   2   0.50000    -0.1200000    0.5100000   1.575021e-03  3.561100e-06
     21      7   2   0.50000     0.0300000    0.5100000   2.482000e-04  1.854991e-07
     22      7   2   0.50000     0.0300000    0.5100000   2.482000e-04  1.854991e-07
      5      8   2   0.50000     0.1900000   -0.4300000   1.095425e-03  1.218041e-06
      5      9   2   0.50000     0.1900000   -0.0600000   1.015252e-03  1.866303e-06
      6     10   2   0.50000    -0.3300000   -0.1800000   1.026091e-03  1.187829e-06
      6     11   2   0.50000    -0.3300000   -0.1200000   1.026091e-03  1.187829e-06
      6     28   2   0.50000    -0.3300000    0.0600000   1.616969e-04  6.187447e-08
      8     10   2   0.50000    -0.4300000   -0.1800000   1.095425e-03  1.218041e-06
      8     11   2   0.50000    -0.4300000   -0.1200000   1.095425e-03  1.218041e-06
      8     28   2   0.50000    -0.4300000    0.0600000   1.726228e-04  6.344822e-08
      7     23   2   0.50000     0.5100000    0.0600000   3.869820e-04  3.188634e-07
      7     24   2   0.50000     0.5100000    0.0600000   3.869820e-04  3.188634e-07
      7     25   2   0.50000     0.5100000    0.0600000   3.869820e-04  3.188634e-07
     11     23   2   0.50000    -0.1200000    0.0600000   2.494471e-04  1.671101e-07
     11     24   2   0.50000    -0.1200000    0.0600000   2.494471e-04  1.671101e-07
     11     25   2   0.50000    -0.1200000    0.0600000   2.494471e-04  1.671101e-07
     28     23   2   0.50000     0.0600000    0.0600000   3.930919e-05  8.704828e-09
     28     24   2   0.50000     0.0600000    0.0600000   3.930919e-05  8.704828e-09
     28     25   2   0.50000     0.0600000    0.0600000   3.930919e-05  8.704828e-09
      7     26   2   0.50000     0.5100000    0.0600000   3.869820e-04  3.188634e-07
      7     27   2   0.50000     0.5100000    0.0600000   3.869820e-04  3.188634e-07
      7     37   2   0.50000     0.5100000    0.0000000   1.575021e-03  3.561100e-06
     10     26   2   0.50000    -0.1800000    0.0600000   2.494471e-04  1.671101e-07
     10     27   2   0.50000    -0.1800000    0.0600000   2.494471e-04  1.671101e-07
     10     37   2   0.50000    -0.1800000    0.0000000   1.015252e-03  1.866303e-06
     28     26   2   0.50000     0.0600000    0.0600000   3.930919e-05  8.704828e-09
     28     27   2   0.50000     0.0600000    0.0600000   3.930919e-05  8.704828e-09
     28     37   2   0.50000     0.0600000    0.0000000   1.599888e-04  9.721644e-08
      9     35   2   0.50000    -0.0600000    0.5100000   1.575021e-03  3.561100e-06
      9     38   2   0.50000    -0.0600000   -0.1800000   1.015252e-03  1.866303e-06
      9     39   2   0.50000    -0.0600000   -0.1200000   1.015252e-03  1.866303e-06
     26     35   2   0.50000     0.0600000    0.5100000   3.869820e-04  3.188634e-07
     26     38   2   0.50000     0.0600000   -0.1800000   2.494471e-04  1.671101e-07
     26     39   2   0.50000     0.0600000   -0.1200000   2.494471e-04  1.671101e-07
     27     35   2   0.50000     0.0600000    0.5100000   3.869820e-04  3.188634e-07
     27     38   2   0.50000     0.0600000   -0.1800000   2.494471e-04  1.671101e-07
     27     39   2   0.50000     0.0600000   -0.1200000   2.494471e-04  1.671101e-07
     40     31   2   0.50000     0.0600000   -0.1200000   2.494471e-04  1.671101e-07
     40     43   2   0.50000     0.0600000    0.0600000   6.128906e-05  1.496315e-08
     40     44   2   0.50000     0.0600000    0.0600000   6.128906e-05  1.496315e-08
     41     31   2   0.50000     0.0600000   -0.1200000   2.494471e-04  1.671101e-07
     41     43   2   0.50000     0.0600000    0.0600000   6.128906e-05  1.496315e-08
     41     44   2   0.50000     0.0600000    0.0600000   6.128906e-05  1.496315e-08
     42     31   2   0.50000     0.0600000   -0.1200000   2.494471e-04  1.671101e-07
     42     43   2   0.50000     0.0600000    0.0600000   6.128906e-05  1.496315e-08
     42     44   2   0.50000     0.0600000    0.0600000   6.128906e-05  1.496315e-08
     29     32   2   0.50000    -0.1800000   -0.1200000   1.015252e-03  1.866303e-06
     29     45   2   0.50000    -0.1800000    0.0600000   2.494471e-04  1.671101e-07
     29     46   2   0.50000    -0.1800000    0.0600000   2.494471e-04  1.671101e-07
     43     32   2   0.50000     0.0600000   -0.1200000   2.494471e-04  1.671101e-07
     43     45   2   0.50000     0.0600000    0.0600000   6.128906e-05  1.496315e-08
     43     46   2   0.50000     0.0600000    0.0600000   6.128906e-05  1.496315e-08
     44     32   2   0.50000     0.0600000   -0.1200000   2.494471e-04  1.671101e-07
     44     45   2   0.50000     0.0600000    0.0600000   6.128906e-05  1.496315e-08
     44     46   2   0.50000     0.0600000    0.0600000   6.128906e-05  1.496315e-08
     30     33   2   0.50000    -0.1200000    0.1900000   1.015252e-03  1.866303e-06
     30     47   2   0.50000    -0.1200000    0.0600000   2.494471e-04  1.671101e-07
     30     48   2   0.50000    -0.1200000    0.0600000   2.494471e-04  1.671101e-07
     45     33   2   0.50000     0.0600000    0.1900000   2.494471e-04  1.671101e-07
     45     47   2   0.50000     0.0600000    0.0600000   6.128906e-05  1.496315e-08
     45     48   2   0.50000     0.0600000    0.0600000   6.128906e-05  1.496315e-08
     46     33   2   0.50000     0.0600000    0.1900000   2.494471e-04  1.671101e-07
     46     47   2   0.50000     0.0600000    0.0600000   6.128906e-05  1.496315e-08
     46     48   2   0.50000     0.0600000    0.0600000   6.128906e-05  1.496315e-08
     31     34   2   0.50000    -0.1200000   -0.3300000   1.026091e-03  1.187829e-06
     31     49   2   0.50000    -0.1200000    0.0300000   1.599888e-04  9.721644e-08
     31     50   2   0.50000    -0.1200000    0.0300000   1.599888e-04  9.721644e-08
     47     34   2   0.50000     0.0600000   -0.3300000   2.521103e-04  1.063590e-07
     47     49   2   0.50000     0.0600000    0.0300000   3.930919e-05  8.704828e-09
     47     50   2   0.50000     0.0600000    0.0300000   3.930919e-05  8.704828e-09
     48     34   2   0.50000     0.0600000   -0.3300000   2.521103e-04  1.063590e-07
     48     49   2   0.50000     0.0600000    0.0300000   3.930919e-05  8.704828e-09
     48     50   2   0.50000     0.0600000    0.0300000   3.930919e-05  8.704828e-09
     32     35   2   0.50000    -0.1200000    0.5100000   1.575021e-03  3.561100e-06
     49     35   2   0.50000     0.0300000    0.5100000   2.482000e-04  1.854991e-07
     50     35   2   0.50000     0.0300000    0.5100000   2.482000e-04  1.854991e-07
     33     36   2   0.50000     0.1900000   -0.4300000   1.095425e-03  1.218041e-06
     33     37   2   0.50000     0.1900000    0.0000000   1.015252e-03  1.866303e-06
     34     11   2   0.50000    -0.3300000   -0.1200000   1.026091e-03  1.187829e-06
     34     38   2   0.50000    -0.3300000   -0.1800000   1.026091e-03  1.187829e-06
     34     39   2   0.50000    -0.3300000   -0.1200000   1.026091e-03  1.187829e-06
     36     11   2   0.50000    -0.4300000   -0.1200000   1.095425e-03  1.218041e-06
     36     38   2   0.50000    -0.4300000   -0.1800000   1.095425e-03  1.218041e-06
     36     39   2   0.50000    -0.4300000   -0.1200000   1.095425e-03  1.218041e-06
     11     51   2   0.50000    -0.1200000    0.0600000   2.494471e-04  1.671101e-07
     11     52   2   0.50000    -0.1200000    0.0600000   2.494471e-04  1.671101e-07
     11     53   2   0.50000    -0.1200000    0.0600000   2.494471e-04  1.671101e-07
     35     51   2   0.50000     0.5100000    0.0600000   3.869820e-04  3.188634e-07
     35     52   2   0.50000     0.5100000    0.0600000   3.869820e-04  3.188634e-07
     35     53   2   0.50000     0.5100000    0.0600000   3.869820e-04  3.188634e-07
     39     51   2   0.50000    -0.1200000    0.0600000   2.494471e-04  1.671101e-07
     39     52   2   0.50000    -0.1200000    0.0600000   2.494471e-04  1.671101e-07
     39     53   2   0.50000    -0.1200000    0.0600000   2.494471e-04  1.671101e-07
     11     54   2   0.50000    -0.1200000    0.0600000   2.494471e-04  1.671101e-07
     11     55   2   0.50000    -0.1200000    0.0600000   2.494471e-04  1.671101e-07
     11     64   2   0.50000    -0.1200000    0.0000000   1.015252e-03  1.866303e-06
     35     54   2   0.50000     0.5100000    0.0600000   3.869820e-04  3.188634e-07
     35     55   2   0.50000     0.5100000    0.0600000   3.869820e-04  3.188634e-07
     35     64   2   0.50000     0.5100000    0.0000000   1.575021e-03  3.561100e-06
     38     54   2   0.50000    -0.1800000    0.0600000   2.494471e-04  1.671101e-07
     38     55   2   0.50000    -0.1800000    0.0600000   2.494471e-04  1.671101e-07
     38     64   2   0.50000    -0.1800000    0.0000000   1.015252e-03  1.866303e-06
     37     62   2   0.50000     0.0000000    0.5100000   1.575021e-03  3.561100e-06
     37     65   2   0.50000     0.0000000   -0.1800000   1.015252e-03  1.866303e-06
     37     66   2   0.50000     0.0000000   -0.1200000   1.015252e-03  1.866303e-06
     54     62   2   0.50000     0.0600000    0.5100000   3.869820e-04  3.188634e-07
     54     65   2   0.50000     0.0600000   -0.1800000   2.494471e-04  1.671101e-07
     54     66   2   0.50000     0.0600000   -0.1200000   2.494471e-04  1.671101e-07
     55     62   2   0.50000     0.0600000    0.5100000   3.869820e-04  3.188634e-07
     55     65   2   0.50000     0.0600000   -0.1800000   2.494471e-04  1.671101e-07
     55     66   2   0.50000     0.0600000   -0.1200000   2.494471e-04  1.671101e-07
     67     58   2   0.50000     0.0600000   -0.1200000   2.494471e-04  1.671101e-07
     67     70   2   0.50000     0.0600000    0.0600000   6.128906e-05  1.496315e-08
     67     71   2   0.50000     0.0600000    0.0600000   6.128906e-05  1.496315e-08
     68     58   2   0.50000     0.0600000   -0.1200000   2.494471e-04  1.671101e-07
     68     70   2   0.50000     0.0600000    0.0600000   6.128906e-05  1.496315e-08
     68     71   2   0.50000     0.0600000    0.0600000   6.128906e-05  1.496315e-08
     69     58   2   0.50000     0.0600000   -0.1200000   2.494471e-04  1.671101e-07
     69     70   2   0.50000     0.0600000    0.0600000   6.128906e-05  1.496315e-08
     69     71   2   0.50000     0.0600000    0.0600000   6.128906e-05  1.496315e-08
     56     59   2   0.50000    -0.1800000   -0.1200000   1.015252e-03  1.866303e-06
     56     72   2   0.50000    -0.1800000    0.0600000   2.494471e-04  1.671101e-07
     56     73   2   0.50000    -0.1800000    0.0600000   2.494471e-04  1.671101e-07
     70     59   2   0.50000     0.0600000   -0.1200000   2.494471e-04  1.671101e-07
     70     72   2   0.50000     0.0600000    0.0600000   6.128906e-05  1.496315e-08
     70     73   2   0.50000     0.0600000    0.0600000   6.128906e-05  1.496315e-08
     71     59   2   0.50000     0.0600000   -0.1200000   2.494471e-04  1.671101e-07
     71     72   2   0.50000     0.0600000    0.0600000   6.128906e-05  1.496315e-08
     71     73   2   0.50000     0.0600000    0.0600000   6.128906e-05  1.496315e-08
     57     60   2   0.50000    -0.1200000    0.1900000   1.015252e-03  1.866303e-06
     57     74   2   0.50000    -0.1200000    0.0600000   2.494471e-04  1.671101e-07
     57     75   2   0.50000    -0.1200000    0.0600000   2.494471e-04  1.671101e-07
     72     60   2   0.50000     0.0600000    0.1900000   2.494471e-04  1.671101e-07
     72     74   2   0.50000     0.0600000    0.0600000   6.128906e-05  1.496315e-08
     72     75   2   0.50000     0.0600000    0.0600000   6.128906e-05  1.496315e-08
     73     60   2   0.50000     0.0600000    0.1900000   2.494471e-04  1.671101e-07
     73     74   2   0.50000     0.0600000    0.0600000   6.128906e-05  1.496315e-08
     73     75   2   0.50000     0.0600000    0.0600000   6.128906e-05  1.496315e-08
     58     61   2   0.50000    -0.1200000   -0.3300000   1.026091e-03  1.187829e-06
     58     76   2   0.50000    -0.1200000    0.0300000   1.599888e-04  9.721644e-08
     58     77   2   0.50000    -0.1200000    0.0300000   1.599888e-04  9.721644e-08
     74     61   2   0.50000     0.0600000   -0.3300000   2.521103e-04  1.063590e-07
     74     76   2   0.50000     0.0600000    0.0300000   3.930919e-05  8.704828e-09
     74     77   2   0.50000     0.0600000    0.0300000   3.930919e-05  8.704828e-09
     75     61   2   0.50000     0.0600000   -0.3300000   2.521103e-04  1.063590e-07
     75     76   2   0.50000     0.0600000    0.0300000   3.930919e-05  8.704828e-09
     75     77   2   0.50000     0.0600000    0.0300000   3.930919e-05  8.704828e-09
     59     62   2   0.50000    -0.1200000    0.5100000   1.575021e-03  3.561100e-06
     76     62   2   0.50000     0.0300000    0.5100000   2.482000e-04  1.854991e-07
     77     62   2   0.50000     0.0300000    0.5100000   2.482000e-04  1.854991e-07
     60     63   2   0.50000     0.1900000   -0.4300000   1.095425e-03  1.218041e-06
     60     64   2   0.50000     0.1900000    0.0000000   1.015252e-03  1.866303e-06
     61     39   2   0.50000    -0.3300000   -0.1200000   1.026091e-03  1.187829e-06
     61     65   2   0.50000    -0.3300000   -0.1800000   1.026091e-03  1.187829e-06
     61     66   2   0.50000    -0.3300000   -0.1200000   1.026091e-03  1.187829e-06
     63     39   2   0.50000    -0.4300000   -0.1200000   1.095425e-03  1.218041e-06
     63     65   2   0.50000    -0.4300000   -0.1800000   1.095425e-03  1.218041e-06
     63     66   2   0.50000    -0.4300000   -0.1200000   1.095425e-03  1.218041e-06
     39     78   2   0.50000    -0.1200000    0.0600000   2.494471e-04  1.671101e-07
     39     79   2   0.50000    -0.1200000    0.0600000   2.494471e-04  1.671101e-07
     39     80   2   0.50000    -0.1200000    0.0600000   2.494471e-04  1.671101e-07
     62     78   2   0.50000     0.5100000    0.0600000   3.869820e-04  3.188634e-07
     62     79   2   0.50000     0.5100000    0.0600000   3.869820e-04  3.188634e-07
     62     80   2   0.50000     0.5100000    0.0600000   3.869820e-04  3.188634e-07
     66     78   2   0.50000    -0.1200000    0.0600000   2.494471e-04  1.671101e-07
     66     79   2   0.50000    -0.1200000    0.0600000   2.494471e-04  1.671101e-07
     66     80   2   0.50000    -0.1200000    0.0600000   2.494471e-04  1.671101e-07
     39     81   2   0.50000    -0.1200000    0.0600000   2.494471e-04  1.671101e-07
     39     82   2   0.50000    -0.1200000    0.0600000   2.494471e-04  1.671101e-07
     39     91   2   0.50000    -0.1200000    0.0000000   1.015252e-03  1.866303e-06
     62     81   2   0.50000     0.5100000    0.0600000   3.869820e-04  3.188634e-07
     62     82   2   0.50000     0.5100000    0.0600000   3.869820e-04  3.188634e-07
     62     91   2   0.50000     0.5100000    0.0000000   1.575021e-03  3.561100e-06
     65     81   2   0.50000    -0.1800000    0.0600000   2.494471e-04  1.671101e-07
     65     82   2   0.50000    -0.1800000    0.0600000   2.494471e-04  1.671101e-07
     65     91   2   0.50000    -0.1800000    0.0000000   1.015252e-03  1.866303e-06
     64     89   2   0.50000     0.0000000    0.5100000   1.575021e-03  3.561100e-06
     64     92   2   0.50000     0.0000000   -0.1800000   1.015252e-03  1.866303e-06
     64     93   2   0.50000     0.0000000   -0.1200000   1.015252e-03  1.866303e-06
     81     89   2   0.50000     0.0600000    0.5100000   3.869820e-04  3.188634e-07
     81     92   2   0.50000     0.0600000   -0.1800000   2.494471e-04  1.671101e-07
     81     93   2   0.50000     0.0600000   -0.1200000   2.494471e-04  1.671101e-07
     82     89   2   0.50000     0.0600000    0.5100000   3.869820e-04  3.188634e-07
     82     92   2   0.50000     0.0600000   -0.1800000   2.494471e-04  1.671101e-07
     82     93   2   0.50000     0.0600000   -0.1200000   2.494471e-04  1.671101e-07
     94     85   2   0.50000     0.0600000   -0.1200000   2.494471e-04  1.671101e-07
     94     97   2   0.50000     0.0600000    0.0600000   6.128906e-05  1.496315e-08
     94     98   2   0.50000     0.0600000    0.0600000   6.128906e-05  1.496315e-08
     95     85   2   0.50000     0.0600000   -0.1200000   2.494471e-04  1.671101e-07
     95     97   2   0.50000     0.0600000    0.0600000   6.128906e-05  1.496315e-08
     95     98   2   0.50000     0.0600000    0.0600000   6.128906e-05  1.496315e-08
     96     85   2   0.50000     0.0600000   -0.1200000   2.494471e-04  1.671101e-07
     96     97   2   0.50000     0.0600000    0.0600000   6.128906e-05  1.496315e-08
     96     98   2   0.50000     0.0600000    0.0600000   6.128906e-05  1.496315e-08
     83     86   2   0.50000    -0.1800000   -0.1200000   1.015252e-03  1.866303e-06
     83     99   2   0.50000    -0.1800000    0.0600000   2.494471e-04  1.671101e-07
     83    100   2   0.50000    -0.1800000    0.0600000   2.494471e-04  1.671101e-07
     97     86   2   0.50000     0.0600000   -0.1200000   2.494471e-04  1.671101e-07
     97     99   2   0.50000     0.0600000    0.0600000   6.128906e-05  1.496315e-08
     97    100   2   0.50000     0.0600000    0.0600000   6.128906e-05  1.496315e-08
     98     86   2   0.50000     0.0600000   -0.1200000   2.494471e-04  1.671101e-07
     98     99   2   0.50000     0.0600000    0.0600000   6.128906e-05  1.496315e-08
     98    100   2   0.50000     0.0600000    0.0600000   6.128906e-05  1.496315e-08
     84     87   2   0.50000    -0.1200000    0.1900000   1.015252e-03  1.866303e-06
     84    101   2   0.50000    -0.1200000    0.0600000   2.494471e-04  1.671101e-07
     84    102   2   0.50000    -0.1200000    0.0600000   2.494471e-04  1.671101e-07
     99     87   2   0.50000     0.0600000    0.1900000   2.494471e-04  1.671101e-07
     99    101   2   0.50000     0.0600000    0.0600000   6.128906e-05  1.496315e-08
     99    102   2   0.50000     0.0600000    0.0600000   6.128906e-05  1.496315e-08
    100     87   2   0.50000     0.0600000    0.1900000   2.494471e-04  1.671101e-07
    100    101   2   0.50000     0.0600000    0.0600000   6.128906e-05  1.496315e-08
    100    102   2   0.50000     0.0600000    0.0600000   6.128906e-05  1.496315e-08
     85     88   2   0.50000    -0.1200000   -0.3300000   1.026091e-03  1.187829e-06
     85    103   2   0.50000    -0.1200000    0.0300000   1.599888e-04  9.721644e-08
     85    104   2   0.50000    -0.1200000    0.0300000   1.599888e-04  9.721644e-08
    101     88   2   0.50000     0.0600000   -0.3300000   2.521103e-04  1.063590e-07
    101    103   2   0.50000     0.0600000    0.0300000   3.930919e-05  8.704828e-09
    101    104   2   0.50000     0.0600000    0.0300000   3.930919e-05  8.704828e-09
    102     88   2   0.50000     0.0600000   -0.3300000   2.521103e-04  1.063590e-07
    102    103   2   0.50000     0.0600000    0.0300000   3.930919e-05  8.704828e-09
    102    104   2   0.50000     0.0600000    0.0300000   3.930919e-05  8.704828e-09
     86     89   2   0.50000    -0.1200000    0.5100000   1.575021e-03  3.561100e-06
    103     89   2   0.50000     0.0300000    0.5100000   2.482000e-04  1.854991e-07
    104     89   2   0.50000     0.0300000    0.5100000   2.482000e-04  1.854991e-07
     87     90   2   0.50000     0.1900000   -0.4300000   1.095425e-03  1.218041e-06
     87     91   2   0.50000     0.1900000    0.0000000   1.015252e-03  1.866303e-06
     88     66   2   0.50000    -0.3300000   -0.1200000   1.026091e-03  1.187829e-06
     88     92   2   0.50000    -0.3300000   -0.1800000   1.026091e-03  1.187829e-06
     88     93   2   0.50000    -0.3300000   -0.1200000   1.026091e-03  1.187829e-06
     90     66   2   0.50000    -0.4300000   -0.1200000   1.095425e-03  1.218041e-06
     90     92   2   0.50000    -0.4300000   -0.1800000   1.095425e-03  1.218041e-06
     90     93   2   0.50000    -0.4300000   -0.1200000   1.095425e-03  1.218041e-06
     66    105   2   0.50000    -0.1200000    0.0600000   2.494471e-04  1.671101e-07
     66    106   2   0.50000    -0.1200000    0.0600000   2.494471e-04  1.671101e-07
     66    107   2   0.50000    -0.1200000    0.0600000   2.494471e-04  1.671101e-07
     89    105   2   0.50000     0.5100000    0.0600000   3.869820e-04  3.188634e-07
     89    106   2   0.50000     0.5100000    0.0600000   3.869820e-04  3.188634e-07
     89    107   2   0.50000     0.5100000    0.0600000   3.869820e-04  3.188634e-07
     93    105   2   0.50000    -0.1200000    0.0600000   2.494471e-04  1.671101e-07
     93    106   2   0.50000    -0.1200000    0.0600000   2.494471e-04  1.671101e-07
     93    107   2   0.50000    -0.1200000    0.0600000   2.494471e-04  1.671101e-07
     66    108   2   0.50000    -0.1200000    0.0600000   2.494471e-04  1.671101e-07
     66    109   2   0.50000    -0.1200000    0.0600000   2.494471e-04  1.671101e-07
     66    118   2   0.50000    -0.1200000    0.0000000   1.015252e-03  1.866303e-06
     89    108   2   0.50000     0.5100000    0.0600000   3.869820e-04  3.188634e-07
     89    109   2   0.50000     0.5100000    0.0600000   3.869820e-04  3.188634e-07
     89    118   2   0.50000     0.5100000    0.0000000   1.575021e-03  3.561100e-06
     92    108   2   0.50000    -0.1800000    0.0600000   2.494471e-04  1.671101e-07
     92    109   2   0.50000    -0.1800000    0.0600000   2.494471e-04  1.671101e-07
     92    118   2   0.50000    -0.1800000    0.0000000   1.015252e-03  1.866303e-06
     91    116   2   0.50000     0.0000000    0.5100000   1.575021e-03  3.561100e-06
     91    119   2   0.50000     0.0000000   -0.1800000   1.015252e-03  1.866303e-06
     91    120   2   0.50000     0.0000000   -0.1200000   1.015252e-03  1.866303e-06
    108    116   2   0.50000     0.0600000    0.5100000   3.869820e-04  3.188634e-07
    108    119   2   0.50000     0.0600000   -0.1800000   2.494471e-04  1.671101e-07
    108    120   2   0.50000     0.0600000   -0.1200000   2.494471e-04  1.671101e-07
    109    116   2   0.50000     0.0600000    0.5100000   3.869820e-04  3.188634e-07
    109    119   2   0.50000     0.0600000   -0.1800000   2.494471e-04  1.671101e-07
    109    120   2   0.50000     0.0600000   -0.1200000   2.494471e-04  1.671101e-07
    121    112   2   0.50000     0.0600000   -0.1200000   2.494471e-04  1.671101e-07
    121    124   2   0.50000     0.0600000    0.0600000   6.128906e-05  1.496315e-08
    121    125   2   0.50000     0.0600000    0.0600000   6.128906e-05  1.496315e-08
    122    112   2   0.50000     0.0600000   -0.1200000   2.494471e-04  1.671101e-07
    122    124   2   0.50000     0.0600000    0.0600000   6.128906e-05  1.496315e-08
    122    125   2   0.50000     0.0600000    0.0600000   6.128906e-05  1.496315e-08
    123    112   2   0.50000     0.0600000   -0.1200000   2.494471e-04  1.671101e-07
    123    124   2   0.50000     0.0600000    0.0600000   6.128906e-05  1.496315e-08
    123    125   2   0.50000     0.0600000    0.0600000   6.128906e-05  1.496315e-08
    110    113   2   0.50000    -0.1800000   -0.1200000   1.015252e-03  1.866303e-06
    110    126   2   0.50000    -0.1800000    0.0600000   2.494471e-04  1.671101e-07
    110    127   2   0.50000    -0.1800000    0.0600000   2.494471e-04  1.671101e-07
    124    113   2   0.50000     0.0600000   -0.1200000   2.494471e-04  1.671101e-07
    124    126   2   0.50000     0.0600000    0.0600000   6.128906e-05  1.496315e-08
    124    127   2   0.50000     0.0600000    0.0600000   6.128906e-05  1.496315e-08
    125    113   2   0.50000     0.0600000   -0.1200000   2.494471e-04  1.671101e-07
    125    126   2   0.50000     0.0600000    0.0600000   6.128906e-05  1.496315e-08
    125    127   2   0.50000     0.0600000    0.0600000   6.128906e-05  1.496315e-08
    111    114   2   0.50000    -0.1200000    0.1900000   1.015252e-03  1.866303e-06
    111    128   2   0.50000    -0.1200000    0.0600000   2.494471e-04  1.671101e-07
    111    129   2   0.50000    -0.1200000    0.0600000   2.494471e-04  1.671101e-07
    126    114   2   0.50000     0.0600000    0.1900000   2.494471e-04  1.671101e-07
    126    128   2   0.50000     0.0600000    0.0600000   6.128906e-05  1.496315e-08
    126    129   2   0.50000     0.0600000    0.0600000   6.128906e-05  1.496315e-08
    127    114   2   0.50000     0.0600000    0.1900000   2.494471e-04  1.671101e-07
    127    128   2   0.50000     0.0600000    0.0600000   6.128906e-05  1.496315e-08
    127    129   2   0.50000     0.0600000    0.0600000   6.128906e-05  1.496315e-08
    112    115   2   0.50000    -0.1200000   -0.3300000   1.026091e-03  1.187829e-06
    112    130   2   0.50000    -0.1200000    0.0300000   1.599888e-04  9.721644e-08
    112    131   2   0.50000    -0.1200000    0.0300000   1.599888e-04  9.721644e-08
    128    115   2   0.50000     0.0600000   -0.3300000   2.521103e-04  1.063590e-07
    128    130   2   0.50000     0.0600000    0.0300000   3.930919e-05  8.704828e-09
    128    131   2   0.50000     0.0600000    0.0300000   3.930919e-05  8.704828e-09
    129    115   2   0.50000     0.0600000   -0.3300000   2.521103e-04  1.063590e-07
    129    130   2   0.50000     0.0600000    0.0300000   3.930919e-05  8.704828e-09
    129    131   2   0.50000     0.0600000    0.0300000   3.930919e-05  8.704828e-09
    113    116   2   0.50000    -0.1200000    0.5100000   1.575021e-03  3.561100e-06
    130    116   2   0.50000     0.0300000    0.5100000   2.482000e-04  1.854991e-07
    131    116   2   0.50000     0.0300000    0.5100000   2.482000e-04  1.854991e-07
    114    117   2   0.50000     0.1900000   -0.4300000   1.095425e-03  1.218041e-06
    114    118   2   0.50000     0.1900000    0.0000000   1.015252e-03  1.866303e-06
    115     93   2   0.50000    -0.3300000   -0.1200000   1.026091e-03  1.187829e-06
    115    119   2   0.50000    -0.3300000   -0.1800000   1.026091e-03  1.187829e-06
    115    120   2   0.50000    -0.3300000   -0.1200000   1.026091e-03  1.187829e-06
    117     93   2   0.50000    -0.4300000   -0.1200000   1.095425e-03  1.218041e-06
    117    119   2   0.50000    -0.4300000   -0.1800000   1.095425e-03  1.218041e-06
    117    120   2   0.50000    -0.4300000   -0.1200000   1.095425e-03  1.218041e-06
     93    132   2   0.50000    -0.1200000    0.0600000   2.494471e-04  1.671101e-07
     93    133   2   0.50000    -0.1200000    0.0600000   2.494471e-04  1.671101e-07
     93    134   2   0.50000    -0.1200000    0.0600000   2.494471e-04  1.671101e-07
    116    132   2   0.50000     0.5100000    0.0600000   3.869820e-04  3.188634e-07
    116    133   2   0.50000     0.5100000    0.0600000   3.869820e-04  3.188634e-07
    116    134   2   0.50000     0.5100000    0.0600000   3.869820e-04  3.188634e-07
    120    132   2   0.50000    -0.1200000    0.0600000   2.494471e-04  1.671101e-07
    120    133   2   0.50000    -0.1200000    0.0600000   2.494471e-04  1.671101e-07
    120    134   2   0.50000    -0.1200000    0.0600000   2.494471e-04  1.671101e-07
     93    135   2   0.50000    -0.1200000    0.0600000   2.494471e-04  1.671101e-07
     93    136   2   0.50000    -0.1200000    0.0600000   2.494471e-04  1.671101e-07
     93    145   2   0.50000    -0.1200000    0.0000000   1.015252e-03  1.866303e-06
    116    135   2   0.50000     0.5100000    0.0600000   3.869820e-04  3.188634e-07
    116    136   2   0.50000     0.5100000    0.0600000   3.869820e-04  3.188634e-07
    116    145   2   0.50000     0.5100000    0.0000000   1.575021e-03  3.561100e-06
    119    135   2   0.50000    -0.1800000    0.0600000   2.494471e-04  1.671101e-07
    119    136   2   0.50000    -0.1800000    0.0600000   2.494471e-04  1.671101e-07
    119    145   2   0.50000    -0.1800000    0.0000000   1.015252e-03  1.866303e-06
    118    143   2   0.50000     0.0000000    0.5100000   1.575021e-03  3.561100e-06
    118    146   2   0.50000     0.0000000   -0.1800000   1.015252e-03  1.866303e-06
    118    147   2   0.50000     0.0000000   -0.1200000   1.015252e-03  1.866303e-06
    135    143   2   0.50000     0.0600000    0.5100000   3.869820e-04  3.188634e-07
    135    146   2   0.50000     0.0600000   -0.1800000   2.494471e-04  1.671101e-07
    135    147   2   0.50000     0.0600000   -0.1200000   2.494471e-04  1.671101e-07
    136    143   2   0.50000     0.0600000    0.5100000   3.869820e-04  3.188634e-07
    136    146   2   0.50000     0.0600000   -0.1800000   2.494471e-04  1.671101e-07
    136    147   2   0.50000     0.0600000   -0.1200000   2.494471e-04  1.671101e-07
    148    139   2   0.50000     0.0600000   -0.1200000   2.494471e-04  1.671101e-07
    148    151   2   0.50000     0.0600000    0.0600000   6.128906e-05  1.496315e-08
    148    152   2   0.50000     0.0600000    0.0600000   6.128906e-05  1.496315e-08
    149    139   2   0.50000     0.0600000   -0.1200000   2.494471e-04  1.671101e-07
    149    151   2   0.50000     0.0600000    0.0600000   6.128906e-05  1.496315e-08
    149    152   2   0.50000     0.0600000    0.0600000   6.128906e-05  1.496315e-08
    150    139   2   0.50000     0.0600000   -0.1200000   2.494471e-04  1.671101e-07
    150    151   2   0.50000     0.0600000    0.0600000   6.128906e-05  1.496315e-08
    150    152   2   0.50000     0.0600000    0.0600000   6.128906e-05  1.496315e-08
    137    140   2   0.50000    -0.1800000   -0.1200000   1.015252e-03  1.866303e-06
    137    153   2   0.50000    -0.1800000    0.0600000   2.494471e-04  1.671101e-07
    137    154   2   0.50000    -0.1800000    0.0600000   2.494471e-04  1.671101e-07
    151    140   2   0.50000     0.0600000   -0.1200000   2.494471e-04  1.671101e-07
    151    153   2   0.50000     0.0600000    0.0600000   6.128906e-05  1.496315e-08
    151    154   2   0.50000     0.0600000    0.0600000   6.128906e-05  1.496315e-08
    152    140   2   0.50000     0.0600000   -0.1200000   2.494471e-04  1.671101e-07
    152    153   2   0.50000     0.0600000    0.0600000   6.128906e-05  1.496315e-08
    152    154   2   0.50000     0.0600000    0.0600000   6.128906e-05  1.496315e-08
    138    141   2   0.50000    -0.1200000    0.1900000   1.015252e-03  1.866303e-06
    138    155   2   0.50000    -0.1200000    0.0600000   2.494471e-04  1.671101e-07
    138    156   2   0.50000    -0.1200000    0.0600000   2.494471e-04  1.671101e-07
    153    141   2   0.50000     0.0600000    0.1900000   2.494471e-04  1.671101e-07
    153    155   2   0.50000     0.0600000    0.0600000   6.128906e-05  1.496315e-08
    153    156   2   0.50000     0.0600000    0.0600000   6.128906e-05  1.496315e-08
    154    141   2   0.50000     0.0600000    0.1900000   2.494471e-04  1.671101e-07
    154    155   2   0.50000     0.0600000    0.0600000   6.128906e-05  1.496315e-08
    154    156   2   0.50000     0.0600000    0.0600000   6.128906e-05  1.496315e-08
    139    142   2   0.50000    -0.1200000   -0.3300000   1.026091e-03  1.187829e-06
    139    157   2   0.50000    -0.1200000    0.0300000   1.599888e-04  9.721644e-08
    139    158   2   0.50000    -0.1200000    0.0300000   1.599888e-04  9.721644e-08
    155    142   2   0.50000     0.0600000   -0.3300000   2.521103e-04  1.063590e-07
    155    157   2   0.50000     0.0600000    0.0300000   3.930919e-05  8.704828e-09
    155    158   2   0.50000     0.0600000    0.0300000   3.930919e-05  8.704828e-09
    156    142   2   0.50000     0.0600000   -0.3300000   2.521103e-04  1.063590e-07
    156    157   2   0.50000     0.0600000    0.0300000   3.930919e-05  8.704828e-09
    156    158   2   0.50000     0.0600000    0.0300000   3.930919e-05  8.704828e-09
    140    143   2   0.50000    -0.1200000    0.5100000   1.575021e-03  3.561100e-06
    157    143   2   0.50000     0.0300000    0.5100000   2.482000e-04  1.854991e-07
    158    143   2   0.50000     0.0300000    0.5100000   2.482000e-04  1.854991e-07
    141    144   2   0.50000     0.1900000   -0.4300000   1.095425e-03  1.218041e-06
    141    145   2   0.50000     0.1900000    0.0000000   1.015252e-03  1.866303e-06
    142    120   2   0.50000    -0.3300000   -0.1200000   1.026091e-03  1.187829e-06
    142    146   2   0.50000    -0.3300000   -0.1800000   1.026091e-03  1.187829e-06
    142    147   2   0.50000    -0.3300000   -0.1200000   1.026091e-03  1.187829e-06
    144    120   2   0.50000    -0.4300000   -0.1200000   1.095425e-03  1.218041e-06
    144    146   2   0.50000    -0.4300000   -0.1800000   1.095425e-03  1.218041e-06
    144    147   2   0.50000    -0.4300000   -0.1200000   1.095425e-03  1.218041e-06
    120    159   2   0.50000    -0.1200000    0.0600000   2.494471e-04  1.671101e-07
    120    160   2   0.50000    -0.1200000    0.0600000   2.494471e-04  1.671101e-07
    120    161   2   0.50000    -0.1200000    0.0600000   2.494471e-04  1.671101e-07
    143    159   2   0.50000     0.5100000    0.0600000   3.869820e-04  3.188634e-07
    143    160   2   0.50000     0.5100000    0.0600000   3.869820e-04  3.188634e-07
    143    161   2   0.50000     0.5100000    0.0600000   3.869820e-04  3.188634e-07
    147    159   2   0.50000    -0.1200000    0.0600000   2.494471e-04  1.671101e-07
    147    160   2   0.50000    -0.1200000    0.0600000   2.494471e-04  1.671101e-07
    147    161   2   0.50000    -0.1200000    0.0600000   2.494471e-04  1.671101e-07
    120    162   2   0.50000    -0.1200000    0.0600000   2.494471e-04  1.671101e-07
    120    163   2   0.50000    -0.1200000    0.0600000   2.494471e-04  1.671101e-07
    120    172   2   0.50000    -0.1200000    0.0000000   1.015252e-03  1.866303e-06
    143    162   2   0.50000     0.5100000    0.0600000   3.869820e-04  3.188634e-07
    143    163   2   0.50000     0.5100000    0.0600000   3.869820e-04  3.188634e-07
    143    172   2   0.50000     0.5100000    0.0000000   1.575021e-03  3.561100e-06
    146    162   2   0.50000    -0.1800000    0.0600000   2.494471e-04  1.671101e-07
    146    163   2   0.50000    -0.1800000    0.0600000   2.494471e-04  1.671101e-07
    146    172   2   0.50000    -0.1800000    0.0000000   1.015252e-03  1.866303e-06
    145    170   2   0.50000     0.0000000    0.5100000   1.575021e-03  3.561100e-06
    145    173   2   0.50000     0.0000000   -0.1800000   1.015252e-03  1.866303e-06
    145    174   2   0.50000     0.0000000   -0.1200000   1.015252e-03  1.866303e-06
    162    170   2   0.50000     0.0600000    0.5100000   3.869820e-04  3.188634e-07
    162    173   2   0.50000     0.0600000   -0.1800000   2.494471e-04  1.671101e-07
    162    174   2   0.50000     0.0600000   -0.1200000   2.494471e-04  1.671101e-07
    163    170   2   0.50000     0.0600000    0.5100000   3.869820e-04  3.188634e-07
    163    173   2   0.50000     0.0600000   -0.1800000   2.494471e-04  1.671101e-07
    163    174   2   0.50000     0.0600000   -0.1200000   2.494471e-04  1.671101e-07
    175    166   2   0.50000     0.0600000   -0.1200000   2.494471e-04  1.671101e-07
    175    178   2   0.50000     0.0600000    0.0600000   6.128906e-05  1.496315e-08
    175    179   2   0.50000     0.0600000    0.0600000   6.128906e-05  1.496315e-08
    176    166   2   0.50000     0.0600000   -0.1200000   2.494471e-04  1.671101e-07
    176    178   2   0.50000     0.0600000    0.0600000   6.128906e-05  1.496315e-08
    176    179   2   0.50000     0.0600000    0.0600000   6.128906e-05  1.496315e-08
    177    166   2   0.50000     0.0600000   -0.1200000   2.494471e-04  1.671101e-07
    177    178   2   0.50000     0.0600000    0.0600000   6.128906e-05  1.496315e-08
    177    179   2   0.50000     0.0600000    0.0600000   6.128906e-05  1.496315e-08
    164    167   2   0.50000    -0.1800000   -0.1200000   1.015252e-03  1.866303e-06
    164    180   2   0.50000    -0.1800000    0.0600000   2.494471e-04  1.671101e-07
    164    181   2   0.50000    -0.1800000    0.0600000   2.494471e-04  1.671101e-07
    178    167   2   0.50000     0.0600000   -0.1200000   2.494471e-04  1.671101e-07
    178    180   2   0.50000     0.0600000    0.0600000   6.128906e-05  1.496315e-08
    178    181   2   0.50000     0.0600000    0.0600000   6.128906e-05  1.496315e-08
    179    167   2   0.50000     0.0600000   -0.1200000   2.494471e-04  1.671101e-07
    179    180   2   0.50000     0.0600000    0.0600000   6.128906e-05  1.496315e-08
    179    181   2   0.50000     0.0600000    0.0600000   6.128906e-05  1.496315e-08
    165    168   2   0.50000    -0.1200000    0.1900000   1.015252e-03  1.866303e-06
    165    182   2   0.50000    -0.1200000    0.0600000   2.494471e-04  1.671101e-07
    165    183   2   0.50000    -0.1200000    0.0600000   2.494471e-04  1.671101e-07
    180    168   2   0.50000     0.0600000    0.1900000   2.494471e-04  1.671101e-07
    180    182   2   0.50000     0.0600000    0.0600000   6.128906e-05  1.496315e-08
    180    183   2   0.50000     0.0600000    0.0600000   6.128906e-05  1.496315e-08
    181    168   2   0.50000     0.0600000    0.1900000   2.494471e-04  1.671101e-07
    181    182   2   0.50000     0.0600000    0.0600000   6.128906e-05  1.496315e-08
    181    183   2   0.50000     0.0600000    0.0600000   6.128906e-05  1.496315e-08
    166    169   2   0.50000    -0.1200000   -0.3300000   1.026091e-03  1.187829e-06
    166    184   2   0.50000    -0.1200000    0.0300000   1.599888e-04  9.721644e-08
    166    185   2   0.50000    -0.1200000    0.0300000   1.599888e-04  9.721644e-08
    182    169   2   0.50000     0.0600000   -0.3300000   2.521103e-04  1.063590e-07
    182    184   2   0.50000     0.0600000    0.0300000   3.930919e-05  8.704828e-09
    182    185   2   0.50000     0.0600000    0.0300000   3.930919e-05  8.704828e-09
    183    169   2   0.50000     0.0600000   -0.3300000   2.521103e-04  1.063590e-07
    183    184   2   0.50000     0.0600000    0.0300000   3.930919e-05  8.704828e-09
    183    185   2   0.50000     0.0600000    0.0300000   3.930919e-05  8.704828e-09
    167    170   2   0.50000    -0.1200000    0.5100000   1.575021e-03  3.561100e-06
    184    170   2   0.50000     0.0300000    0.5100000   2.482000e-04  1.854991e-07
    185    170   2   0.50000     0.0300000    0.5100000   2.482000e-04  1.854991e-07
    168    171   2   0.50000     0.1900000   -0.4300000   1.095425e-03  1.218041e-06
    168    172   2   0.50000     0.1900000    0.0000000   1.015252e-03  1.866303e-06
    169    147   2   0.50000    -0.3300000   -0.1200000   1.026091e-03  1.187829e-06
    169    173   2   0.50000    -0.3300000   -0.1800000   1.026091e-03  1.187829e-06
    169    174   2   0.50000    -0.3300000   -0.1200000   1.026091e-03  1.187829e-06
    171    147   2   0.50000    -0.4300000   -0.1200000   1.095425e-03  1.218041e-06
    171    173   2   0.50000    -0.4300000   -0.1800000   1.095425e-03  1.218041e-06
    171    174   2   0.50000    -0.4300000   -0.1200000   1.095425e-03  1.218041e-06
    147    186   2   0.50000    -0.1200000    0.0600000   2.494471e-04  1.671101e-07
    147    187   2   0.50000    -0.1200000    0.0600000   2.494471e-04  1.671101e-07
    147    188   2   0.50000    -0.1200000    0.0600000   2.494471e-04  1.671101e-07
    170    186   2   0.50000     0.5100000    0.0600000   3.869820e-04  3.188634e-07
    170    187   2   0.50000     0.5100000    0.0600000   3.869820e-04  3.188634e-07
    170    188   2   0.50000     0.5100000    0.0600000   3.869820e-04  3.188634e-07
    174    186   2   0.50000    -0.1200000    0.0600000   2.494471e-04  1.671101e-07
    174    187   2   0.50000    -0.1200000    0.0600000   2.494471e-04  1.671101e-07
    174    188   2   0.50000    -0.1200000    0.0600000   2.494471e-04  1.671101e-07
    147    189   2   0.50000    -0.1200000    0.0600000   2.494471e-04  1.671101e-07
    147    190   2   0.50000    -0.1200000    0.0600000   2.494471e-04  1.671101e-07
    147    199   2   0.50000    -0.1200000    0.0000000   1.015252e-03  1.866303e-06
    170    189   2   0.50000     0.5100000    0.0600000   3.869820e-04  3.188634e-07
    170    190   2   0.50000     0.5100000    0.0600000   3.869820e-04  3.188634e-07
    170    199   2   0.50000     0.5100000    0.0000000   1.575021e-03  3.561100e-06
    173    189   2   0.50000    -0.1800000    0.0600000   2.494471e-04  1.671101e-07
    173    190   2   0.50000    -0.1800000    0.0600000   2.494471e-04  1.671101e-07
    173    199   2   0.50000    -0.1800000    0.0000000   1.015252e-03  1.866303e-06
    172    197   2   0.50000     0.0000000    0.5100000   1.575021e-03  3.561100e-06
    172    200   2   0.50000     0.0000000   -0.1800000   1.015252e-03  1.866303e-06
    172    201   2   0.50000     0.0000000   -0.1200000   1.015252e-03  1.866303e-06
    189    197   2   0.50000     0.0600000    0.5100000   3.869820e-04  3.188634e-07
    189    200   2   0.50000     0.0600000   -0.1800000   2.494471e-04  1.671101e-07
    189    201   2   0.50000     0.0600000   -0.1200000   2.494471e-04  1.671101e-07
    190    197   2   0.50000     0.0600000    0.5100000   3.869820e-04  3.188634e-07
    190    200   2   0.50000     0.0600000   -0.1800000   2.494471e-04  1.671101e-07
    190    201   2   0.50000     0.0600000   -0.1200000   2.494471e-04  1.671101e-07
    202    193   2   0.50000     0.0600000   -0.1200000   2.494471e-04  1.671101e-07
    202    205   2   0.50000     0.0600000    0.0600000   6.128906e-05  1.496315e-08
    202    206   2   0.50000     0.0600000    0.0600000   6.128906e-05  1.496315e-08
    203    193   2   0.50000     0.0600000   -0.1200000   2.494471e-04  1.671101e-07
    203    205   2   0.50000     0.0600000    0.0600000   6.128906e-05  1.496315e-08
    203    206   2   0.50000     0.0600000    0.0600000   6.128906e-05  1.496315e-08
    204    193   2   0.50000     0.0600000   -0.1200000   2.494471e-04  1.671101e-07
    204    205   2   0.50000     0.0600000    0.0600000   6.128906e-05  1.496315e-08
    204    206   2   0.50000     0.0600000    0.0600000   6.128906e-05  1.496315e-08
    191    194   2   0.50000    -0.1800000   -0.1200000   1.015252e-03  1.866303e-06
    191    207   2   0.50000    -0.1800000    0.0600000   2.494471e-04  1.671101e-07
    191    208   2   0.50000    -0.1800000    0.0600000   2.494471e-04  1.671101e-07
    205    194   2   0.50000     0.0600000   -0.1200000   2.494471e-04  1.671101e-07
    205    207   2   0.50000     0.0600000    0.0600000   6.128906e-05  1.496315e-08
    205    208   2   0.50000     0.0600000    0.0600000   6.128906e-05  1.496315e-08
    206    194   2   0.50000     0.0600000   -0.1200000   2.494471e-04  1.671101e-07
    206    207   2   0.50000     0.0600000    0.0600000   6.128906e-05  1.496315e-08
    206    208   2   0.50000     0.0600000    0.0600000   6.128906e-05  1.496315e-08
    192    195   2   0.50000    -0.1200000    0.1900000   1.015252e-03  1.866303e-06
    192    209   2   0.50000    -0.1200000    0.0600000   2.494471e-04  1.671101e-07
    192    210   2   0.50000    -0.1200000    0.0600000   2.494471e-04  1.671101e-07
    207    195   2   0.50000     0.0600000    0.1900000   2.494471e-04  1.671101e-07
    207    209   2   0.50000     0.0600000    0.0600000   6.128906e-05  1.496315e-08
    207    210   2   0.50000     0.0600000    0.0600000   6.128906e-05  1.496315e-08
    208    195   2   0.50000     0.0600000    0.1900000   2.494471e-04  1.671101e-07
    208    209   2   0.50000     0.0600000    0.0600000   6.128906e-05  1.496315e-08
    208    210   2   0.50000     0.0600000    0.0600000   6.128906e-05  1.496315e-08
    193    196   2   0.50000    -0.1200000   -0.3300000   1.026091e-03  1.187829e-06
    193    211   2   0.50000    -0.1200000    0.0300000   1.599888e-04  9.721644e-08
    193    212   2   0.50000    -0.1200000    0.0300000   1.599888e-04  9.721644e-08
    209    196   2   0.50000     0.0600000   -0.3300000   2.521103e-04  1.063590e-07
    209    211   2   0.50000     0.0600000    0.0300000   3.930919e-05  8.704828e-09
    209    212   2   0.50000     0.0600000    0.0300000   3.930919e-05  8.704828e-09
    210    196   2   0.50000     0.0600000   -0.3300000   2.521103e-04  1.063590e-07
    210    211   2   0.50000     0.0600000    0.0300000   3.930919e-05  8.704828e-09
    210    212   2   0.50000     0.0600000    0.0300000   3.930919e-05  8.704828e-09
    194    197   2   0.50000    -0.1200000    0.5100000   1.575021e-03  3.561100e-06
    211    197   2   0.50000     0.0300000    0.5100000   2.482000e-04  1.854991e-07
    212    197   2   0.50000     0.0300000    0.5100000   2.482000e-04  1.854991e-07
    195    198   2   0.50000     0.1900000   -0.4300000   1.095425e-03  1.218041e-06
    195    199   2   0.50000     0.1900000    0.0000000   1.015252e-03  1.866303e-06
    196    174   2   0.50000    -0.3300000   -0.1200000   1.026091e-03  1.187829e-06
    196    200   2   0.50000    -0.3300000   -0.1800000   1.026091e-03  1.187829e-06
    196    201   2   0.50000    -0.3300000   -0.1200000   1.026091e-03  1.187829e-06
    198    174   2   0.50000    -0.4300000   -0.1200000   1.095425e-03  1.218041e-06
    198    200   2   0.50000    -0.4300000   -0.1800000   1.095425e-03  1.218041e-06
    198    201   2   0.50000    -0.4300000   -0.1200000   1.095425e-03  1.218041e-06
    174    213   2   0.50000    -0.1200000    0.0600000   2.494471e-04  1.671101e-07
    174    214   2   0.50000    -0.1200000    0.0600000   2.494471e-04  1.671101e-07
    174    215   2   0.50000    -0.1200000    0.0600000   2.494471e-04  1.671101e-07
    197    213   2   0.50000     0.5100000    0.0600000   3.869820e-04  3.188634e-07
    197    214   2   0.50000     0.5100000    0.0600000   3.869820e-04  3.188634e-07
    197    215   2   0.50000     0.5100000    0.0600000   3.869820e-04  3.188634e-07
    201    213   2   0.50000    -0.1200000    0.0600000   2.494471e-04  1.671101e-07
    201    214   2   0.50000    -0.1200000    0.0600000   2.494471e-04  1.671101e-07
    201    215   2   0.50000    -0.1200000    0.0600000   2.494471e-04  1.671101e-07
    174    216   2   0.50000    -0.1200000    0.0600000   2.494471e-04  1.671101e-07
    174    217   2   0.50000    -0.1200000    0.0600000   2.494471e-04  1.671101e-07
    174    226   2   0.50000    -0.1200000    0.0000000   1.015252e-03  1.866303e-06
    197    216   2   0.50000     0.5100000    0.0600000   3.869820e-04  3.188634e-07
    197    217   2   0.50000     0.5100000    0.0600000   3.869820e-04  3.188634e-07
    197    226   2   0.50000     0.5100000    0.0000000   1.575021e-03  3.561100e-06
    200    216   2   0.50000    -0.1800000    0.0600000   2.494471e-04  1.671101e-07
    200    217   2   0.50000    -0.1800000    0.0600000   2.494471e-04  1.671101e-07
    200    226   2   0.50000    -0.1800000    0.0000000   1.015252e-03  1.866303e-06
    199    224   2   0.50000     0.0000000    0.5100000   1.575021e-03  3.561100e-06
    199    227   2   0.50000     0.0000000   -0.1800000   1.015252e-03  1.866303e-06
    199    228   2   0.50000     0.0000000   -0.1200000   1.015252e-03  1.866303e-06
    216    224   2   0.50000     0.0600000    0.5100000   3.869820e-04  3.188634e-07
    216    227   2   0.50000     0.0600000   -0.1800000   2.494471e-04  1.671101e-07
    216    228   2   0.50000     0.0600000   -0.1200000   2.494471e-04  1.671101e-07
    217    224   2   0.50000     0.0600000    0.5100000   3.869820e-04  3.188634e-07
    217    227   2   0.50000     0.0600000   -0.1800000   2.494471e-04  1.671101e-07
    217    228   2   0.50000     0.0600000   -0.1200000   2.494471e-04  1.671101e-07
    229    220   2   0.50000     0.0600000   -0.1200000   2.494471e-04  1.671101e-07
    229    232   2   0.50000     0.0600000    0.0600000   6.128906e-05  1.496315e-08
    229    233   2   0.50000     0.0600000    0.0600000   6.128906e-05  1.496315e-08
    230    220   2   0.50000     0.0600000   -0.1200000   2.494471e-04  1.671101e-07
    230    232   2   0.50000     0.0600000    0.0600000   6.128906e-05  1.496315e-08
    230    233   2   0.50000     0.0600000    0.0600000   6.128906e-05  1.496315e-08
    231    220   2   0.50000     0.0600000   -0.1200000   2.494471e-04  1.671101e-07
    231    232   2   0.50000     0.0600000    0.0600000   6.128906e-05  1.496315e-08
    231    233   2   0.50000     0.0600000    0.0600000   6.128906e-05  1.496315e-08
    218    221   2   0.50000    -0.1800000   -0.1200000   1.015252e-03  1.866303e-06
    218    234   2   0.50000    -0.1800000    0.0600000   2.494471e-04  1.671101e-07
    218    235   2   0.50000    -0.1800000    0.0600000   2.494471e-04  1.671101e-07
    232    221   2   0.50000     0.0600000   -0.1200000   2.494471e-04  1.671101e-07
    232    234   2   0.50000     0.0600000    0.0600000   6.128906e-05  1.496315e-08
    232    235   2   0.50000     0.0600000    0.0600000   6.128906e-05  1.496315e-08
    233    221   2   0.50000     0.0600000   -0.1200000   2.494471e-04  1.671101e-07
    233    234   2   0.50000     0.0600000    0.0600000   6.128906e-05  1.496315e-08
    233    235   2   0.50000     0.0600000    0.0600000   6.128906e-05  1.496315e-08
    219    222   2   0.50000    -0.1200000    0.1900000   1.015252e-03  1.866303e-06
    219    236   2   0.50000    -0.1200000    0.0600000   2.494471e-04  1.671101e-07
    219    237   2   0.50000    -0.1200000    0.0600000   2.494471e-04  1.671101e-07
    234    222   2   0.50000     0.0600000    0.1900000   2.494471e-04  1.671101e-07
    234    236   2   0.50000     0.0600000    0.0600000   6.128906e-05  1.496315e-08
    234    237   2   0.50000     0.0600000    0.0600000   6.128906e-05  1.496315e-08
    235    222   2   0.50000     0.0600000    0.1900000   2.494471e-04  1.671101e-07
    235    236   2   0.50000     0.0600000    0.0600000   6.128906e-05  1.496315e-08
    235    237   2   0.50000     0.0600000    0.0600000   6.128906e-05  1.496315e-08
    220    223   2   0.50000    -0.1200000   -0.3300000   1.026091e-03  1.187829e-06
    220    238   2   0.50000    -0.1200000    0.0300000   1.599888e-04  9.721644e-08
    220    239   2   0.50000    -0.1200000    0.0300000   1.599888e-04  9.721644e-08
    236    223   2   0.50000     0.0600000   -0.3300000   2.521103e-04  1.063590e-07
    236    238   2   0.50000     0.0600000    0.0300000   3.930919e-05  8.704828e-09
    236    239   2   0.50000     0.0600000    0.0300000   3.930919e-05  8.704828e-09
    237    223   2   0.50000     0.0600000   -0.3300000   2.521103e-04  1.063590e-07
    237    238   2   0.50000     0.0600000    0.0300000   3.930919e-05  8.704828e-09
    237    239   2   0.50000     0.0600000    0.0300000   3.930919e-05  8.704828e-09
    221    224   2   0.50000    -0.1200000    0.5100000   1.575021e-03  3.561100e-06
    238    224   2   0.50000     0.0300000    0.5100000   2.482000e-04  1.854991e-07
    239    224   2   0.50000     0.0300000    0.5100000   2.482000e-04  1.854991e-07
    222    225   2   0.50000     0.1900000   -0.4300000   1.095425e-03  1.218041e-06
    222    226   2   0.50000     0.1900000    0.0000000   1.015252e-03  1.866303e-06
    223    201   2   0.50000    -0.3300000   -0.1200000   1.026091e-03  1.187829e-06
    223    227   2   0.50000    -0.3300000   -0.1800000   1.026091e-03  1.187829e-06
    223    228   2   0.50000    -0.3300000   -0.1200000   1.026091e-03  1.187829e-06
    225    201   2   0.50000    -0.4300000   -0.1200000   1.095425e-03  1.218041e-06
    225    227   2   0.50000    -0.4300000   -0.1800000   1.095425e-03  1.218041e-06
    225    228   2   0.50000    -0.4300000   -0.1200000   1.095425e-03  1.218041e-06
    201    240   2   0.50000    -0.1200000    0.0600000   2.494471e-04  1.671101e-07
    201    241   2   0.50000    -0.1200000    0.0600000   2.494471e-04  1.671101e-07
    201    242   2   0.50000    -0.1200000    0.0600000   2.494471e-04  1.671101e-07
    224    240   2   0.50000     0.5100000    0.0600000   3.869820e-04  3.188634e-07
    224    241   2   0.50000     0.5100000    0.0600000   3.869820e-04  3.188634e-07
    224    242   2   0.50000     0.5100000    0.0600000   3.869820e-04  3.188634e-07
    228    240   2   0.50000    -0.1200000    0.0600000   2.494471e-04  1.671101e-07
    228    241   2   0.50000    -0.1200000    0.0600000   2.494471e-04  1.671101e-07
    228    242   2   0.50000    -0.1200000    0.0600000   2.494471e-04  1.671101e-07
    201    243   2   0.50000    -0.1200000    0.0600000   2.494471e-04  1.671101e-07
    201    244   2   0.50000    -0.1200000    0.0600000   2.494471e-04  1.671101e-07
    201    253   2   0.50000    -0.1200000    0.0000000   1.015252e-03  1.866303e-06
    224    243   2   0.50000     0.5100000    0.0600000   3.869820e-04  3.188634e-07
    224    244   2   0.50000     0.5100000    0.0600000   3.869820e-04  3.188634e-07
    224    253   2   0.50000     0.5100000    0.0000000   1.575021e-03  3.561100e-06
    227    243   2   0.50000    -0.1800000    0.0600000   2.494471e-04  1.671101e-07
    227    244   2   0.50000    -0.1800000    0.0600000   2.494471e-04  1.671101e-07
    227    253   2   0.50000    -0.1800000    0.0000000   1.015252e-03  1.866303e-06
    226    251   2   0.50000     0.0000000    0.5100000   1.575021e-03  3.561100e-06
    226    254   2   0.50000     0.0000000   -0.1800000   1.015252e-03  1.866303e-06
    226    255   2   0.50000     0.0000000   -0.1200000   1.015252e-03  1.866303e-06
    243    251   2   0.50000     0.0600000    0.5100000   3.869820e-04  3.188634e-07
    243    254   2   0.50000     0.0600000   -0.1800000   2.494471e-04  1.671101e-07
    243    255   2   0.50000     0.0600000   -0.1200000   2.494471e-04  1.671101e-07
    244    251   2   0.50000     0.0600000    0.5100000   3.869820e-04  3.188634e-07
    244    254   2   0.50000     0.0600000   -0.1800000   2.494471e-04  1.671101e-07
    244    255   2   0.50000     0.0600000   -0.1200000   2.494471e-04  1.671101e-07
    256    247   2   0.50000     0.0600000   -0.1200000   2.494471e-04  1.671101e-07
    256    259   2   0.50000     0.0600000    0.0600000   6.128906e-05  1.496315e-08
    256    260   2   0.50000     0.0600000    0.0600000   6.128906e-05  1.496315e-08
    257    247   2   0.50000     0.0600000   -0.1200000   2.494471e-04  1.671101e-07
    257    259   2   0.50000     0.0600000    0.0600000   6.128906e-05  1.496315e-08
    257    260   2   0.50000     0.0600000    0.0600000   6.128906e-05  1.496315e-08
    258    247   2   0.50000     0.0600000   -0.1200000   2.494471e-04  1.671101e-07
    258    259   2   0.50000     0.0600000    0.0600000   6.128906e-05  1.496315e-08
    258    260   2   0.50000     0.0600000    0.0600000   6.128906e-05  1.496315e-08
    245    248   2   0.50000    -0.1800000   -0.1200000   1.015252e-03  1.866303e-06
    245    261   2   0.50000    -0.1800000    0.0600000   2.494471e-04  1.671101e-07
    245    262   2   0.50000    -0.1800000    0.0600000   2.494471e-04  1.671101e-07
    259    248   2   0.50000     0.0600000   -0.1200000   2.494471e-04  1.671101e-07
    259    261   2   0.50000     0.0600000    0.0600000   6.128906e-05  1.496315e-08
    259    262   2   0.50000     0.0600000    0.0600000   6.128906e-05  1.496315e-08
    260    248   2   0.50000     0.0600000   -0.1200000   2.494471e-04  1.671101e-07
    260    261   2   0.50000     0.0600000    0.0600000   6.128906e-05  1.496315e-08
    260    262   2   0.50000     0.0600000    0.0600000   6.128906e-05  1.496315e-08
    246    249   2   0.50000    -0.1200000    0.1900000   1.015252e-03  1.866303e-06
    246    263   2   0.50000    -0.1200000    0.0600000   2.494471e-04  1.671101e-07
    246    264   2   0.50000    -0.1200000    0.0600000   2.494471e-04  1.671101e-07
    261    249   2   0.50000     0.0600000    0.1900000   2.494471e-04  1.671101e-07
    261    263   2   0.50000     0.0600000    0.0600000   6.128906e-05  1.496315e-08
    261    264   2   0.50000     0.0600000    0.0600000   6.128906e-05  1.496315e-08
    262    249   2   0.50000     0.0600000    0.1900000   2.494471e-04  1.671101e-07
    262    263   2   0.50000     0.0600000    0.0600000   6.128906e-05  1.496315e-08
    262    264   2   0.50000     0.0600000    0.0600000   6.128906e-05  1.496315e-08
    247    250   2   0.50000    -0.1200000   -0.3300000   1.026091e-03  1.187829e-06
    247    265   2   0.50000    -0.1200000    0.0300000   1.599888e-04  9.721644e-08
    247    266   2   0.50000    -0.1200000    0.0300000   1.599888e-04  9.721644e-08
    263    250   2   0.50000     0.0600000   -0.3300000   2.521103e-04  1.063590e-07
    263    265   2   0.50000     0.0600000    0.0300000   3.930919e-05  8.704828e-09
    263    266   2   0.50000     0.0600000    0.0300000   3.930919e-05  8.704828e-09
    264    250   2   0.50000     0.0600000   -0.3300000   2.521103e-04  1.063590e-07
    264    265   2   0.50000     0.0600000    0.0300000   3.930919e-05  8.704828e-09
    264    266   2   0.50000     0.0600000    0.0300000   3.930919e-05  8.704828e-09
    248    251   2   0.50000    -0.1200000    0.5100000   1.575021e-03  3.561100e-06
    265    251   2   0.50000     0.0300000    0.5100000   2.482000e-04  1.854991e-07
    266    251   2   0.50000     0.0300000    0.5100000   2.482000e-04  1.854991e-07
    249    252   2   0.50000     0.1900000   -0.4300000   1.095425e-03  1.218041e-06
    249    253   2   0.50000     0.1900000    0.0000000   1.015252e-03  1.866303e-06
    250    228   2   0.50000    -0.3300000   -0.1200000   1.026091e-03  1.187829e-06
    250    254   2   0.50000    -0.3300000   -0.1800000   1.026091e-03  1.187829e-06
    250    255   2   0.50000    -0.3300000   -0.1200000   1.026091e-03  1.187829e-06
    252    228   2   0.50000    -0.4300000   -0.1200000   1.095425e-03  1.218041e-06
    252    254   2   0.50000    -0.4300000   -0.1800000   1.095425e-03  1.218041e-06
    252    255   2   0.50000    -0.4300000   -0.1200000   1.095425e-03  1.218041e-06
    228    267   2   0.50000    -0.1200000    0.0600000   2.494471e-04  1.671101e-07
    228    268   2   0.50000    -0.1200000    0.0600000   2.494471e-04  1.671101e-07
    228    269   2   0.50000    -0.1200000    0.0600000   2.494471e-04  1.671101e-07
    251    267   2   0.50000     0.5100000    0.0600000   3.869820e-04  3.188634e-07
    251    268   2   0.50000     0.5100000    0.0600000   3.869820e-04  3.188634e-07
    251    269   2   0.50000     0.5100000    0.0600000   3.869820e-04  3.188634e-07
    255    267   2   0.50000    -0.1200000    0.0600000   2.494471e-04  1.671101e-07
    255    268   2   0.50000    -0.1200000    0.0600000   2.494471e-04  1.671101e-07
    255    269   2   0.50000    -0.1200000    0.0600000   2.494471e-04  1.671101e-07
    228    270   2   0.50000    -0.1200000    0.0600000   2.494471e-04  1.671101e-07
    228    271   2   0.50000    -0.1200000    0.0600000   2.494471e-04  1.671101e-07
    228    280   2   0.50000    -0.1200000    0.0000000   1.015252e-03  1.866303e-06
    251    270   2   0.50000     0.5100000    0.0600000   3.869820e-04  3.188634e-07
    251    271   2   0.50000     0.5100000    0.0600000   3.869820e-04  3.188634e-07
    251    280   2   0.50000     0.5100000    0.0000000   1.575021e-03  3.561100e-06
    254    270   2   0.50000    -0.1800000    0.0600000   2.494471e-04  1.671101e-07
    254    271   2   0.50000    -0.1800000    0.0600000   2.494471e-04  1.671101e-07
    254    280   2   0.50000    -0.1800000    0.0000000   1.015252e-03  1.866303e-06
    253    278   2   0.50000     0.0000000    0.5100000   1.575021e-03  3.561100e-06
    253    281   2   0.50000     0.0000000   -0.1800000   1.015252e-03  1.866303e-06
    253    282   2   0.50000     0.0000000   -0.1200000   1.015252e-03  1.866303e-06
    270    278   2   0.50000     0.0600000    0.5100000   3.869820e-04  3.188634e-07
    270    281   2   0.50000     0.0600000   -0.1800000   2.494471e-04  1.671101e-07
    270    282   2   0.50000     0.0600000   -0.1200000   2.494471e-04  1.671101e-07
    271    278   2   0.50000     0.0600000    0.5100000   3.869820e-04  3.188634e-07
    271    281   2   0.50000     0.0600000   -0.1800000   2.494471e-04  1.671101e-07
    271    282   2   0.50000     0.0600000   -0.1200000   2.494471e-04  1.671101e-07
    283    274   2   0.50000     0.0600000   -0.1200000   2.494471e-04  1.671101e-07
    283    286   2   0.50000     0.0600000    0.0600000   6.128906e-05  1.496315e-08
    283    287   2   0.50000     0.0600000    0.0600000   6.128906e-05  1.496315e-08
    284    274   2   0.50000     0.0600000   -0.1200000   2.494471e-04  1.671101e-07
    284    286   2   0.50000     0.0600000    0.0600000   6.128906e-05  1.496315e-08
    284    287   2   0.50000     0.0600000    0.0600000   6.128906e-05  1.496315e-08
    285    274   2   0.50000     0.0600000   -0.1200000   2.494471e-04  1.671101e-07
    285    286   2   0.50000     0.0600000    0.0600000   6.128906e-05  1.496315e-08
    285    287   2   0.50000     0.0600000    0.0600000   6.128906e-05  1.496315e-08
    272    275   2   0.50000    -0.1800000   -0.1200000   1.015252e-03  1.866303e-06
    272    288   2   0.50000    -0.1800000    0.0600000   2.494471e-04  1.671101e-07
    272    289   2   0.50000    -0.1800000    0.0600000   2.494471e-04  1.671101e-07
    286    275   2   0.50000     0.0600000   -0.1200000   2.494471e-04  1.671101e-07
    286    288   2   0.50000     0.0600000    0.0600000   6.128906e-05  1.496315e-08
    286    289   2   0.50000     0.0600000    0.0600000   6.128906e-05  1.496315e-08
    287    275   2   0.50000     0.0600000   -0.1200000   2.494471e-04  1.671101e-07
    287    288   2   0.50000     0.0600000    0.0600000   6.128906e-05  1.496315e-08
    287    289   2   0.50000     0.0600000    0.0600000   6.128906e-05  1.496315e-08
    273    276   2   0.50000    -0.1200000    0.1900000   1.015252e-03  1.866303e-06
    273    290   2   0.50000    -0.1200000    0.0600000   2.494471e-04  1.671101e-07
    273    291   2   0.50000    -0.1200000    0.0600000   2.494471e-04  1.671101e-07
    288    276   2   0.50000     0.0600000    0.1900000   2.494471e-04  1.671101e-07
    288    290   2   0.50000     0.0600000    0.0600000   6.128906e-05  1.496315e-08
    288    291   2   0.50000     0.0600000    0.0600000   6.128906e-05  1.496315e-08
    289    276   2   0.50000     0.0600000    0.1900000   2.494471e-04  1.671101e-07
    289    290   2   0.50000     0.0600000    0.0600000   6.128906e-05  1.496315e-08
    289    291   2   0.50000     0.0600000    0.0600000   6.128906e-05  1.496315e-08
    274    277   2   0.50000    -0.1200000   -0.3300000   1.026091e-03  1.187829e-06
    274    292   2   0.50000    -0.1200000    0.0300000   1.599888e-04  9.721644e-08
    274    293   2   0.50000    -0.1200000    0.0300000   1.599888e-04  9.721644e-08
    290    277   2   0.50000     0.0600000   -0.3300000   2.521103e-04  1.063590e-07
    290    292   2   0.50000     0.0600000    0.0300000   3.930919e-05  8.704828e-09
    290    293   2   0.50000     0.0600000    0.0300000   3.930919e-05  8.704828e-09
    291    277   2   0.50000     0.0600000   -0.3300000   2.521103e-04  1.063590e-07
    291    292   2   0.50000     0.0600000    0.0300000   3.930919e-05  8.704828e-09
    291    293   2   0.50000     0.0600000    0.0300000   3.930919e-05  8.704828e-09
    275    278   2   0.50000    -0.1200000    0.5100000   1.575021e-03  3.561100e-06
    292    278   2   0.50000     0.0300000    0.5100000   2.482000e-04  1.854991e-07
    293    278   2   0.50000     0.0300000    0.5100000   2.482000e-04  1.854991e-07
    276    279   2   0.50000     0.1900000   -0.4300000   1.095425e-03  1.218041e-06
    276    280   2   0.50000     0.1900000    0.0000000   1.015252e-03  1.866303e-06
    277    255   2   0.50000    -0.3300000   -0.1200000   1.026091e-03  1.187829e-06
    277    281   2   0.50000    -0.3300000   -0.1800000   1.026091e-03  1.187829e-06
    277    282   2   0.50000    -0.3300000   -0.1200000   1.026091e-03  1.187829e-06
    279    255   2   0.50000    -0.4300000   -0.1200000   1.095425e-03  1.218041e-06
    279    281   2   0.50000    -0.4300000   -0.1800000   1.095425e-03  1.218041e-06
    279    282   2   0.50000    -0.4300000   -0.1200000   1.095425e-03  1.218041e-06
    255    294   2   0.50000    -0.1200000    0.0600000   2.494471e-04  1.671101e-07
    255    295   2   0.50000    -0.1200000    0.0600000   2.494471e-04  1.671101e-07
    255    296   2   0.50000    -0.1200000    0.0600000   2.494471e-04  1.671101e-07
    278    294   2   0.50000     0.5100000    0.0600000   3.869820e-04  3.188634e-07
    278    295   2   0.50000     0.5100000    0.0600000   3.869820e-04  3.188634e-07
    278    296   2   0.50000     0.5100000    0.0600000   3.869820e-04  3.188634e-07
    282    294   2   0.50000    -0.1200000    0.0600000   2.494471e-04  1.671101e-07
    282    295   2   0.50000    -0.1200000    0.0600000   2.494471e-04  1.671101e-07
    282    296   2   0.50000    -0.1200000    0.0600000   2.494471e-04  1.671101e-07
    255    297   2   0.50000    -0.1200000    0.0600000   2.494471e-04  1.671101e-07
    255    298   2   0.50000    -0.1200000    0.0600000   2.494471e-04  1.671101e-07
    255    307   2   0.50000    -0.1200000    0.0000000   1.015252e-03  1.866303e-06
    278    297   2   0.50000     0.5100000    0.0600000   3.869820e-04  3.188634e-07
    278    298   2   0.50000     0.5100000    0.0600000   3.869820e-04  3.188634e-07
    278    307   2   0.50000     0.5100000    0.0000000   1.575021e-03  3.561100e-06
    281    297   2   0.50000    -0.1800000    0.0600000   2.494471e-04  1.671101e-07
    281    298   2   0.50000    -0.1800000    0.0600000   2.494471e-04  1.671101e-07
    281    307   2   0.50000    -0.1800000    0.0000000   1.015252e-03  1.866303e-06
    280    305   2   0.50000     0.0000000    0.5100000   1.575021e-03  3.561100e-06
    280    308   2   0.50000     0.0000000   -0.1800000   1.015252e-03  1.866303e-06
    280    309   2   0.50000     0.0000000   -0.1200000   1.015252e-03  1.866303e-06
    297    305   2   0.50000     0.0600000    0.5100000   3.869820e-04  3.188634e-07
    297    308   2   0.50000     0.0600000   -0.1800000   2.494471e-04  1.671101e-07
    297    309   2   0.50000     0.0600000   -0.1200000   2.494471e-04  1.671101e-07
    298    305   2   0.50000     0.0600000    0.5100000   3.869820e-04  3.188634e-07
    298    308   2   0.50000     0.0600000   -0.1800000   2.494471e-04  1.671101e-07
    298    309   2   0.50000     0.0600000   -0.1200000   2.494471e-04  1.671101e-07
    310    301   2   0.50000     0.0600000   -0.1200000   2.494471e-04  1.671101e-07
    310    313   2   0.50000     0.0600000    0.0600000   6.128906e-05  1.496315e-08
    310    314   2   0.50000     0.0600000    0.0600000   6.128906e-05  1.496315e-08
    311    301   2   0.50000     0.0600000   -0.1200000   2.494471e-04  1.671101e-07
    311    313   2   0.50000     0.0600000    0.0600000   6.128906e-05  1.496315e-08
    311    314   2   0.50000     0.0600000    0.0600000   6.128906e-05  1.496315e-08
    312    301   2   0.50000     0.0600000   -0.1200000   2.494471e-04  1.671101e-07
    312    313   2   0.50000     0.0600000    0.0600000   6.128906e-05  1.496315e-08
    312    314   2   0.50000     0.0600000    0.0600000   6.128906e-05  1.496315e-08
    299    302   2   0.50000    -0.1800000   -0.1200000   1.015252e-03  1.866303e-06
    299    315   2   0.50000    -0.1800000    0.0600000   2.494471e-04  1.671101e-07
    299    316   2   0.50000    -0.1800000    0.0600000   2.494471e-04  1.671101e-07
    313    302   2   0.50000     0.0600000   -0.1200000   2.494471e-04  1.671101e-07
    313    315   2   0.50000     0.0600000    0.0600000   6.128906e-05  1.496315e-08
    313    316   2   0.50000     0.0600000    0.0600000   6.128906e-05  1.496315e-08
    314    302   2   0.50000     0.0600000   -0.1200000   2.494471e-04  1.671101e-07
    314    315   2   0.50000     0.0600000    0.0600000   6.128906e-05  1.496315e-08
    314    316   2   0.50000     0.0600000    0.0600000   6.128906e-05  1.496315e-08
    300    303   2   0.50000    -0.1200000    0.1900000   1.015252e-03  1.866303e-06
    300    317   2   0.50000    -0.1200000    0.0600000   2.494471e-04  1.671101e-07
    300    318   2   0.50000    -0.1200000    0.0600000   2.494471e-04  1.671101e-07
    315    303   2   0.50000     0.0600000    0.1900000   2.494471e-04  1.671101e-07
    315    317   2   0.50000     0.0600000    0.0600000   6.128906e-05  1.496315e-08
    315    318   2   0.50000     0.0600000    0.0600000   6.128906e-05  1.496315e-08
    316    303   2   0.50000     0.0600000    0.1900000   2.494471e-04  1.671101e-07
    316    317   2   0.50000     0.0600000    0.0600000   6.128906e-05  1.496315e-08
    316    318   2   0.50000     0.0600000    0.0600000   6.128906e-05  1.496315e-08
    301    304   2   0.50000    -0.1200000   -0.3300000   1.026091e-03  1.187829e-06
    301    319   2   0.50000    -0.1200000    0.0300000   1.599888e-04  9.721644e-08
    301    320   2   0.50000    -0.1200000    0.0300000   1.599888e-04  9.721644e-08
    317    304   2   0.50000     0.0600000   -0.3300000   2.521103e-04  1.063590e-07
    317    319   2   0.50000     0.0600000    0.0300000   3.930919e-05  8.704828e-09
    317    320   2   0.50000     0.0600000    0.0300000   3.930919e-05  8.704828e-09
    318    304   2   0.50000     0.0600000   -0.3300000   2.521103e-04  1.063590e-07
    318    319   2   0.50000     0.0600000    0.0300000   3.930919e-05  8.704828e-09
    318    320   2   0.50000     0.0600000    0.0300000   3.930919e-05  8.704828e-09
    302    305   2   0.50000    -0.1200000    0.5100000   1.575021e-03  3.561100e-06
    319    305   2   0.50000     0.0300000    0.5100000   2.482000e-04  1.854991e-07
    320    305   2   0.50000     0.0300000    0.5100000   2.482000e-04  1.854991e-07
    303    306   2   0.50000     0.1900000   -0.4300000   1.095425e-03  1.218041e-06
    303    307   2   0.50000     0.1900000    0.0000000   1.015252e-03  1.866303e-06
    304    282   2   0.50000    -0.3300000   -0.1200000   1.026091e-03  1.187829e-06
    304    308   2   0.50000    -0.3300000   -0.1800000   1.026091e-03  1.187829e-06
    304    309   2   0.50000    -0.3300000   -0.1200000   1.026091e-03  1.187829e-06
    306    282   2   0.50000    -0.4300000   -0.1200000   1.095425e-03  1.218041e-06
    306    308   2   0.50000    -0.4300000   -0.1800000   1.095425e-03  1.218041e-06
    306    309   2   0.50000    -0.4300000   -0.1200000   1.095425e-03  1.218041e-06
    282    321   2   0.50000    -0.1200000    0.0600000   2.494471e-04  1.671101e-07
    282    322   2   0.50000    -0.1200000    0.0600000   2.494471e-04  1.671101e-07
    282    323   2   0.50000    -0.1200000    0.0600000   2.494471e-04  1.671101e-07
    305    321   2   0.50000     0.5100000    0.0600000   3.869820e-04  3.188634e-07
    305    322   2   0.50000     0.5100000    0.0600000   3.869820e-04  3.188634e-07
    305    323   2   0.50000     0.5100000    0.0600000   3.869820e-04  3.188634e-07
    309    321   2   0.50000    -0.1200000    0.0600000   2.494471e-04  1.671101e-07
    309    322   2   0.50000    -0.1200000    0.0600000   2.494471e-04  1.671101e-07
    309    323   2   0.50000    -0.1200000    0.0600000   2.494471e-04  1.671101e-07
    282    324   2   0.50000    -0.1200000    0.0600000   2.494471e-04  1.671101e-07
    282    325   2   0.50000    -0.1200000    0.0600000   2.494471e-04  1.671101e-07
    282    334   2   0.50000    -0.1200000    0.0000000   1.015252e-03  1.866303e-06
    305    324   2   0.50000     0.5100000    0.0600000   3.869820e-04  3.188634e-07
    305    325   2   0.50000     0.5100000    0.0600000   3.869820e-04  3.188634e-07
    305    334   2   0.50000     0.5100000    0.0000000   1.575021e-03  3.561100e-06
    308    324   2   0.50000    -0.1800000    0.0600000   2.494471e-04  1.671101e-07
    308    325   2   0.50000    -0.1800000    0.0600000   2.494471e-04  1.671101e-07
    308    334   2   0.50000    -0.1800000    0.0000000   1.015252e-03  1.866303e-06
    307    332   2   0.50000     0.0000000    0.5100000   1.575021e-03  3.561100e-06
    307    335   2   0.50000     0.0000000   -0.1800000   1.015252e-03  1.866303e-06
    307    336   2   0.50000     0.0000000   -0.1200000   1.015252e-03  1.866303e-06
    324    332   2   0.50000     0.0600000    0.5100000   3.869820e-04  3.188634e-07
    324    335   2   0.50000     0.0600000   -0.1800000   2.494471e-04  1.671101e-07
    324    336   2   0.50000     0.0600000   -0.1200000   2.494471e-04  1.671101e-07
    325    332   2   0.50000     0.0600000    0.5100000   3.869820e-04  3.188634e-07
    325    335   2   0.50000     0.0600000   -0.1800000   2.494471e-04  1.671101e-07
    325    336   2   0.50000     0.0600000   -0.1200000   2.494471e-04  1.671101e-07
    337    328   2   0.50000     0.0600000   -0.1200000   2.494471e-04  1.671101e-07
    337    340   2   0.50000     0.0600000    0.0600000   6.128906e-05  1.496315e-08
    337    341   2   0.50000     0.0600000    0.0600000   6.128906e-05  1.496315e-08
    338    328   2   0.50000     0.0600000   -0.1200000   2.494471e-04  1.671101e-07
    338    340   2   0.50000     0.0600000    0.0600000   6.128906e-05  1.496315e-08
    338    341   2   0.50000     0.0600000    0.0600000   6.128906e-05  1.496315e-08
    339    328   2   0.50000     0.0600000   -0.1200000   2.494471e-04  1.671101e-07
    339    340   2   0.50000     0.0600000    0.0600000   6.128906e-05  1.496315e-08
    339    341   2   0.50000     0.0600000    0.0600000   6.128906e-05  1.496315e-08
    326    329   2   0.50000    -0.1800000   -0.1200000   1.015252e-03  1.866303e-06
    326    342   2   0.50000    -0.1800000    0.0600000   2.494471e-04  1.671101e-07
    326    343   2   0.50000    -0.1800000    0.0600000   2.494471e-04  1.671101e-07
    340    329   2   0.50000     0.0600000   -0.1200000   2.494471e-04  1.671101e-07
    340    342   2   0.50000     0.0600000    0.0600000   6.128906e-05  1.496315e-08
    340    343   2   0.50000     0.0600000    0.0600000   6.128906e-05  1.496315e-08
    341    329   2   0.50000     0.0600000   -0.1200000   2.494471e-04  1.671101e-07
    341    342   2   0.50000     0.0600000    0.0600000   6.128906e-05  1.496315e-08
    341    343   2   0.50000     0.0600000    0.0600000   6.128906e-05  1.496315e-08
    327    330   2   0.50000    -0.1200000    0.1900000   1.015252e-03  1.866303e-06
    327    344   2   0.50000    -0.1200000    0.0600000   2.494471e-04  1.671101e-07
    327    345   2   0.50000    -0.1200000    0.0600000   2.494471e-04  1.671101e-07
    342    330   2   0.50000     0.0600000    0.1900000   2.494471e-04  1.671101e-07
    342    344   2   0.50000     0.0600000    0.0600000   6.128906e-05  1.496315e-08
    342    345   2   0.50000     0.0600000    0.0600000   6.128906e-05  1.496315e-08
    343    330   2   0.50000     0.0600000    0.1900000   2.494471e-04  1.671101e-07
    343    344   2   0.50000     0.0600000    0.0600000   6.128906e-05  1.496315e-08
    343    345   2   0.50000     0.0600000    0.0600000   6.128906e-05  1.496315e-08
    328    331   2   0.50000    -0.1200000   -0.3300000   1.026091e-03  1.187829e-06
    328    346   2   0.50000    -0.1200000    0.0300000   1.599888e-04  9.721644e-08
    328    347   2   0.50000    -0.1200000    0.0300000   1.599888e-04  9.721644e-08
    344    331   2   0.50000     0.0600000   -0.3300000   2.521103e-04  1.063590e-07
    344    346   2   0.50000     0.0600000    0.0300000   3.930919e-05  8.704828e-09
    344    347   2   0.50000     0.0600000    0.0300000   3.930919e-05  8.704828e-09
    345    331   2   0.50000     0.0600000   -0.3300000   2.521103e-04  1.063590e-07
    345    346   2   0.50000     0.0600000    0.0300000   3.930919e-05  8.704828e-09
    345    347   2   0.50000     0.0600000    0.0300000   3.930919e-05  8.704828e-09
    329    332   2   0.50000    -0.1200000    0.5100000   1.575021e-03  3.561100e-06
    346    332   2   0.50000     0.0300000    0.5100000   2.482000e-04  1.854991e-07
    347    332   2   0.50000     0.0300000    0.5100000   2.482000e-04  1.854991e-07
    330    333   2   0.50000     0.1900000   -0.4300000   1.095425e-03  1.218041e-06
    330    334   2   0.50000     0.1900000    0.0000000   1.015252e-03  1.866303e-06
    331    309   2   0.50000    -0.3300000   -0.1200000   1.026091e-03  1.187829e-06
    331    335   2   0.50000    -0.3300000   -0.1800000   1.026091e-03  1.187829e-06
    331    336   2   0.50000    -0.3300000   -0.1200000   1.026091e-03  1.187829e-06
    333    309   2   0.50000    -0.4300000   -0.1200000   1.095425e-03  1.218041e-06
    333    335   2   0.50000    -0.4300000   -0.1800000   1.095425e-03  1.218041e-06
    333    336   2   0.50000    -0.4300000   -0.1200000   1.095425e-03  1.218041e-06
    309    348   2   0.50000    -0.1200000    0.0600000   2.494471e-04  1.671101e-07
    309    349   2   0.50000    -0.1200000    0.0600000   2.494471e-04  1.671101e-07
    309    350   2   0.50000    -0.1200000    0.0600000   2.494471e-04  1.671101e-07
    332    348   2   0.50000     0.5100000    0.0600000   3.869820e-04  3.188634e-07
    332    349   2   0.50000     0.5100000    0.0600000   3.869820e-04  3.188634e-07
    332    350   2   0.50000     0.5100000    0.0600000   3.869820e-04  3.188634e-07
    336    348   2   0.50000    -0.1200000    0.0600000   2.494471e-04  1.671101e-07
    336    349   2   0.50000    -0.1200000    0.0600000   2.494471e-04  1.671101e-07
    336    350   2   0.50000    -0.1200000    0.0600000   2.494471e-04  1.671101e-07
    309    351   2   0.50000    -0.1200000    0.0600000   2.494471e-04  1.671101e-07
    309    352   2   0.50000    -0.1200000    0.0600000   2.494471e-04  1.671101e-07
    309    361   2   0.50000    -0.1200000    0.0000000   1.015252e-03  1.866303e-06
    332    351   2   0.50000     0.5100000    0.0600000   3.869820e-04  3.188634e-07
    332    352   2   0.50000     0.5100000    0.0600000   3.869820e-04  3.188634e-07
    332    361   2   0.50000     0.5100000    0.0000000   1.575021e-03  3.561100e-06
    335    351   2   0.50000    -0.1800000    0.0600000   2.494471e-04  1.671101e-07
    335    352   2   0.50000    -0.1800000    0.0600000   2.494471e-04  1.671101e-07
    335    361   2   0.50000    -0.1800000    0.0000000   1.015252e-03  1.866303e-06
    334    359   2   0.50000     0.0000000    0.5100000   1.575021e-03  3.561100e-06
    334    362   2   0.50000     0.0000000   -0.1800000   1.015252e-03  1.866303e-06
    334    363   2   0.50000     0.0000000   -0.1200000   1.015252e-03  1.866303e-06
    351    359   2   0.50000     0.0600000    0.5100000   3.869820e-04  3.188634e-07
    351    362   2   0.50000     0.0600000   -0.1800000   2.494471e-04  1.671101e-07
    351    363   2   0.50000     0.0600000   -0.1200000   2.494471e-04  1.671101e-07
    352    359   2   0.50000     0.0600000    0.5100000   3.869820e-04  3.188634e-07
    352    362   2   0.50000     0.0600000   -0.1800000   2.494471e-04  1.671101e-07
    352    363   2   0.50000     0.0600000   -0.1200000   2.494471e-04  1.671101e-07
    364    355   2   0.50000     0.0600000   -0.1200000   2.494471e-04  1.671101e-07
    364    367   2   0.50000     0.0600000    0.0600000   6.128906e-05  1.496315e-08
    364    368   2   0.50000     0.0600000    0.0600000   6.128906e-05  1.496315e-08
    365    355   2   0.50000     0.0600000   -0.1200000   2.494471e-04  1.671101e-07
    365    367   2   0.50000     0.0600000    0.0600000   6.128906e-05  1.496315e-08
    365    368   2   0.50000     0.0600000    0.0600000   6.128906e-05  1.496315e-08
    366    355   2   0.50000     0.0600000   -0.1200000   2.494471e-04  1.671101e-07
    366    367   2   0.50000     0.0600000    0.0600000   6.128906e-05  1.496315e-08
    366    368   2   0.50000     0.0600000    0.0600000   6.128906e-05  1.496315e-08
    353    356   2   0.50000    -0.1800000   -0.1200000   1.015252e-03  1.866303e-06
    353    369   2   0.50000    -0.1800000    0.0600000   2.494471e-04  1.671101e-07
    353    370   2   0.50000    -0.1800000    0.0600000   2.494471e-04  1.671101e-07
    367    356   2   0.50000     0.0600000   -0.1200000   2.494471e-04  1.671101e-07
    367    369   2   0.50000     0.0600000    0.0600000   6.128906e-05  1.496315e-08
    367    370   2   0.50000     0.0600000    0.0600000   6.128906e-05  1.496315e-08
    368    356   2   0.50000     0.0600000   -0.1200000   2.494471e-04  1.671101e-07
    368    369   2   0.50000     0.0600000    0.0600000   6.128906e-05  1.496315e-08
    368    370   2   0.50000     0.0600000    0.0600000   6.128906e-05  1.496315e-08
    354    357   2   0.50000    -0.1200000    0.1900000   1.015252e-03  1.866303e-06
    354    371   2   0.50000    -0.1200000    0.0600000   2.494471e-04  1.671101e-07
    354    372   2   0.50000    -0.1200000    0.0600000   2.494471e-04  1.671101e-07
    369    357   2   0.50000     0.0600000    0.1900000   2.494471e-04  1.671101e-07
    369    371   2   0.50000     0.0600000    0.0600000   6.128906e-05  1.496315e-08
    369    372   2   0.50000     0.0600000    0.0600000   6.128906e-05  1.496315e-08
    370    357   2   0.50000     0.0600000    0.1900000   2.494471e-04  1.671101e-07
    370    371   2   0.50000     0.0600000    0.0600000   6.128906e-05  1.496315e-08
    370    372   2   0.50000     0.0600000    0.0600000   6.128906e-05  1.496315e-08
    355    358   2   0.50000    -0.1200000   -0.3300000   1.026091e-03  1.187829e-06
    355    373   2   0.50000    -0.1200000    0.0300000   1.599888e-04  9.721644e-08
    355    374   2   0.50000    -0.1200000    0.0300000   1.599888e-04  9.721644e-08
    371    358   2   0.50000     0.0600000   -0.3300000   2.521103e-04  1.063590e-07
    371    373   2   0.50000     0.0600000    0.0300000   3.930919e-05  8.704828e-09
    371    374   2   0.50000     0.0600000    0.0300000   3.930919e-05  8.704828e-09
    372    358   2   0.50000     0.0600000   -0.3300000   2.521103e-04  1.063590e-07
    372    373   2   0.50000     0.0600000    0.0300000   3.930919e-05  8.704828e-09
    372    374   2   0.50000     0.0600000    0.0300000   3.930919e-05  8.704828e-09
    356    359   2   0.50000    -0.1200000    0.5100000   1.575021e-03  3.561100e-06
    373    359   2   0.50000     0.0300000    0.5100000   2.482000e-04  1.854991e-07
    374    359   2   0.50000     0.0300000    0.5100000   2.482000e-04  1.854991e-07
    357    360   2   0.50000     0.1900000   -0.4300000   1.095425e-03  1.218041e-06
    357    361   2   0.50000     0.1900000    0.0000000   1.015252e-03  1.866303e-06
    358    336   2   0.50000    -0.3300000   -0.1200000   1.026091e-03  1.187829e-06
    358    362   2   0.50000    -0.3300000   -0.1800000   1.026091e-03  1.187829e-06
    358    363   2   0.50000    -0.3300000   -0.1200000   1.026091e-03  1.187829e-06
    360    336   2   0.50000    -0.4300000   -0.1200000   1.095425e-03  1.218041e-06
    360    362   2   0.50000    -0.4300000   -0.1800000   1.095425e-03  1.218041e-06
    360    363   2   0.50000    -0.4300000   -0.1200000   1.095425e-03  1.218041e-06
    336    375   2   0.50000    -0.1200000    0.0600000   2.494471e-04  1.671101e-07
    336    376   2   0.50000    -0.1200000    0.0600000   2.494471e-04  1.671101e-07
    336    377   2   0.50000    -0.1200000    0.0600000   2.494471e-04  1.671101e-07
    359    375   2   0.50000     0.5100000    0.0600000   3.869820e-04  3.188634e-07
    359    376   2   0.50000     0.5100000    0.0600000   3.869820e-04  3.188634e-07
    359    377   2   0.50000     0.5100000    0.0600000   3.869820e-04  3.188634e-07
    363    375   2   0.50000    -0.1200000    0.0600000   2.494471e-04  1.671101e-07
    363    376   2   0.50000    -0.1200000    0.0600000   2.494471e-04  1.671101e-07
    363    377   2   0.50000    -0.1200000    0.0600000   2.494471e-04  1.671101e-07
    336    378   2   0.50000    -0.1200000    0.0600000   2.494471e-04  1.671101e-07
    336    379   2   0.50000    -0.1200000    0.0600000   2.494471e-04  1.671101e-07
    336    388   2   0.50000    -0.1200000    0.0000000   1.015252e-03  1.866303e-06
    359    378   2   0.50000     0.5100000    0.0600000   3.869820e-04  3.188634e-07
    359    379   2   0.50000     0.5100000    0.0600000   3.869820e-04  3.188634e-07
    359    388   2   0.50000     0.5100000    0.0000000   1.575021e-03  3.561100e-06
    362    378   2   0.50000    -0.1800000    0.0600000   2.494471e-04  1.671101e-07
    362    379   2   0.50000    -0.1800000    0.0600000   2.494471e-04  1.671101e-07
    362    388   2   0.50000    -0.1800000    0.0000000   1.015252e-03  1.866303e-06
    361    386   2   0.50000     0.0000000    0.5100000   1.575021e-03  3.561100e-06
    361    389   2   0.50000     0.0000000   -0.1800000   1.015252e-03  1.866303e-06
    361    390   2   0.50000     0.0000000   -0.1200000   1.015252e-03  1.866303e-06
    378    386   2   0.50000     0.0600000    0.5100000   3.869820e-04  3.188634e-07
    378    389   2   0.50000     0.0600000   -0.1800000   2.494471e-04  1.671101e-07
    378    390   2   0.50000     0.0600000   -0.1200000   2.494471e-04  1.671101e-07
    379    386   2   0.50000     0.0600000    0.5100000   3.869820e-04  3.188634e-07
    379    389   2   0.50000     0.0600000   -0.1800000   2.494471e-04  1.671101e-07
    379    390   2   0.50000     0.0600000   -0.1200000   2.494471e-04  1.671101e-07
    391    382   2   0.50000     0.0600000   -0.1200000   2.494471e-04  1.671101e-07
    391    394   2   0.50000     0.0600000    0.0600000   6.128906e-05  1.496315e-08
    391    395   2   0.50000     0.0600000    0.0600000   6.128906e-05  1.496315e-08
    392    382   2   0.50000     0.0600000   -0.1200000   2.494471e-04  1.671101e-07
    392    394   2   0.50000     0.0600000    0.0600000   6.128906e-05  1.496315e-08
    392    395   2   0.50000     0.0600000    0.0600000   6.128906e-05  1.496315e-08
    393    382   2   0.50000     0.0600000   -0.1200000   2.494471e-04  1.671101e-07
    393    394   2   0.50000     0.0600000    0.0600000   6.128906e-05  1.496315e-08
    393    395   2   0.50000     0.0600000    0.0600000   6.128906e-05  1.496315e-08
    380    383   2   0.50000    -0.1800000   -0.1200000   1.015252e-03  1.866303e-06
    380    396   2   0.50000    -0.1800000    0.0600000   2.494471e-04  1.671101e-07
    380    397   2   0.50000    -0.1800000    0.0600000   2.494471e-04  1.671101e-07
    394    383   2   0.50000     0.0600000   -0.1200000   2.494471e-04  1.671101e-07
    394    396   2   0.50000     0.0600000    0.0600000   6.128906e-05  1.496315e-08
    394    397   2   0.50000     0.0600000    0.0600000   6.128906e-05  1.496315e-08
    395    383   2   0.50000     0.0600000   -0.1200000   2.494471e-04  1.671101e-07
    395    396   2   0.50000     0.0600000    0.0600000   6.128906e-05  1.496315e-08
    395    397   2   0.50000     0.0600000    0.0600000   6.128906e-05  1.496315e-08
    381    384   2   0.50000    -0.1200000    0.1900000   1.015252e-03  1.866303e-06
    381    398   2   0.50000    -0.1200000    0.0600000   2.494471e-04  1.671101e-07
    381    399   2   0.50000    -0.1200000    0.0600000   2.494471e-04  1.671101e-07
    396    384   2   0.50000     0.0600000    0.1900000   2.494471e-04  1.671101e-07
    396    398   2   0.50000     0.0600000    0.0600000   6.128906e-05  1.496315e-08
    396    399   2   0.50000     0.0600000    0.0600000   6.128906e-05  1.496315e-08
    397    384   2   0.50000     0.0600000    0.1900000   2.494471e-04  1.671101e-07
    397    398   2   0.50000     0.0600000    0.0600000   6.128906e-05  1.496315e-08
    397    399   2   0.50000     0.0600000    0.0600000   6.128906e-05  1.496315e-08
    382    385   2   0.50000    -0.1200000   -0.3300000   1.026091e-03  1.187829e-06
    382    400   2   0.50000    -0.1200000    0.0300000   1.599888e-04  9.721644e-08
    382    401   2   0.50000    -0.1200000    0.0300000   1.599888e-04  9.721644e-08
    398    385   2   0.50000     0.0600000   -0.3300000   2.521103e-04  1.063590e-07
    398    400   2   0.50000     0.0600000    0.0300000   3.930919e-05  8.704828e-09
    398    401   2   0.50000     0.0600000    0.0300000   3.930919e-05  8.704828e-09
    399    385   2   0.50000     0.0600000   -0.3300000   2.521103e-04  1.063590e-07
    399    400   2   0.50000     0.0600000    0.0300000   3.930919e-05  8.704828e-09
    399    401   2   0.50000     0.0600000    0.0300000   3.930919e-05  8.704828e-09
    383    386   2   0.50000    -0.1200000    0.5100000   1.575021e-03  3.561100e-06
    400    386   2   0.50000     0.0300000    0.5100000   2.482000e-04  1.854991e-07
    401    386   2   0.50000     0.0300000    0.5100000   2.482000e-04  1.854991e-07
    384    387   2   0.50000     0.1900000   -0.4300000   1.095425e-03  1.218041e-06
    384    388   2   0.50000     0.1900000    0.0000000   1.015252e-03  1.866303e-06
    385    363   2   0.50000    -0.3300000   -0.1200000   1.026091e-03  1.187829e-06
    385    389   2   0.50000    -0.3300000   -0.1800000   1.026091e-03  1.187829e-06
    385    390   2   0.50000    -0.3300000   -0.1200000   1.026091e-03  1.187829e-06
    387    363   2   0.50000    -0.4300000   -0.1200000   1.095425e-03  1.218041e-06
    387    389   2   0.50000    -0.4300000   -0.1800000   1.095425e-03  1.218041e-06
    387    390   2   0.50000    -0.4300000   -0.1200000   1.095425e-03  1.218041e-06
    363    402   2   0.50000    -0.1200000    0.0600000   2.494471e-04  1.671101e-07
    363    403   2   0.50000    -0.1200000    0.0600000   2.494471e-04  1.671101e-07
    363    404   2   0.50000    -0.1200000    0.0600000   2.494471e-04  1.671101e-07
    386    402   2   0.50000     0.5100000    0.0600000   3.869820e-04  3.188634e-07
    386    403   2   0.50000     0.5100000    0.0600000   3.869820e-04  3.188634e-07
    386    404   2   0.50000     0.5100000    0.0600000   3.869820e-04  3.188634e-07
    390    402   2   0.50000    -0.1200000    0.0600000   2.494471e-04  1.671101e-07
    390    403   2   0.50000    -0.1200000    0.0600000   2.494471e-04  1.671101e-07
    390    404   2   0.50000    -0.1200000    0.0600000   2.494471e-04  1.671101e-07
    363    405   2   0.50000    -0.1200000    0.0600000   2.494471e-04  1.671101e-07
    363    406   2   0.50000    -0.1200000    0.0600000   2.494471e-04  1.671101e-07
    363    415   2   0.50000    -0.1200000    0.0000000   1.015252e-03  1.866303e-06
    386    405   2   0.50000     0.5100000    0.0600000   3.869820e-04  3.188634e-07
    386    406   2   0.50000     0.5100000    0.0600000   3.869820e-04  3.188634e-07
    386    415   2   0.50000     0.5100000    0.0000000   1.575021e-03  3.561100e-06
    389    405   2   0.50000    -0.1800000    0.0600000   2.494471e-04  1.671101e-07
    389    406   2   0.50000    -0.1800000    0.0600000   2.494471e-04  1.671101e-07
    389    415   2   0.50000    -0.1800000    0.0000000   1.015252e-03  1.866303e-06
    388    413   2   0.50000     0.0000000    0.5100000   1.575021e-03  3.561100e-06
    388    416   2   0.50000     0.0000000   -0.1800000   1.015252e-03  1.866303e-06
    388    417   2   0.50000     0.0000000   -0.1200000   1.015252e-03  1.866303e-06
    405    413   2   0.50000     0.0600000    0.5100000   3.869820e-04  3.188634e-07
    405    416   2   0.50000     0.0600000   -0.1800000   2.494471e-04  1.671101e-07
    405    417   2   0.50000     0.0600000   -0.1200000   2.494471e-04  1.671101e-07
    406    413   2   0.50000     0.0600000    0.5100000   3.869820e-04  3.188634e-07
    406    416   2   0.50000     0.0600000   -0.1800000   2.494471e-04  1.671101e-07
    406    417   2   0.50000     0.0600000   -0.1200000   2.494471e-04  1.671101e-07
    418    409   2   0.50000     0.0600000   -0.1200000   2.494471e-04  1.671101e-07
    418    421   2   0.50000     0.0600000    0.0600000   6.128906e-05  1.496315e-08
    418    422   2   0.50000     0.0600000    0.0600000   6.128906e-05  1.496315e-08
    419    409   2   0.50000     0.0600000   -0.1200000   2.494471e-04  1.671101e-07
    419    421   2   0.50000     0.0600000    0.0600000   6.128906e-05  1.496315e-08
    419    422   2   0.50000     0.0600000    0.0600000   6.128906e-05  1.496315e-08
    420    409   2   0.50000     0.0600000   -0.1200000   2.494471e-04  1.671101e-07
    420    421   2   0.50000     0.0600000    0.0600000   6.128906e-05  1.496315e-08
    420    422   2   0.50000     0.0600000    0.0600000   6.128906e-05  1.496315e-08
    407    410   2   0.50000    -0.1800000   -0.1200000   1.015252e-03  1.866303e-06
    407    423   2   0.50000    -0.1800000    0.0600000   2.494471e-04  1.671101e-07
    407    424   2   0.50000    -0.1800000    0.0600000   2.494471e-04  1.671101e-07
    421    410   2   0.50000     0.0600000   -0.1200000   2.494471e-04  1.671101e-07
    421    423   2   0.50000     0.0600000    0.0600000   6.128906e-05  1.496315e-08
    421    424   2   0.50000     0.0600000    0.0600000   6.128906e-05  1.496315e-08
    422    410   2   0.50000     0.0600000   -0.1200000   2.494471e-04  1.671101e-07
    422    423   2   0.50000     0.0600000    0.0600000   6.128906e-05  1.496315e-08
    422    424   2   0.50000     0.0600000    0.0600000   6.128906e-05  1.496315e-08
    408    411   2   0.50000    -0.1200000    0.1900000   1.015252e-03  1.866303e-06
    408    425   2   0.50000    -0.1200000    0.0600000   2.494471e-04  1.671101e-07
    408    426   2   0.50000    -0.1200000    0.0600000   2.494471e-04  1.671101e-07
    423    411   2   0.50000     0.0600000    0.1900000   2.494471e-04  1.671101e-07
    423    425   2   0.50000     0.0600000    0.0600000   6.128906e-05  1.496315e-08
    423    426   2   0.50000     0.0600000    0.0600000   6.128906e-05  1.496315e-08
    424    411   2   0.50000     0.0600000    0.1900000   2.494471e-04  1.671101e-07
    424    425   2   0.50000     0.0600000    0.0600000   6.128906e-05  1.496315e-08
    424    426   2   0.50000     0.0600000    0.0600000   6.128906e-05  1.496315e-08
    409    412   2   0.50000    -0.1200000   -0.3300000   1.026091e-03  1.187829e-06
    409    427   2   0.50000    -0.1200000    0.0300000   1.599888e-04  9.721644e-08
    409    428   2   0.50000    -0.1200000    0.0300000   1.599888e-04  9.721644e-08
    425    412   2   0.50000     0.0600000   -0.3300000   2.521103e-04  1.063590e-07
    425    427   2   0.50000     0.0600000    0.0300000   3.930919e-05  8.704828e-09
    425    428   2   0.50000     0.0600000    0.0300000   3.930919e-05  8.704828e-09
    426    412   2   0.50000     0.0600000   -0.3300000   2.521103e-04  1.063590e-07
    426    427   2   0.50000     0.0600000    0.0300000   3.930919e-05  8.704828e-09
    426    428   2   0.50000     0.0600000    0.0300000   3.930919e-05  8.704828e-09
    410    413   2   0.50000    -0.1200000    0.5100000   1.575021e-03  3.561100e-06
    427    413   2   0.50000     0.0300000    0.5100000   2.482000e-04  1.854991e-07
    428    413   2   0.50000     0.0300000    0.5100000   2.482000e-04  1.854991e-07
    411    414   2   0.50000     0.1900000   -0.4300000   1.095425e-03  1.218041e-06
    411    415   2   0.50000     0.1900000    0.0000000   1.015252e-03  1.866303e-06
    412    390   2   0.50000    -0.3300000   -0.1200000   1.026091e-03  1.187829e-06
    412    416   2   0.50000    -0.3300000   -0.1800000   1.026091e-03  1.187829e-06
    412    417   2   0.50000    -0.3300000   -0.1200000   1.026091e-03  1.187829e-06
    414    390   2   0.50000    -0.4300000   -0.1200000   1.095425e-03  1.218041e-06
    414    416   2   0.50000    -0.4300000   -0.1800000   1.095425e-03  1.218041e-06
    414    417   2   0.50000    -0.4300000   -0.1200000   1.095425e-03  1.218041e-06
    390    429   2   0.50000    -0.1200000    0.0600000   2.494471e-04  1.671101e-07
    390    430   2   0.50000    -0.1200000    0.0600000   2.494471e-04  1.671101e-07
    390    431   2   0.50000    -0.1200000    0.0600000   2.494471e-04  1.671101e-07
    413    429   2   0.50000     0.5100000    0.0600000   3.869820e-04  3.188634e-07
    413    430   2   0.50000     0.5100000    0.0600000   3.869820e-04  3.188634e-07
    413    431   2   0.50000     0.5100000    0.0600000   3.869820e-04  3.188634e-07
    417    429   2   0.50000    -0.1200000    0.0600000   2.494471e-04  1.671101e-07
    417    430   2   0.50000    -0.1200000    0.0600000   2.494471e-04  1.671101e-07
    417    431   2   0.50000    -0.1200000    0.0600000   2.494471e-04  1.671101e-07
    390    432   2   0.50000    -0.1200000    0.0600000   2.494471e-04  1.671101e-07
    390    433   2   0.50000    -0.1200000    0.0600000   2.494471e-04  1.671101e-07
    390    442   2   0.50000    -0.1200000    0.0000000   1.015252e-03  1.866303e-06
    413    432   2   0.50000     0.5100000    0.0600000   3.869820e-04  3.188634e-07
    413    433   2   0.50000     0.5100000    0.0600000   3.869820e-04  3.188634e-07
    413    442   2   0.50000     0.5100000    0.0000000   1.575021e-03  3.561100e-06
    416    432   2   0.50000    -0.1800000    0.0600000   2.494471e-04  1.671101e-07
    416    433   2   0.50000    -0.1800000    0.0600000   2.494471e-04  1.671101e-07
    416    442   2   0.50000    -0.1800000    0.0000000   1.015252e-03  1.866303e-06
    415    440   2   0.50000     0.0000000    0.5100000   1.575021e-03  3.561100e-06
    415    443   2   0.50000     0.0000000   -0.1800000   1.015252e-03  1.866303e-06
    415    444   2   0.50000     0.0000000   -0.1200000   1.015252e-03  1.866303e-06
    432    440   2   0.50000     0.0600000    0.5100000   3.869820e-04  3.188634e-07
    432    443   2   0.50000     0.0600000   -0.1800000   2.494471e-04  1.671101e-07
    432    444   2   0.50000     0.0600000   -0.1200000   2.494471e-04  1.671101e-07
    433    440   2   0.50000     0.0600000    0.5100000   3.869820e-04  3.188634e-07
    433    443   2   0.50000     0.0600000   -0.1800000   2.494471e-04  1.671101e-07
    433    444   2   0.50000     0.0600000   -0.1200000   2.494471e-04  1.671101e-07
    445    436   2   0.50000     0.0600000   -0.1200000   2.494471e-04  1.671101e-07
    445    448   2   0.50000     0.0600000    0.0600000   6.128906e-05  1.496315e-08
    445    449   2   0.50000     0.0600000    0.0600000   6.128906e-05  1.496315e-08
    446    436   2   0.50000     0.0600000   -0.1200000   2.494471e-04  1.671101e-07
    446    448   2   0.50000     0.0600000    0.0600000   6.128906e-05  1.496315e-08
    446    449   2   0.50000     0.0600000    0.0600000   6.128906e-05  1.496315e-08
    447    436   2   0.50000     0.0600000   -0.1200000   2.494471e-04  1.671101e-07
    447    448   2   0.50000     0.0600000    0.0600000   6.128906e-05  1.496315e-08
    447    449   2   0.50000     0.0600000    0.0600000   6.128906e-05  1.496315e-08
    434    437   2   0.50000    -0.1800000   -0.1200000   1.015252e-03  1.866303e-06
    434    450   2   0.50000    -0.1800000    0.0600000   2.494471e-04  1.671101e-07
    434    451   2   0.50000    -0.1800000    0.0600000   2.494471e-04  1.671101e-07
    448    437   2   0.50000     0.0600000   -0.1200000   2.494471e-04  1.671101e-07
    448    450   2   0.50000     0.0600000    0.0600000   6.128906e-05  1.496315e-08
    448    451   2   0.50000     0.0600000    0.0600000   6.128906e-05  1.496315e-08
    449    437   2   0.50000     0.0600000   -0.1200000   2.494471e-04  1.671101e-07
    449    450   2   0.50000     0.0600000    0.0600000   6.128906e-05  1.496315e-08
    449    451   2   0.50000     0.0600000    0.0600000   6.128906e-05  1.496315e-08
    435    438   2   0.50000    -0.1200000    0.1900000   1.015252e-03  1.866303e-06
    435    452   2   0.50000    -0.1200000    0.0600000   2.494471e-04  1.671101e-07
    435    453   2   0.50000    -0.1200000    0.0600000   2.494471e-04  1.671101e-07
    450    438   2   0.50000     0.0600000    0.1900000   2.494471e-04  1.671101e-07
    450    452   2   0.50000     0.0600000    0.0600000   6.128906e-05  1.496315e-08
    450    453   2   0.50000     0.0600000    0.0600000   6.128906e-05  1.496315e-08
    451    438   2   0.50000     0.0600000    0.1900000   2.494471e-04  1.671101e-07
    451    452   2   0.50000     0.0600000    0.0600000   6.128906e-05  1.496315e-08
    451    453   2   0.50000     0.0600000    0.0600000   6.128906e-05  1.496315e-08
    436    439   2   0.50000    -0.1200000   -0.3300000   1.026091e-03  1.187829e-06
    436    454   2   0.50000    -0.1200000    0.0300000   1.599888e-04  9.721644e-08
    436    455   2   0.50000    -0.1200000    0.0300000   1.599888e-04  9.721644e-08
    452    439   2   0.50000     0.0600000   -0.3300000   2.521103e-04  1.063590e-07
    452    454   2   0.50000     0.0600000    0.0300000   3.930919e-05  8.704828e-09
    452    455   2   0.50000     0.0600000    0.0300000   3.930919e-05  8.704828e-09
    453    439   2   0.50000     0.0600000   -0.3300000   2.521103e-04  1.063590e-07
    453    454   2   0.50000     0.0600000    0.0300000   3.930919e-05  8.704828e-09
    453    455   2   0.50000     0.0600000    0.0300000   3.930919e-05  8.704828e-09
    437    440   2   0.50000    -0.1200000    0.5100000   1.575021e-03  3.561100e-06
    454    440   2   0.50000     0.0300000    0.5100000   2.482000e-04  1.854991e-07
    455    440   2   0.50000     0.0300000    0.5100000   2.482000e-04  1.854991e-07
    438    441   2   0.50000     0.1900000   -0.4300000   1.095425e-03  1.218041e-06
    438    442   2   0.50000     0.1900000    0.0000000   1.015252e-03  1.866303e-06
    439    417   2   0.50000    -0.3300000   -0.1200000   1.026091e-03  1.187829e-06
    439    443   2   0.50000    -0.3300000   -0.1800000   1.026091e-03  1.187829e-06
    439    444   2   0.50000    -0.3300000   -0.1200000   1.026091e-03  1.187829e-06
    441    417   2   0.50000    -0.4300000   -0.1200000   1.095425e-03  1.218041e-06
    441    443   2   0.50000    -0.4300000   -0.1800000   1.095425e-03  1.218041e-06
    441    444   2   0.50000    -0.4300000   -0.1200000   1.095425e-03  1.218041e-06
    417    456   2   0.50000    -0.1200000    0.0600000   2.494471e-04  1.671101e-07
    417    457   2   0.50000    -0.1200000    0.0600000   2.494471e-04  1.671101e-07
    417    458   2   0.50000    -0.1200000    0.0600000   2.494471e-04  1.671101e-07
    440    456   2   0.50000     0.5100000    0.0600000   3.869820e-04  3.188634e-07
    440    457   2   0.50000     0.5100000    0.0600000   3.869820e-04  3.188634e-07
    440    458   2   0.50000     0.5100000    0.0600000   3.869820e-04  3.188634e-07
    444    456   2   0.50000    -0.1200000    0.0600000   2.494471e-04  1.671101e-07
    444    457   2   0.50000    -0.1200000    0.0600000   2.494471e-04  1.671101e-07
    444    458   2   0.50000    -0.1200000    0.0600000   2.494471e-04  1.671101e-07
    417    459   2   0.50000    -0.1200000    0.0600000   2.494471e-04  1.671101e-07
    417    460   2   0.50000    -0.1200000    0.0600000   2.494471e-04  1.671101e-07
    417    469   2   0.50000    -0.1200000    0.0000000   1.015252e-03  1.866303e-06
    440    459   2   0.50000     0.5100000    0.0600000   3.869820e-04  3.188634e-07
    440    460   2   0.50000     0.5100000    0.0600000   3.869820e-04  3.188634e-07
    440    469   2   0.50000     0.5100000    0.0000000   1.575021e-03  3.561100e-06
    443    459   2   0.50000    -0.1800000    0.0600000   2.494471e-04  1.671101e-07
    443    460   2   0.50000    -0.1800000    0.0600000   2.494471e-04  1.671101e-07
    443    469   2   0.50000    -0.1800000    0.0000000   1.015252e-03  1.866303e-06
    442    467   2   0.50000     0.0000000    0.5100000   1.575021e-03  3.561100e-06
    442    470   2   0.50000     0.0000000   -0.1800000   1.015252e-03  1.866303e-06
    442    471   2   0.50000     0.0000000   -0.1200000   1.015252e-03  1.866303e-06
    459    467   2   0.50000     0.0600000    0.5100000   3.869820e-04  3.188634e-07
    459    470   2   0.50000     0.0600000   -0.1800000   2.494471e-04  1.671101e-07
    459    471   2   0.50000     0.0600000   -0.1200000   2.494471e-04  1.671101e-07
    460    467   2   0.50000     0.0600000    0.5100000   3.869820e-04  3.188634e-07
    460    470   2   0.50000     0.0600000   -0.1800000   2.494471e-04  1.671101e-07
    460    471   2   0.50000     0.0600000   -0.1200000   2.494471e-04  1.671101e-07
    472    463   2   0.50000     0.0600000   -0.1200000   2.494471e-04  1.671101e-07
    472    475   2   0.50000     0.0600000    0.0600000   6.128906e-05  1.496315e-08
    472    476   2   0.50000     0.0600000    0.0600000   6.128906e-05  1.496315e-08
    473    463   2   0.50000     0.0600000   -0.1200000   2.494471e-04  1.671101e-07
    473    475   2   0.50000     0.0600000    0.0600000   6.128906e-05  1.496315e-08
    473    476   2   0.50000     0.0600000    0.0600000   6.128906e-05  1.496315e-08
    474    463   2   0.50000     0.0600000   -0.1200000   2.494471e-04  1.671101e-07
    474    475   2   0.50000     0.0600000    0.0600000   6.128906e-05  1.496315e-08
    474    476   2   0.50000     0.0600000    0.0600000   6.128906e-05  1.496315e-08
    461    464   2   0.50000    -0.1800000   -0.1200000   1.015252e-03  1.866303e-06
    461    477   2   0.50000    -0.1800000    0.0600000   2.494471e-04  1.671101e-07
    461    478   2   0.50000    -0.1800000    0.0600000   2.494471e-04  1.671101e-07
    475    464   2   0.50000     0.0600000   -0.1200000   2.494471e-04  1.671101e-07
    475    477   2   0.50000     0.0600000    0.0600000   6.128906e-05  1.496315e-08
    475    478   2   0.50000     0.0600000    0.0600000   6.128906e-05  1.496315e-08
    476    464   2   0.50000     0.0600000   -0.1200000   2.494471e-04  1.671101e-07
    476    477   2   0.50000     0.0600000    0.0600000   6.128906e-05  1.496315e-08
    476    478   2   0.50000     0.0600000    0.0600000   6.128906e-05  1.496315e-08
    462    465   2   0.50000    -0.1200000    0.1900000   1.015252e-03  1.866303e-06
    462    479   2   0.50000    -0.1200000    0.0600000   2.494471e-04  1.671101e-07
    462    480   2   0.50000    -0.1200000    0.0600000   2.494471e-04  1.671101e-07
    477    465   2   0.50000     0.0600000    0.1900000   2.494471e-04  1.671101e-07
    477    479   2   0.50000     0.0600000    0.0600000   6.128906e-05  1.496315e-08
    477    480   2   0.50000     0.0600000    0.0600000   6.128906e-05  1.496315e-08
    478    465   2   0.50000     0.0600000    0.1900000   2.494471e-04  1.671101e-07
    478    479   2   0.50000     0.0600000    0.0600000   6.128906e-05  1.496315e-08
    478    480   2   0.50000     0.0600000    0.0600000   6.128906e-05  1.496315e-08
    463    466   2   0.50000    -0.1200000   -0.3300000   1.026091e-03  1.187829e-06
    463    481   2   0.50000    -0.1200000    0.0300000   1.599888e-04  9.721644e-08
    463    482   2   0.50000    -0.1200000    0.0300000   1.599888e-04  9.721644e-08
    479    466   2   0.50000     0.0600000   -0.3300000   2.521103e-04  1.063590e-07
    479    481   2   0.50000     0.0600000    0.0300000   3.930919e-05  8.704828e-09
    479    482   2   0.50000     0.0600000    0.0300000   3.930919e-05  8.704828e-09
    480    466   2   0.50000     0.0600000   -0.3300000   2.521103e-04  1.063590e-07
    480    481   2   0.50000     0.0600000    0.0300000   3.930919e-05  8.704828e-09
    480    482   2   0.50000     0.0600000    0.0300000   3.930919e-05  8.704828e-09
    464    467   2   0.50000    -0.1200000    0.5100000   1.575021e-03  3.561100e-06
    481    467   2   0.50000     0.0300000    0.5100000   2.482000e-04  1.854991e-07
    482    467   2   0.50000     0.0300000    0.5100000   2.482000e-04  1.854991e-07
    465    468   2   0.50000     0.1900000   -0.4300000   1.095425e-03  1.218041e-06
    465    469   2   0.50000     0.1900000    0.0000000   1.015252e-03  1.866303e-06
    466    444   2   0.50000    -0.3300000   -0.1200000   1.026091e-03  1.187829e-06
    466    470   2   0.50000    -0.3300000   -0.1800000   1.026091e-03  1.187829e-06
    466    471   2   0.50000    -0.3300000   -0.1200000   1.026091e-03  1.187829e-06
    468    444   2   0.50000    -0.4300000   -0.1200000   1.095425e-03  1.218041e-06
    468    470   2   0.50000    -0.4300000   -0.1800000   1.095425e-03  1.218041e-06
    468    471   2   0.50000    -0.4300000   -0.1200000   1.095425e-03  1.218041e-06
    444    483   2   0.50000    -0.1200000    0.0600000   2.494471e-04  1.671101e-07
    444    484   2   0.50000    -0.1200000    0.0600000   2.494471e-04  1.671101e-07
    444    485   2   0.50000    -0.1200000    0.0600000   2.494471e-04  1.671101e-07
    467    483   2   0.50000     0.5100000    0.0600000   3.869820e-04  3.188634e-07
    467    484   2   0.50000     0.5100000    0.0600000   3.869820e-04  3.188634e-07
    467    485   2   0.50000     0.5100000    0.0600000   3.869820e-04  3.188634e-07
    471    483   2   0.50000    -0.1200000    0.0600000   2.494471e-04  1.671101e-07
    471    484   2   0.50000    -0.1200000    0.0600000   2.494471e-04  1.671101e-07
    471    485   2   0.50000    -0.1200000    0.0600000   2.494471e-04  1.671101e-07
    444    486   2   0.50000    -0.1200000    0.0600000   2.494471e-04  1.671101e-07
    444    487   2   0.50000    -0.1200000    0.0600000   2.494471e-04  1.671101e-07
    444    496   2   0.50000    -0.1200000    0.0000000   1.015252e-03  1.866303e-06
    467    486   2   0.50000     0.5100000    0.0600000   3.869820e-04  3.188634e-07
    467    487   2   0.50000     0.5100000    0.0600000   3.869820e-04  3.188634e-07
    467    496   2   0.50000     0.5100000    0.0000000   1.575021e-03  3.561100e-06
    470    486   2   0.50000    -0.1800000    0.0600000   2.494471e-04  1.671101e-07
    470    487   2   0.50000    -0.1800000    0.0600000   2.494471e-04  1.671101e-07
    470    496   2   0.50000    -0.1800000    0.0000000   1.015252e-03  1.866303e-06
    469    494   2   0.50000     0.0000000    0.5100000   1.575021e-03  3.561100e-06
    469    497   2   0.50000     0.0000000   -0.1800000   1.015252e-03  1.866303e-06
    469    498   2   0.50000     0.0000000   -0.1200000   1.015252e-03  1.866303e-06
    486    494   2   0.50000     0.0600000    0.5100000   3.869820e-04  3.188634e-07
    486    497   2   0.50000     0.0600000   -0.1800000   2.494471e-04  1.671101e-07
    486    498   2   0.50000     0.0600000   -0.1200000   2.494471e-04  1.671101e-07
    487    494   2   0.50000     0.0600000    0.5100000   3.869820e-04  3.188634e-07
    487    497   2   0.50000     0.0600000   -0.1800000   2.494471e-04  1.671101e-07
    487    498   2   0.50000     0.0600000   -0.1200000   2.494471e-04  1.671101e-07
    499    490   2   0.50000     0.0600000   -0.1200000   2.494471e-04  1.671101e-07
    499    502   2   0.50000     0.0600000    0.0600000   6.128906e-05  1.496315e-08
    499    503   2   0.50000     0.0600000    0.0600000   6.128906e-05  1.496315e-08
    500    490   2   0.50000     0.0600000   -0.1200000   2.494471e-04  1.671101e-07
    500    502   2   0.50000     0.0600000    0.0600000   6.128906e-05  1.496315e-08
    500    503   2   0.50000     0.0600000    0.0600000   6.128906e-05  1.496315e-08
    501    490   2   0.50000     0.0600000   -0.1200000   2.494471e-04  1.671101e-07
    501    502   2   0.50000     0.0600000    0.0600000   6.128906e-05  1.496315e-08
    501    503   2   0.50000     0.0600000    0.0600000   6.128906e-05  1.496315e-08
    488    491   2   0.50000    -0.1800000   -0.1200000   1.015252e-03  1.866303e-06
    488    504   2   0.50000    -0.1800000    0.0600000   2.494471e-04  1.671101e-07
    488    505   2   0.50000    -0.1800000    0.0600000   2.494471e-04  1.671101e-07
    502    491   2   0.50000     0.0600000   -0.1200000   2.494471e-04  1.671101e-07
    502    504   2   0.50000     0.0600000    0.0600000   6.128906e-05  1.496315e-08
    502    505   2   0.50000     0.0600000    0.0600000   6.128906e-05  1.496315e-08
    503    491   2   0.50000     0.0600000   -0.1200000   2.494471e-04  1.671101e-07
    503    504   2   0.50000     0.0600000    0.0600000   6.128906e-05  1.496315e-08
    503    505   2   0.50000     0.0600000    0.0600000   6.128906e-05  1.496315e-08
    489    492   2   0.50000    -0.1200000    0.1900000   1.015252e-03  1.866303e-06
    489    506   2   0.50000    -0.1200000    0.0600000   2.494471e-04  1.671101e-07
    489    507   2   0.50000    -0.1200000    0.0600000   2.494471e-04  1.671101e-07
    504    492   2   0.50000     0.0600000    0.1900000   2.494471e-04  1.671101e-07
    504    506   2   0.50000     0.0600000    0.0600000   6.128906e-05  1.496315e-08
    504    507   2   0.50000     0.0600000    0.0600000   6.128906e-05  1.496315e-08
    505    492   2   0.50000     0.0600000    0.1900000   2.494471e-04  1.671101e-07
    505    506   2   0.50000     0.0600000    0.0600000   6.128906e-05  1.496315e-08
    505    507   2   0.50000     0.0600000    0.0600000   6.128906e-05  1.496315e-08
    490    493   2   0.50000    -0.1200000   -0.3300000   1.026091e-03  1.187829e-06
    490    508   2   0.50000    -0.1200000    0.0300000   1.599888e-04  9.721644e-08
    490    509   2   0.50000    -0.1200000    0.0300000   1.599888e-04  9.721644e-08
    506    493   2   0.50000     0.0600000   -0.3300000   2.521103e-04  1.063590e-07
    506    508   2   0.50000     0.0600000    0.0300000   3.930919e-05  8.704828e-09
    506    509   2   0.50000     0.0600000    0.0300000   3.930919e-05  8.704828e-09
    507    493   2   0.50000     0.0600000   -0.3300000   2.521103e-04  1.063590e-07
    507    508   2   0.50000     0.0600000    0.0300000   3.930919e-05  8.704828e-09
    507    509   2   0.50000     0.0600000    0.0300000   3.930919e-05  8.704828e-09
    491    494   2   0.50000    -0.1200000    0.5100000   1.575021e-03  3.561100e-06
    508    494   2   0.50000     0.0300000    0.5100000   2.482000e-04  1.854991e-07
    509    494   2   0.50000     0.0300000    0.5100000   2.482000e-04  1.854991e-07
    492    495   2   0.50000     0.1900000   -0.4300000   1.095425e-03  1.218041e-06
    492    496   2   0.50000     0.1900000    0.0000000   1.015252e-03  1.866303e-06
    493    471   2   0.50000    -0.3300000   -0.1200000   1.026091e-03  1.187829e-06
    493    497   2   0.50000    -0.3300000   -0.1800000   1.026091e-03  1.187829e-06
    493    498   2   0.50000    -0.3300000   -0.1200000   1.026091e-03  1.187829e-06
    495    471   2   0.50000    -0.4300000   -0.1200000   1.095425e-03  1.218041e-06
    495    497   2   0.50000    -0.4300000   -0.1800000   1.095425e-03  1.218041e-06
    495    498   2   0.50000    -0.4300000   -0.1200000   1.095425e-03  1.218041e-06
    471    510   2   0.50000    -0.1200000    0.0600000   2.494471e-04  1.671101e-07
    471    511   2   0.50000    -0.1200000    0.0600000   2.494471e-04  1.671101e-07
    471    512   2   0.50000    -0.1200000    0.0600000   2.494471e-04  1.671101e-07
    494    510   2   0.50000     0.5100000    0.0600000   3.869820e-04  3.188634e-07
    494    511   2   0.50000     0.5100000    0.0600000   3.869820e-04  3.188634e-07
    494    512   2   0.50000     0.5100000    0.0600000   3.869820e-04  3.188634e-07
    498    510   2   0.50000    -0.1200000    0.0600000   2.494471e-04  1.671101e-07
    498    511   2   0.50000    -0.1200000    0.0600000   2.494471e-04  1.671101e-07
    498    512   2   0.50000    -0.1200000    0.0600000   2.494471e-04  1.671101e-07
    471    513   2   0.50000    -0.1200000    0.0600000   2.494471e-04  1.671101e-07
    471    514   2   0.50000    -0.1200000    0.0600000   2.494471e-04  1.671101e-07
    471    523   2   0.50000    -0.1200000    0.0000000   1.015252e-03  1.866303e-06
    494    513   2   0.50000     0.5100000    0.0600000   3.869820e-04  3.188634e-07
    494    514   2   0.50000     0.5100000    0.0600000   3.869820e-04  3.188634e-07
    494    523   2   0.50000     0.5100000    0.0000000   1.575021e-03  3.561100e-06
    497    513   2   0.50000    -0.1800000    0.0600000   2.494471e-04  1.671101e-07
    497    514   2   0.50000    -0.1800000    0.0600000   2.494471e-04  1.671101e-07
    497    523   2   0.50000    -0.1800000    0.0000000   1.015252e-03  1.866303e-06
    496    521   2   0.50000     0.0000000    0.5100000   1.575021e-03  3.561100e-06
    496    524   2   0.50000     0.0000000   -0.1800000   1.015252e-03  1.866303e-06
    496    525   2   0.50000     0.0000000   -0.1800000   1.015252e-03  1.866303e-06
    513    521   2   0.50000     0.0600000    0.5100000   3.869820e-04  3.188634e-07
    513    524   2   0.50000     0.0600000   -0.1800000   2.494471e-04  1.671101e-07
    513    525   2   0.50000     0.0600000   -0.1800000   2.494471e-04  1.671101e-07
    514    521   2   0.50000     0.0600000    0.5100000   3.869820e-04  3.188634e-07
    514    524   2   0.50000     0.0600000   -0.1800000   2.494471e-04  1.671101e-07
    514    525   2   0.50000     0.0600000   -0.1800000   2.494471e-04  1.671101e-07
    526    517   2   0.50000     0.0600000   -0.1200000   2.494471e-04  1.671101e-07
    526    529   2   0.50000     0.0600000    0.0600000   6.128906e-05  1.496315e-08
    526    530   2   0.50000     0.0600000    0.0600000   6.128906e-05  1.496315e-08
    527    517   2   0.50000     0.0600000   -0.1200000   2.494471e-04  1.671101e-07
    527    529   2   0.50000     0.0600000    0.0600000   6.128906e-05  1.496315e-08
    527    530   2   0.50000     0.0600000    0.0600000   6.128906e-05  1.496315e-08
    528    517   2   0.50000     0.0600000   -0.1200000   2.494471e-04  1.671101e-07
    528    529   2   0.50000     0.0600000    0.0600000   6.128906e-05  1.496315e-08
    528    530   2   0.50000     0.0600000    0.0600000   6.128906e-05  1.496315e-08
    515    518   2   0.50000    -0.1800000   -0.1200000   1.015252e-03  1.866303e-06
    515    531   2   0.50000    -0.1800000    0.0600000   2.494471e-04  1.671101e-07
    515    532   2   0.50000    -0.1800000    0.0600000   2.494471e-04  1.671101e-07
    529    518   2   0.50000     0.0600000   -0.1200000   2.494471e-04  1.671101e-07
    529    531   2   0.50000     0.0600000    0.0600000   6.128906e-05  1.496315e-08
    529    532   2   0.50000     0.0600000    0.0600000   6.128906e-05  1.496315e-08
    530    518   2   0.50000     0.0600000   -0.1200000   2.494471e-04  1.671101e-07
    530    531   2   0.50000     0.0600000    0.0600000   6.128906e-05  1.496315e-08
    530    532   2   0.50000     0.0600000    0.0600000   6.128906e-05  1.496315e-08
    516    519   2   0.50000    -0.1200000    0.1900000   1.015252e-03  1.866303e-06
    516    533   2   0.50000    -0.1200000    0.0600000   2.494471e-04  1.671101e-07
    516    534   2   0.50000    -0.1200000    0.0600000   2.494471e-04  1.671101e-07
    531    519   2   0.50000     0.0600000    0.1900000   2.494471e-04  1.671101e-07
    531    533   2   0.50000     0.0600000    0.0600000   6.128906e-05  1.496315e-08
    531    534   2   0.50000     0.0600000    0.0600000   6.128906e-05  1.496315e-08
    532    519   2   0.50000     0.0600000    0.1900000   2.494471e-04  1.671101e-07
    532    533   2   0.50000     0.0600000    0.0600000   6.128906e-05  1.496315e-08
    532    534   2   0.50000     0.0600000    0.0600000   6.128906e-05  1.496315e-08
    517    520   2   0.50000    -0.1200000   -0.3300000   1.026091e-03  1.187829e-06
    517    535   2   0.50000    -0.1200000    0.0300000   1.599888e-04  9.721644e-08
    517    536   2   0.50000    -0.1200000    0.0300000   1.599888e-04  9.721644e-08
    533    520   2   0.50000     0.0600000   -0.3300000   2.521103e-04  1.063590e-07
    533    535   2   0.50000     0.0600000    0.0300000   3.930919e-05  8.704828e-09
    533    536   2   0.50000     0.0600000    0.0300000   3.930919e-05  8.704828e-09
    534    520   2   0.50000     0.0600000   -0.3300000   2.521103e-04  1.063590e-07
    534    535   2   0.50000     0.0600000    0.0300000   3.930919e-05  8.704828e-09
    534    536   2   0.50000     0.0600000    0.0300000   3.930919e-05  8.704828e-09
    518    521   2   0.50000    -0.1200000    0.5100000   1.575021e-03  3.561100e-06
    535    521   2   0.50000     0.0300000    0.5100000   2.482000e-04  1.854991e-07
    536    521   2   0.50000     0.0300000    0.5100000   2.482000e-04  1.854991e-07
    519    522   2   0.50000     0.1900000   -0.4300000   1.095425e-03  1.218041e-06
    519    523   2   0.50000     0.1900000    0.0000000   1.015252e-03  1.866303e-06
    520    498   2   0.50000    -0.3300000   -0.1200000   1.026091e-03  1.187829e-06
    520    524   2   0.50000    -0.3300000   -0.1800000   1.026091e-03  1.187829e-06
    520    525   2   0.50000    -0.3300000   -0.1800000   1.026091e-03  1.187829e-06
    522    498   2   0.50000    -0.4300000   -0.1200000   1.095425e-03  1.218041e-06
    522    524   2   0.50000    -0.4300000   -0.1800000   1.095425e-03  1.218041e-06
    522    525   2   0.50000    -0.4300000   -0.1800000   1.095425e-03  1.218041e-06
    498    537   2   0.50000    -0.1200000    0.0600000   2.494471e-04  1.671101e-07
    498    538   2   0.50000    -0.1200000    0.0600000   2.494471e-04  1.671101e-07
    498    539   2   0.50000    -0.1200000    0.0600000   2.494471e-04  1.671101e-07
    521    537   2   0.50000     0.5100000    0.0600000   3.869820e-04  3.188634e-07
    521    538   2   0.50000     0.5100000    0.0600000   3.869820e-04  3.188634e-07
    521    539   2   0.50000     0.5100000    0.0600000   3.869820e-04  3.188634e-07
    525    537   2   0.50000    -0.1800000    0.0600000   2.494471e-04  1.671101e-07
    525    538   2   0.50000    -0.1800000    0.0600000   2.494471e-04  1.671101e-07
    525    539   2   0.50000    -0.1800000    0.0600000   2.494471e-04  1.671101e-07
    498    540   2   0.50000    -0.1200000    0.0600000   2.494471e-04  1.671101e-07
    498    541   2   0.50000    -0.1200000    0.0600000   2.494471e-04  1.671101e-07
    498    542   2   0.50000    -0.1200000    0.0600000   2.494471e-04  1.671101e-07
    521    540   2   0.50000     0.5100000    0.0600000   3.869820e-04  3.188634e-07
    521    541   2   0.50000     0.5100000    0.0600000   3.869820e-04  3.188634e-07
    521    542   2   0.50000     0.5100000    0.0600000   3.869820e-04  3.188634e-07
    524    540   2   0.50000    -0.1800000    0.0600000   2.494471e-04  1.671101e-07
    524    541   2   0.50000    -0.1800000    0.0600000   2.494471e-04  1.671101e-07
    524    542   2   0.50000    -0.1800000    0.0600000   2.494471e-04  1.671101e-07

[ angles ]
; ai  aj  ak
      2      1     12   1    110.7000    313.8000
      2      1     13   1    110.7000    313.8000
      2      1     14   1    110.7000    313.8000
     12      1     13   1    107.8000    276.1440
     12      1     14   1    107.8000    276.1440
     13      1     14   1    107.8000    276.1440
      1      2      3   1    112.7000    488.2728
      1      2     15   1    110.7000    313.8000
      1      2     16   1    110.7000    313.8000
      3      2     15   1    110.7000    313.8000
      3      2     16   1    110.7000    313.8000
     15      2     16   1    107.8000    276.1440
      2      3      4   1    112.7000    488.2728
      2      3     17   1    110.7000    313.8000
      2      3     18   1    110.7000    313.8000
      4      3     17   1    110.7000    313.8000
      4      3     18   1    110.7000    313.8000
     17      3     18   1    107.8000    276.1440
      3      4      5   1    112.7000    488.2728
      3      4     19   1    110.7000    313.8000
      3      4     20   1    110.7000    313.8000
      5      4     19   1    110.7000    313.8000
      5      4     20   1    110.7000    313.8000
     19      4     20   1    107.8000    276.1440
      4      5      6   1    109.5000    418.4000
      4      5     21   1    110.7000    313.8000
      4      5     22   1    110.7000    313.8000
      6      5     21   1    109.5000    292.8800
      6      5     22   1    109.5000    292.8800
     21      5     22   1    107.8000    276.1440
      5      6      7   1    116.9000    694.5440
      6      7      8   1    123.4000    694.5440
      6      7      9   1    111.4000    677.8080
      8      7      9   1    120.4000    669.4400
      7      9     10   1    111.1000    527.1840
      7      9     11   1    111.1000    527.1840
      7      9     28   1    109.5000    292.8800
     10      9     11   1    112.7000    488.2728
     10      9     28   1    110.7000    313.8000
     11      9     28   1    110.7000    313.8000
      9     10     23   1    110.7000    313.8000
      9     10     24   1    110.7000    313.8000
      9     10     25   1    110.7000    313.8000
     23     10     24   1    107.8000    276.1440
     23     10     25   1    107.8000    276.1440
     24     10     25   1    107.8000    276.1440
      9     11     26   1    110.7000    313.8000
      9     11     27   1    110.7000    313.8000
      9     11     37   1    112.7000    488.2728
     26     11     27   1    107.8000    276.1440
     26     11     37   1    110.7000    313.8000
     27     11     37   1    110.7000    313.8000
     30     29     40   1    110.7000    313.8000
     30     29     41   1    110.7000    313.8000
     30     29     42   1    110.7000    313.8000
     40     29     41   1    107.8000    276.1440
     40     29     42   1    107.8000    276.1440
     41     29     42   1    107.8000    276.1440
     29     30     31   1    112.7000    488.2728
     29     30     43   1    110.7000    313.8000
     29     30     44   1    110.7000    313.8000
     31     30     43   1    110.7000    313.8000
     31     30     44   1    110.7000    313.8000
     43     30     44   1    107.8000    276.1440
     30     31     32   1    112.7000    488.2728
     30     31     45   1    110.7000    313.8000
     30     31     46   1    110.7000    313.8000
     32     31     45   1    110.7000    313.8000
     32     31     46   1    110.7000    313.8000
     45     31     46   1    107.8000    276.1440
     31     32     33   1    112.7000    488.2728
     31     32     47   1    110.7000    313.8000
     31     32     48   1    110.7000    313.8000
     33     32     47   1    110.7000    313.8000
     33     32     48   1    110.7000    313.8000
     47     32     48   1    107.8000    276.1440
     32     33     34   1    109.5000    418.4000
     32     33     49   1    110.7000    313.8000
     32     33     50   1    110.7000    313.8000
     34     33     49   1    109.5000    292.8800
     34     33     50   1    109.5000    292.8800
     49     33     50   1    107.8000    276.1440
     33     34     35   1    116.9000    694.5440
     34     35     36   1    123.4000    694.5440
     34     35     37   1    111.4000    677.8080
     36     35     37   1    120.4000    669.4400
     11     37     35   1    111.1000    527.1840
     11     37     38   1    112.7000    488.2728
     11     37     39   1    112.7000    488.2728
     35     37     38   1    111.1000    527.1840
     35     37     39   1    111.1000    527.1840
     38     37     39   1    112.7000    488.2728
     37     38     51   1    110.7000    313.8000
     37     38     52   1    110.7000    313.8000
     37     38     53   1    110.7000    313.8000
     51     38     52   1    107.8000    276.1440
     51     38     53   1    107.8000    276.1440
     52     38     53   1    107.8000    276.1440
     37     39     54   1    110.7000    313.8000
     37     39     55   1    110.7000    313.8000
     37     39     64   1    112.7000    488.2728
     54     39     55   1    107.8000    276.1440
     54     39     64   1    110.7000    313.8000
     55     39     64   1    110.7000    313.8000
     57     56     67   1    110.7000    313.8000
     57     56     68   1    110.7000    313.8000
     57     56     69   1    110.7000    313.8000
     67     56     68   1    107.8000    276.1440
     67     56     69   1    107.8000    276.1440
     68     56     69   1    107.8000    276.1440
     56     57     58   1    112.7000    488.2728
     56     57     70   1    110.7000    313.8000
     56     57     71   1    110.7000    313.8000
     58     57     70   1    110.7000    313.8000
     58     57     71   1    110.7000    313.8000
     70     57     71   1    107.8000    276.1440
     57     58     59   1    112.7000    488.2728
     57     58     72   1    110.7000    313.8000
     57     58     73   1    110.7000    313.8000
     59     58     72   1    110.7000    313.8000
     59     58     73   1    110.7000    313.8000
     72     58     73   1    107.8000    276.1440
     58     59     60   1    112.7000    488.2728
     58     59     74   1    110.7000    313.8000
     58     59     75   1    110.7000    313.8000
     60     59     74   1    110.7000    313.8000
     60     59     75   1    110.7000    313.8000
     74     59     75   1    107.8000    276.1440
     59     60     61   1    109.5000    418.4000
     59     60     76   1    110.7000    313.8000
     59     60     77   1    110.7000    313.8000
     61     60     76   1    109.5000    292.8800
     61     60     77   1    109.5000    292.8800
     76     60     77   1    107.8000    276.1440
     60     61     62   1    116.9000    694.5440
     61     62     63   1    123.4000    694.5440
     61     62     64   1    111.4000    677.8080
     63     62     64   1    120.4000    669.4400
     39     64     62   1    111.1000    527.1840
     39     64     65   1    112.7000    488.2728
     39     64     66   1    112.7000    488.2728
     62     64     65   1    111.1000    527.1840
     62     64     66   1    111.1000    527.1840
     65     64     66   1    112.7000    488.2728
     64     65     78   1    110.7000    313.8000
     64     65     79   1    110.7000    313.8000
     64     65     80   1    110.7000    313.8000
     78     65     79   1    107.8000    276.1440
     78     65     80   1    107.8000    276.1440
     79     65     80   1    107.8000    276.1440
     64     66     81   1    110.7000    313.8000
     64     66     82   1    110.7000    313.8000
     64     66     91   1    112.7000    488.2728
     81     66     82   1    107.8000    276.1440
     81     66     91   1    110.7000    313.8000
     82     66     91   1    110.7000    313.8000
     84     83     94   1    110.7000    313.8000
     84     83     95   1    110.7000    313.8000
     84     83     96   1    110.7000    313.8000
     94     83     95   1    107.8000    276.1440
     94     83     96   1    107.8000    276.1440
     95     83     96   1    107.8000    276.1440
     83     84     85   1    112.7000    488.2728
     83     84     97   1    110.7000    313.8000
     83     84     98   1    110.7000    313.8000
     85     84     97   1    110.7000    313.8000
     85     84     98   1    110.7000    313.8000
     97     84     98   1    107.8000    276.1440
     84     85     86   1    112.7000    488.2728
     84     85     99   1    110.7000    313.8000
     84     85    100   1    110.7000    313.8000
     86     85     99   1    110.7000    313.8000
     86     85    100   1    110.7000    313.8000
     99     85    100   1    107.8000    276.1440
     85     86     87   1    112.7000    488.2728
     85     86    101   1    110.7000    313.8000
     85     86    102   1    110.7000    313.8000
     87     86    101   1    110.7000    313.8000
     87     86    102   1    110.7000    313.8000
    101     86    102   1    107.8000    276.1440
     86     87     88   1    109.5000    418.4000
     86     87    103   1    110.7000    313.8000
     86     87    104   1    110.7000    313.8000
     88     87    103   1    109.5000    292.8800
     88     87    104   1    109.5000    292.8800
    103     87    104   1    107.8000    276.1440
     87     88     89   1    116.9000    694.5440
     88     89     90   1    123.4000    694.5440
     88     89     91   1    111.4000    677.8080
     90     89     91   1    120.4000    669.4400
     66     91     89   1    111.1000    527.1840
     66     91     92   1    112.7000    488.2728
     66     91     93   1    112.7000    488.2728
     89     91     92   1    111.1000    527.1840
     89     91     93   1    111.1000    527.1840
     92     91     93   1    112.7000    488.2728
     91     92    105   1    110.7000    313.8000
     91     92    106   1    110.7000    313.8000
     91     92    107   1    110.7000    313.8000
    105     92    106   1    107.8000    276.1440
    105     92    107   1    107.8000    276.1440
    106     92    107   1    107.8000    276.1440
     91     93    108   1    110.7000    313.8000
     91     93    109   1    110.7000    313.8000
     91     93    118   1    112.7000    488.2728
    108     93    109   1    107.8000    276.1440
    108     93    118   1    110.7000    313.8000
    109     93    118   1    110.7000    313.8000
    111    110    121   1    110.7000    313.8000
    111    110    122   1    110.7000    313.8000
    111    110    123   1    110.7000    313.8000
    121    110    122   1    107.8000    276.1440
    121    110    123   1    107.8000    276.1440
    122    110    123   1    107.8000    276.1440
    110    111    112   1    112.7000    488.2728
    110    111    124   1    110.7000    313.8000
    110    111    125   1    110.7000    313.8000
    112    111    124   1    110.7000    313.8000
    112    111    125   1    110.7000    313.8000
    124    111    125   1    107.8000    276.1440
    111    112    113   1    112.7000    488.2728
    111    112    126   1    110.7000    313.8000
    111    112    127   1    110.7000    313.8000
    113    112    126   1    110.7000    313.8000
    113    112    127   1    110.7000    313.8000
    126    112    127   1    107.8000    276.1440
    112    113    114   1    112.7000    488.2728
    112    113    128   1    110.7000    313.8000
    112    113    129   1    110.7000    313.8000
    114    113    128   1    110.7000    313.8000
    114    113    129   1    110.7000    313.8000
    128    113    129   1    107.8000    276.1440
    113    114    115   1    109.5000    418.4000
    113    114    130   1    110.7000    313.8000
    113    114    131   1    110.7000    313.8000
    115    114    130   1    109.5000    292.8800
    115    114    131   1    109.5000    292.8800
    130    114    131   1    107.8000    276.1440
    114    115    116   1    116.9000    694.5440
    115    116    117   1    123.4000    694.5440
    115    116    118   1    111.4000    677.8080
    117    116    118   1    120.4000    669.4400
     93    118    116   1    111.1000    527.1840
     93    118    119   1    112.7000    488.2728
     93    118    120   1    112.7000    488.2728
    116    118    119   1    111.1000    527.1840
    116    118    120   1    111.1000    527.1840
    119    118    120   1    112.7000    488.2728
    118    119    132   1    110.7000    313.8000
    118    119    133   1    110.7000    313.8000
    118    119    134   1    110.7000    313.8000
    132    119    133   1    107.8000    276.1440
    132    119    134   1    107.8000    276.1440
    133    119    134   1    107.8000    276.1440
    118    120    135   1    110.7000    313.8000
    118    120    136   1    110.7000    313.8000
    118    120    145   1    112.7000    488.2728
    135    120    136   1    107.8000    276.1440
    135    120    145   1    110.7000    313.8000
    136    120    145   1    110.7000    313.8000
    138    137    148   1    110.7000    313.8000
    138    137    149   1    110.7000    313.8000
    138    137    150   1    110.7000    313.8000
    148    137    149   1    107.8000    276.1440
    148    137    150   1    107.8000    276.1440
    149    137    150   1    107.8000    276.1440
    137    138    139   1    112.7000    488.2728
    137    138    151   1    110.7000    313.8000
    137    138    152   1    110.7000    313.8000
    139    138    151   1    110.7000    313.8000
    139    138    152   1    110.7000    313.8000
    151    138    152   1    107.8000    276.1440
    138    139    140   1    112.7000    488.2728
    138    139    153   1    110.7000    313.8000
    138    139    154   1    110.7000    313.8000
    140    139    153   1    110.7000    313.8000
    140    139    154   1    110.7000    313.8000
    153    139    154   1    107.8000    276.1440
    139    140    141   1    112.7000    488.2728
    139    140    155   1    110.7000    313.8000
    139    140    156   1    110.7000    313.8000
    141    140    155   1    110.7000    313.8000
    141    140    156   1    110.7000    313.8000
    155    140    156   1    107.8000    276.1440
    140    141    142   1    109.5000    418.4000
    140    141    157   1    110.7000    313.8000
    140    141    158   1    110.7000    313.8000
    142    141    157   1    109.5000    292.8800
    142    141    158   1    109.5000    292.8800
    157    141    158   1    107.8000    276.1440
    141    142    143   1    116.9000    694.5440
    142    143    144   1    123.4000    694.5440
    142    143    145   1    111.4000    677.8080
    144    143    145   1    120.4000    669.4400
    120    145    143   1    111.1000    527.1840
    120    145    146   1    112.7000    488.2728
    120    145    147   1    112.7000    488.2728
    143    145    146   1    111.1000    527.1840
    143    145    147   1    111.1000    527.1840
    146    145    147   1    112.7000    488.2728
    145    146    159   1    110.7000    313.8000
    145    146    160   1    110.7000    313.8000
    145    146    161   1    110.7000    313.8000
    159    146    160   1    107.8000    276.1440
    159    146    161   1    107.8000    276.1440
    160    146    161   1    107.8000    276.1440
    145    147    162   1    110.7000    313.8000
    145    147    163   1    110.7000    313.8000
    145    147    172   1    112.7000    488.2728
    162    147    163   1    107.8000    276.1440
    162    147    172   1    110.7000    313.8000
    163    147    172   1    110.7000    313.8000
    165    164    175   1    110.7000    313.8000
    165    164    176   1    110.7000    313.8000
    165    164    177   1    110.7000    313.8000
    175    164    176   1    107.8000    276.1440
    175    164    177   1    107.8000    276.1440
    176    164    177   1    107.8000    276.1440
    164    165    166   1    112.7000    488.2728
    164    165    178   1    110.7000    313.8000
    164    165    179   1    110.7000    313.8000
    166    165    178   1    110.7000    313.8000
    166    165    179   1    110.7000    313.8000
    178    165    179   1    107.8000    276.1440
    165    166    167   1    112.7000    488.2728
    165    166    180   1    110.7000    313.8000
    165    166    181   1    110.7000    313.8000
    167    166    180   1    110.7000    313.8000
    167    166    181   1    110.7000    313.8000
    180    166    181   1    107.8000    276.1440
    166    167    168   1    112.7000    488.2728
    166    167    182   1    110.7000    313.8000
    166    167    183   1    110.7000    313.8000
    168    167    182   1    110.7000    313.8000
    168    167    183   1    110.7000    313.8000
    182    167    183   1    107.8000    276.1440
    167    168    169   1    109.5000    418.4000
    167    168    184   1    110.7000    313.8000
    167    168    185   1    110.7000    313.8000
    169    168    184   1    109.5000    292.8800
    169    168    185   1    109.5000    292.8800
    184    168    185   1    107.8000    276.1440
    168    169    170   1    116.9000    694.5440
    169    170    171   1    123.4000    694.5440
    169    170    172   1    111.4000    677.8080
    171    170    172   1    120.4000    669.4400
    147    172    170   1    111.1000    527.1840
    147    172    173   1    112.7000    488.2728
    147    172    174   1    112.7000    488.2728
    170    172    173   1    111.1000    527.1840
    170    172    174   1    111.1000    527.1840
    173    172    174   1    112.7000    488.2728
    172    173    186   1    110.7000    313.8000
    172    173    187   1    110.7000    313.8000
    172    173    188   1    110.7000    313.8000
    186    173    187   1    107.8000    276.1440
    186    173    188   1    107.8000    276.1440
    187    173    188   1    107.8000    276.1440
    172    174    189   1    110.7000    313.8000
    172    174    190   1    110.7000    313.8000
    172    174    199   1    112.7000    488.2728
    189    174    190   1    107.8000    276.1440
    189    174    199   1    110.7000    313.8000
    190    174    199   1    110.7000    313.8000
    192    191    202   1    110.7000    313.8000
    192    191    203   1    110.7000    313.8000
    192    191    204   1    110.7000    313.8000
    202    191    203   1    107.8000    276.1440
    202    191    204   1    107.8000    276.1440
    203    191    204   1    107.8000    276.1440
    191    192    193   1    112.7000    488.2728
    191    192    205   1    110.7000    313.8000
    191    192    206   1    110.7000    313.8000
    193    192    205   1    110.7000    313.8000
    193    192    206   1    110.7000    313.8000
    205    192    206   1    107.8000    276.1440
    192    193    194   1    112.7000    488.2728
    192    193    207   1    110.7000    313.8000
    192    193    208   1    110.7000    313.8000
    194    193    207   1    110.7000    313.8000
    194    193    208   1    110.7000    313.8000
    207    193    208   1    107.8000    276.1440
    193    194    195   1    112.7000    488.2728
    193    194    209   1    110.7000    313.8000
    193    194    210   1    110.7000    313.8000
    195    194    209   1    110.7000    313.8000
    195    194    210   1    110.7000    313.8000
    209    194    210   1    107.8000    276.1440
    194    195    196   1    109.5000    418.4000
    194    195    211   1    110.7000    313.8000
    194    195    212   1    110.7000    313.8000
    196    195    211   1    109.5000    292.8800
    196    195    212   1    109.5000    292.8800
    211    195    212   1    107.8000    276.1440
    195    196    197   1    116.9000    694.5440
    196    197    198   1    123.4000    694.5440
    196    197    199   1    111.4000    677.8080
    198    197    199   1    120.4000    669.4400
    174    199    197   1    111.1000    527.1840
    174    199    200   1    112.7000    488.2728
    174    199    201   1    112.7000    488.2728
    197    199    200   1    111.1000    527.1840
    197    199    201   1    111.1000    527.1840
    200    199    201   1    112.7000    488.2728
    199    200    213   1    110.7000    313.8000
    199    200    214   1    110.7000    313.8000
    199    200    215   1    110.7000    313.8000
    213    200    214   1    107.8000    276.1440
    213    200    215   1    107.8000    276.1440
    214    200    215   1    107.8000    276.1440
    199    201    216   1    110.7000    313.8000
    199    201    217   1    110.7000    313.8000
    199    201    226   1    112.7000    488.2728
    216    201    217   1    107.8000    276.1440
    216    201    226   1    110.7000    313.8000
    217    201    226   1    110.7000    313.8000
    219    218    229   1    110.7000    313.8000
    219    218    230   1    110.7000    313.8000
    219    218    231   1    110.7000    313.8000
    229    218    230   1    107.8000    276.1440
    229    218    231   1    107.8000    276.1440
    230    218    231   1    107.8000    276.1440
    218    219    220   1    112.7000    488.2728
    218    219    232   1    110.7000    313.8000
    218    219    233   1    110.7000    313.8000
    220    219    232   1    110.7000    313.8000
    220    219    233   1    110.7000    313.8000
    232    219    233   1    107.8000    276.1440
    219    220    221   1    112.7000    488.2728
    219    220    234   1    110.7000    313.8000
    219    220    235   1    110.7000    313.8000
    221    220    234   1    110.7000    313.8000
    221    220    235   1    110.7000    313.8000
    234    220    235   1    107.8000    276.1440
    220    221    222   1    112.7000    488.2728
    220    221    236   1    110.7000    313.8000
    220    221    237   1    110.7000    313.8000
    222    221    236   1    110.7000    313.8000
    222    221    237   1    110.7000    313.8000
    236    221    237   1    107.8000    276.1440
    221    222    223   1    109.5000    418.4000
    221    222    238   1    110.7000    313.8000
    221    222    239   1    110.7000    313.8000
    223    222    238   1    109.5000    292.8800
    223    222    239   1    109.5000    292.8800
    238    222    239   1    107.8000    276.1440
    222    223    224   1    116.9000    694.5440
    223    224    225   1    123.4000    694.5440
    223    224    226   1    111.4000    677.8080
    225    224    226   1    120.4000    669.4400
    201    226    224   1    111.1000    527.1840
    201    226    227   1    112.7000    488.2728
    201    226    228   1    112.7000    488.2728
    224    226    227   1    111.1000    527.1840
    224    226    228   1    111.1000    527.1840
    227    226    228   1    112.7000    488.2728
    226    227    240   1    110.7000    313.8000
    226    227    241   1    110.7000    313.8000
    226    227    242   1    110.7000    313.8000
    240    227    241   1    107.8000    276.1440
    240    227    242   1    107.8000    276.1440
    241    227    242   1    107.8000    276.1440
    226    228    243   1    110.7000    313.8000
    226    228    244   1    110.7000    313.8000
    226    228    253   1    112.7000    488.2728
    243    228    244   1    107.8000    276.1440
    243    228    253   1    110.7000    313.8000
    244    228    253   1    110.7000    313.8000
    246    245    256   1    110.7000    313.8000
    246    245    257   1    110.7000    313.8000
    246    245    258   1    110.7000    313.8000
    256    245    257   1    107.8000    276.1440
    256    245    258   1    107.8000    276.1440
    257    245    258   1    107.8000    276.1440
    245    246    247   1    112.7000    488.2728
    245    246    259   1    110.7000    313.8000
    245    246    260   1    110.7000    313.8000
    247    246    259   1    110.7000    313.8000
    247    246    260   1    110.7000    313.8000
    259    246    260   1    107.8000    276.1440
    246    247    248   1    112.7000    488.2728
    246    247    261   1    110.7000    313.8000
    246    247    262   1    110.7000    313.8000
    248    247    261   1    110.7000    313.8000
    248    247    262   1    110.7000    313.8000
    261    247    262   1    107.8000    276.1440
    247    248    249   1    112.7000    488.2728
    247    248    263   1    110.7000    313.8000
    247    248    264   1    110.7000    313.8000
    249    248    263   1    110.7000    313.8000
    249    248    264   1    110.7000    313.8000
    263    248    264   1    107.8000    276.1440
    248    249    250   1    109.5000    418.4000
    248    249    265   1    110.7000    313.8000
    248    249    266   1    110.7000    313.8000
    250    249    265   1    109.5000    292.8800
    250    249    266   1    109.5000    292.8800
    265    249    266   1    107.8000    276.1440
    249    250    251   1    116.9000    694.5440
    250    251    252   1    123.4000    694.5440
    250    251    253   1    111.4000    677.8080
    252    251    253   1    120.4000    669.4400
    228    253    251   1    111.1000    527.1840
    228    253    254   1    112.7000    488.2728
    228    253    255   1    112.7000    488.2728
    251    253    254   1    111.1000    527.1840
    251    253    255   1    111.1000    527.1840
    254    253    255   1    112.7000    488.2728
    253    254    267   1    110.7000    313.8000
    253    254    268   1    110.7000    313.8000
    253    254    269   1    110.7000    313.8000
    267    254    268   1    107.8000    276.1440
    267    254    269   1    107.8000    276.1440
    268    254    269   1    107.8000    276.1440
    253    255    270   1    110.7000    313.8000
    253    255    271   1    110.7000    313.8000
    253    255    280   1    112.7000    488.2728
    270    255    271   1    107.8000    276.1440
    270    255    280   1    110.7000    313.8000
    271    255    280   1    110.7000    313.8000
    273    272    283   1    110.7000    313.8000
    273    272    284   1    110.7000    313.8000
    273    272    285   1    110.7000    313.8000
    283    272    284   1    107.8000    276.1440
    283    272    285   1    107.8000    276.1440
    284    272    285   1    107.8000    276.1440
    272    273    274   1    112.7000    488.2728
    272    273    286   1    110.7000    313.8000
    272    273    287   1    110.7000    313.8000
    274    273    286   1    110.7000    313.8000
    274    273    287   1    110.7000    313.8000
    286    273    287   1    107.8000    276.1440
    273    274    275   1    112.7000    488.2728
    273    274    288   1    110.7000    313.8000
    273    274    289   1    110.7000    313.8000
    275    274    288   1    110.7000    313.8000
    275    274    289   1    110.7000    313.8000
    288    274    289   1    107.8000    276.1440
    274    275    276   1    112.7000    488.2728
    274    275    290   1    110.7000    313.8000
    274    275    291   1    110.7000    313.8000
    276    275    290   1    110.7000    313.8000
    276    275    291   1    110.7000    313.8000
    290    275    291   1    107.8000    276.1440
    275    276    277   1    109.5000    418.4000
    275    276    292   1    110.7000    313.8000
    275    276    293   1    110.7000    313.8000
    277    276    292   1    109.5000    292.8800
    277    276    293   1    109.5000    292.8800
    292    276    293   1    107.8000    276.1440
    276    277    278   1    116.9000    694.5440
    277    278    279   1    123.4000    694.5440
    277    278    280   1    111.4000    677.8080
    279    278    280   1    120.4000    669.4400
    255    280    278   1    111.1000    527.1840
    255    280    281   1    112.7000    488.2728
    255    280    282   1    112.7000    488.2728
    278    280    281   1    111.1000    527.1840
    278    280    282   1    111.1000    527.1840
    281    280    282   1    112.7000    488.2728
    280    281    294   1    110.7000    313.8000
    280    281    295   1    110.7000    313.8000
    280    281    296   1    110.7000    313.8000
    294    281    295   1    107.8000    276.1440
    294    281    296   1    107.8000    276.1440
    295    281    296   1    107.8000    276.1440
    280    282    297   1    110.7000    313.8000
    280    282    298   1    110.7000    313.8000
    280    282    307   1    112.7000    488.2728
    297    282    298   1    107.8000    276.1440
    297    282    307   1    110.7000    313.8000
    298    282    307   1    110.7000    313.8000
    300    299    310   1    110.7000    313.8000
    300    299    311   1    110.7000    313.8000
    300    299    312   1    110.7000    313.8000
    310    299    311   1    107.8000    276.1440
    310    299    312   1    107.8000    276.1440
    311    299    312   1    107.8000    276.1440
    299    300    301   1    112.7000    488.2728
    299    300    313   1    110.7000    313.8000
    299    300    314   1    110.7000    313.8000
    301    300    313   1    110.7000    313.8000
    301    300    314   1    110.7000    313.8000
    313    300    314   1    107.8000    276.1440
    300    301    302   1    112.7000    488.2728
    300    301    315   1    110.7000    313.8000
    300    301    316   1    110.7000    313.8000
    302    301    315   1    110.7000    313.8000
    302    301    316   1    110.7000    313.8000
    315    301    316   1    107.8000    276.1440
    301    302    303   1    112.7000    488.2728
    301    302    317   1    110.7000    313.8000
    301    302    318   1    110.7000    313.8000
    303    302    317   1    110.7000    313.8000
    303    302    318   1    110.7000    313.8000
    317    302    318   1    107.8000    276.1440
    302    303    304   1    109.5000    418.4000
    302    303    319   1    110.7000    313.8000
    302    303    320   1    110.7000    313.8000
    304    303    319   1    109.5000    292.8800
    304    303    320   1    109.5000    292.8800
    319    303    320   1    107.8000    276.1440
    303    304    305   1    116.9000    694.5440
    304    305    306   1    123.4000    694.5440
    304    305    307   1    111.4000    677.8080
    306    305    307   1    120.4000    669.4400
    282    307    305   1    111.1000    527.1840
    282    307    308   1    112.7000    488.2728
    282    307    309   1    112.7000    488.2728
    305    307    308   1    111.1000    527.1840
    305    307    309   1    111.1000    527.1840
    308    307    309   1    112.7000    488.2728
    307    308    321   1    110.7000    313.8000
    307    308    322   1    110.7000    313.8000
    307    308    323   1    110.7000    313.8000
    321    308    322   1    107.8000    276.1440
    321    308    323   1    107.8000    276.1440
    322    308    323   1    107.8000    276.1440
    307    309    324   1    110.7000    313.8000
    307    309    325   1    110.7000    313.8000
    307    309    334   1    112.7000    488.2728
    324    309    325   1    107.8000    276.1440
    324    309    334   1    110.7000    313.8000
    325    309    334   1    110.7000    313.8000
    327    326    337   1    110.7000    313.8000
    327    326    338   1    110.7000    313.8000
    327    326    339   1    110.7000    313.8000
    337    326    338   1    107.8000    276.1440
    337    326    339   1    107.8000    276.1440
    338    326    339   1    107.8000    276.1440
    326    327    328   1    112.7000    488.2728
    326    327    340   1    110.7000    313.8000
    326    327    341   1    110.7000    313.8000
    328    327    340   1    110.7000    313.8000
    328    327    341   1    110.7000    313.8000
    340    327    341   1    107.8000    276.1440
    327    328    329   1    112.7000    488.2728
    327    328    342   1    110.7000    313.8000
    327    328    343   1    110.7000    313.8000
    329    328    342   1    110.7000    313.8000
    329    328    343   1    110.7000    313.8000
    342    328    343   1    107.8000    276.1440
    328    329    330   1    112.7000    488.2728
    328    329    344   1    110.7000    313.8000
    328    329    345   1    110.7000    313.8000
    330    329    344   1    110.7000    313.8000
    330    329    345   1    110.7000    313.8000
    344    329    345   1    107.8000    276.1440
    329    330    331   1    109.5000    418.4000
    329    330    346   1    110.7000    313.8000
    329    330    347   1    110.7000    313.8000
    331    330    346   1    109.5000    292.8800
    331    330    347   1    109.5000    292.8800
    346    330    347   1    107.8000    276.1440
    330    331    332   1    116.9000    694.5440
    331    332    333   1    123.4000    694.5440
    331    332    334   1    111.4000    677.8080
    333    332    334   1    120.4000    669.4400
    309    334    332   1    111.1000    527.1840
    309    334    335   1    112.7000    488.2728
    309    334    336   1    112.7000    488.2728
    332    334    335   1    111.1000    527.1840
    332    334    336   1    111.1000    527.1840
    335    334    336   1    112.7000    488.2728
    334    335    348   1    110.7000    313.8000
    334    335    349   1    110.7000    313.8000
    334    335    350   1    110.7000    313.8000
    348    335    349   1    107.8000    276.1440
    348    335    350   1    107.8000    276.1440
    349    335    350   1    107.8000    276.1440
    334    336    351   1    110.7000    313.8000
    334    336    352   1    110.7000    313.8000
    334    336    361   1    112.7000    488.2728
    351    336    352   1    107.8000    276.1440
    351    336    361   1    110.7000    313.8000
    352    336    361   1    110.7000    313.8000
    354    353    364   1    110.7000    313.8000
    354    353    365   1    110.7000    313.8000
    354    353    366   1    110.7000    313.8000
    364    353    365   1    107.8000    276.1440
    364    353    366   1    107.8000    276.1440
    365    353    366   1    107.8000    276.1440
    353    354    355   1    112.7000    488.2728
    353    354    367   1    110.7000    313.8000
    353    354    368   1    110.7000    313.8000
    355    354    367   1    110.7000    313.8000
    355    354    368   1    110.7000    313.8000
    367    354    368   1    107.8000    276.1440
    354    355    356   1    112.7000    488.2728
    354    355    369   1    110.7000    313.8000
    354    355    370   1    110.7000    313.8000
    356    355    369   1    110.7000    313.8000
    356    355    370   1    110.7000    313.8000
    369    355    370   1    107.8000    276.1440
    355    356    357   1    112.7000    488.2728
    355    356    371   1    110.7000    313.8000
    355    356    372   1    110.7000    313.8000
    357    356    371   1    110.7000    313.8000
    357    356    372   1    110.7000    313.8000
    371    356    372   1    107.8000    276.1440
    356    357    358   1    109.5000    418.4000
    356    357    373   1    110.7000    313.8000
    356    357    374   1    110.7000    313.8000
    358    357    373   1    109.5000    292.8800
    358    357    374   1    109.5000    292.8800
    373    357    374   1    107.8000    276.1440
    357    358    359   1    116.9000    694.5440
    358    359    360   1    123.4000    694.5440
    358    359    361   1    111.4000    677.8080
    360    359    361   1    120.4000    669.4400
    336    361    359   1    111.1000    527.1840
    336    361    362   1    112.7000    488.2728
    336    361    363   1    112.7000    488.2728
    359    361    362   1    111.1000    527.1840
    359    361    363   1    111.1000    527.1840
    362    361    363   1    112.7000    488.2728
    361    362    375   1    110.7000    313.8000
    361    362    376   1    110.7000    313.8000
    361    362    377   1    110.7000    313.8000
    375    362    376   1    107.8000    276.1440
    375    362    377   1    107.8000    276.1440
    376    362    377   1    107.8000    276.1440
    361    363    378   1    110.7000    313.8000
    361    363    379   1    110.7000    313.8000
    361    363    388   1    112.7000    488.2728
    378    363    379   1    107.8000    276.1440
    378    363    388   1    110.7000    313.8000
    379    363    388   1    110.7000    313.8000
    381    380    391   1    110.7000    313.8000
    381    380    392   1    110.7000    313.8000
    381    380    393   1    110.7000    313.8000
    391    380    392   1    107.8000    276.1440
    391    380    393   1    107.8000    276.1440
    392    380    393   1    107.8000    276.1440
    380    381    382   1    112.7000    488.2728
    380    381    394   1    110.7000    313.8000
    380    381    395   1    110.7000    313.8000
    382    381    394   1    110.7000    313.8000
    382    381    395   1    110.7000    313.8000
    394    381    395   1    107.8000    276.1440
    381    382    383   1    112.7000    488.2728
    381    382    396   1    110.7000    313.8000
    381    382    397   1    110.7000    313.8000
    383    382    396   1    110.7000    313.8000
    383    382    397   1    110.7000    313.8000
    396    382    397   1    107.8000    276.1440
    382    383    384   1    112.7000    488.2728
    382    383    398   1    110.7000    313.8000
    382    383    399   1    110.7000    313.8000
    384    383    398   1    110.7000    313.8000
    384    383    399   1    110.7000    313.8000
    398    383    399   1    107.8000    276.1440
    383    384    385   1    109.5000    418.4000
    383    384    400   1    110.7000    313.8000
    383    384    401   1    110.7000    313.8000
    385    384    400   1    109.5000    292.8800
    385    384    401   1    109.5000    292.8800
    400    384    401   1    107.8000    276.1440
    384    385    386   1    116.9000    694.5440
    385    386    387   1    123.4000    694.5440
    385    386    388   1    111.4000    677.8080
    387    386    388   1    120.4000    669.4400
    363    388    386   1    111.1000    527.1840
    363    388    389   1    112.7000    488.2728
    363    388    390   1    112.7000    488.2728
    386    388    389   1    111.1000    527.1840
    386    388    390   1    111.1000    527.1840
    389    388    390   1    112.7000    488.2728
    388    389    402   1    110.7000    313.8000
    388    389    403   1    110.7000    313.8000
    388    389    404   1    110.7000    313.8000
    402    389    403   1    107.8000    276.1440
    402    389    404   1    107.8000    276.1440
    403    389    404   1    107.8000    276.1440
    388    390    405   1    110.7000    313.8000
    388    390    406   1    110.7000    313.8000
    388    390    415   1    112.7000    488.2728
    405    390    406   1    107.8000    276.1440
    405    390    415   1    110.7000    313.8000
    406    390    415   1    110.7000    313.8000
    408    407    418   1    110.7000    313.8000
    408    407    419   1    110.7000    313.8000
    408    407    420   1    110.7000    313.8000
    418    407    419   1    107.8000    276.1440
    418    407    420   1    107.8000    276.1440
    419    407    420   1    107.8000    276.1440
    407    408    409   1    112.7000    488.2728
    407    408    421   1    110.7000    313.8000
    407    408    422   1    110.7000    313.8000
    409    408    421   1    110.7000    313.8000
    409    408    422   1    110.7000    313.8000
    421    408    422   1    107.8000    276.1440
    408    409    410   1    112.7000    488.2728
    408    409    423   1    110.7000    313.8000
    408    409    424   1    110.7000    313.8000
    410    409    423   1    110.7000    313.8000
    410    409    424   1    110.7000    313.8000
    423    409    424   1    107.8000    276.1440
    409    410    411   1    112.7000    488.2728
    409    410    425   1    110.7000    313.8000
    409    410    426   1    110.7000    313.8000
    411    410    425   1    110.7000    313.8000
    411    410    426   1    110.7000    313.8000
    425    410    426   1    107.8000    276.1440
    410    411    412   1    109.5000    418.4000
    410    411    427   1    110.7000    313.8000
    410    411    428   1    110.7000    313.8000
    412    411    427   1    109.5000    292.8800
    412    411    428   1    109.5000    292.8800
    427    411    428   1    107.8000    276.1440
    411    412    413   1    116.9000    694.5440
    412    413    414   1    123.4000    694.5440
    412    413    415   1    111.4000    677.8080
    414    413    415   1    120.4000    669.4400
    390    415    413   1    111.1000    527.1840
    390    415    416   1    112.7000    488.2728
    390    415    417   1    112.7000    488.2728
    413    415    416   1    111.1000    527.1840
    413    415    417   1    111.1000    527.1840
    416    415    417   1    112.7000    488.2728
    415    416    429   1    110.7000    313.8000
    415    416    430   1    110.7000    313.8000
    415    416    431   1    110.7000    313.8000
    429    416    430   1    107.8000    276.1440
    429    416    431   1    107.8000    276.1440
    430    416    431   1    107.8000    276.1440
    415    417    432   1    110.7000    313.8000
    415    417    433   1    110.7000    313.8000
    415    417    442   1    112.7000    488.2728
    432    417    433   1    107.8000    276.1440
    432    417    442   1    110.7000    313.8000
    433    417    442   1    110.7000    313.8000
    435    434    445   1    110.7000    313.8000
    435    434    446   1    110.7000    313.8000
    435    434    447   1    110.7000    313.8000
    445    434    446   1    107.8000    276.1440
    445    434    447   1    107.8000    276.1440
    446    434    447   1    107.8000    276.1440
    434    435    436   1    112.7000    488.2728
    434    435    448   1    110.7000    313.8000
    434    435    449   1    110.7000    313.8000
    436    435    448   1    110.7000    313.8000
    436    435    449   1    110.7000    313.8000
    448    435    449   1    107.8000    276.1440
    435    436    437   1    112.7000    488.2728
    435    436    450   1    110.7000    313.8000
    435    436    451   1    110.7000    313.8000
    437    436    450   1    110.7000    313.8000
    437    436    451   1    110.7000    313.8000
    450    436    451   1    107.8000    276.1440
    436    437    438   1    112.7000    488.2728
    436    437    452   1    110.7000    313.8000
    436    437    453   1    110.7000    313.8000
    438    437    452   1    110.7000    313.8000
    438    437    453   1    110.7000    313.8000
    452    437    453   1    107.8000    276.1440
    437    438    439   1    109.5000    418.4000
    437    438    454   1    110.7000    313.8000
    437    438    455   1    110.7000    313.8000
    439    438    454   1    109.5000    292.8800
    439    438    455   1    109.5000    292.8800
    454    438    455   1    107.8000    276.1440
    438    439    440   1    116.9000    694.5440
    439    440    441   1    123.4000    694.5440
    439    440    442   1    111.4000    677.8080
    441    440    442   1    120.4000    669.4400
    417    442    440   1    111.1000    527.1840
    417    442    443   1    112.7000    488.2728
    417    442    444   1    112.7000    488.2728
    440    442    443   1    111.1000    527.1840
    440    442    444   1    111.1000    527.1840
    443    442    444   1    112.7000    488.2728
    442    443    456   1    110.7000    313.8000
    442    443    457   1    110.7000    313.8000
    442    443    458   1    110.7000    313.8000
    456    443    457   1    107.8000    276.1440
    456    443    458   1    107.8000    276.1440
    457    443    458   1    107.8000    276.1440
    442    444    459   1    110.7000    313.8000
    442    444    460   1    110.7000    313.8000
    442    444    469   1    112.7000    488.2728
    459    444    460   1    107.8000    276.1440
    459    444    469   1    110.7000    313.8000
    460    444    469   1    110.7000    313.8000
    462    461    472   1    110.7000    313.8000
    462    461    473   1    110.7000    313.8000
    462    461    474   1    110.7000    313.8000
    472    461    473   1    107.8000    276.1440
    472    461    474   1    107.8000    276.1440
    473    461    474   1    107.8000    276.1440
    461    462    463   1    112.7000    488.2728
    461    462    475   1    110.7000    313.8000
    461    462    476   1    110.7000    313.8000
    463    462    475   1    110.7000    313.8000
    463    462    476   1    110.7000    313.8000
    475    462    476   1    107.8000    276.1440
    462    463    464   1    112.7000    488.2728
    462    463    477   1    110.7000    313.8000
    462    463    478   1    110.7000    313.8000
    464    463    477   1    110.7000    313.8000
    464    463    478   1    110.7000    313.8000
    477    463    478   1    107.8000    276.1440
    463    464    465   1    112.7000    488.2728
    463    464    479   1    110.7000    313.8000
    463    464    480   1    110.7000    313.8000
    465    464    479   1    110.7000    313.8000
    465    464    480   1    110.7000    313.8000
    479    464    480   1    107.8000    276.1440
    464    465    466   1    109.5000    418.4000
    464    465    481   1    110.7000    313.8000
    464    465    482   1    110.7000    313.8000
    466    465    481   1    109.5000    292.8800
    466    465    482   1    109.5000    292.8800
    481    465    482   1    107.8000    276.1440
    465    466    467   1    116.9000    694.5440
    466    467    468   1    123.4000    694.5440
    466    467    469   1    111.4000    677.8080
    468    467    469   1    120.4000    669.4400
    444    469    467   1    111.1000    527.1840
    444    469    470   1    112.7000    488.2728
    444    469    471   1    112.7000    488.2728
    467    469    470   1    111.1000    527.1840
    467    469    471   1    111.1000    527.1840
    470    469    471   1    112.7000    488.2728
    469    470    483   1    110.7000    313.8000
    469    470    484   1    110.7000    313.8000
    469    470    485   1    110.7000    313.8000
    483    470    484   1    107.8000    276.1440
    483    470    485   1    107.8000    276.1440
    484    470    485   1    107.8000    276.1440
    469    471    486   1    110.7000    313.8000
    469    471    487   1    110.7000    313.8000
    469    471    496   1    112.7000    488.2728
    486    471    487   1    107.8000    276.1440
    486    471    496   1    110.7000    313.8000
    487    471    496   1    110.7000    313.8000
    489    488    499   1    110.7000    313.8000
    489    488    500   1    110.7000    313.8000
    489    488    501   1    110.7000    313.8000
    499    488    500   1    107.8000    276.1440
    499    488    501   1    107.8000    276.1440
    500    488    501   1    107.8000    276.1440
    488    489    490   1    112.7000    488.2728
    488    489    502   1    110.7000    313.8000
    488    489    503   1    110.7000    313.8000
    490    489    502   1    110.7000    313.8000
    490    489    503   1    110.7000    313.8000
    502    489    503   1    107.8000    276.1440
    489    490    491   1    112.7000    488.2728
    489    490    504   1    110.7000    313.8000
    489    490    505   1    110.7000    313.8000
    491    490    504   1    110.7000    313.8000
    491    490    505   1    110.7000    313.8000
    504    490    505   1    107.8000    276.1440
    490    491    492   1    112.7000    488.2728
    490    491    506   1    110.7000    313.8000
    490    491    507   1    110.7000    313.8000
    492    491    506   1    110.7000    313.8000
    492    491    507   1    110.7000    313.8000
    506    491    507   1    107.8000    276.1440
    491    492    493   1    109.5000    418.4000
    491    492    508   1    110.7000    313.8000
    491    492    509   1    110.7000    313.8000
    493    492    508   1    109.5000    292.8800
    493    492    509   1    109.5000    292.8800
    508    492    509   1    107.8000    276.1440
    492    493    494   1    116.9000    694.5440
    493    494    495   1    123.4000    694.5440
    493    494    496   1    111.4000    677.8080
    495    494    496   1    120.4000    669.4400
    471    496    494   1    111.1000    527.1840
    471    496    497   1    112.7000    488.2728
    471    496    498   1    112.7000    488.2728
    494    496    497   1    111.1000    527.1840
    494    496    498   1    111.1000    527.1840
    497    496    498   1    112.7000    488.2728
    496    497    510   1    110.7000    313.8000
    496    497    511   1    110.7000    313.8000
    496    497    512   1    110.7000    313.8000
    510    497    511   1    107.8000    276.1440
    510    497    512   1    107.8000    276.1440
    511    497    512   1    107.8000    276.1440
    496    498    513   1    110.7000    313.8000
    496    498    514   1    110.7000    313.8000
    496    498    523   1    112.7000    488.2728
    513    498    514   1    107.8000    276.1440
    513    498    523   1    110.7000    313.8000
    514    498    523   1    110.7000    313.8000
    516    515    526   1    110.7000    313.8000
    516    515    527   1    110.7000    313.8000
    516    515    528   1    110.7000    313.8000
    526    515    527   1    107.8000    276.1440
    526    515    528   1    107.8000    276.1440
    527    515    528   1    107.8000    276.1440
    515    516    517   1    112.7000    488.2728
    515    516    529   1    110.7000    313.8000
    515    516    530   1    110.7000    313.8000
    517    516    529   1    110.7000    313.8000
    517    516    530   1    110.7000    313.8000
    529    516    530   1    107.8000    276.1440
    516    517    518   1    112.7000    488.2728
    516    517    531   1    110.7000    313.8000
    516    517    532   1    110.7000    313.8000
    518    517    531   1    110.7000    313.8000
    518    517    532   1    110.7000    313.8000
    531    517    532   1    107.8000    276.1440
    517    518    519   1    112.7000    488.2728
    517    518    533   1    110.7000    313.8000
    517    518    534   1    110.7000    313.8000
    519    518    533   1    110.7000    313.8000
    519    518    534   1    110.7000    313.8000
    533    518    534   1    107.8000    276.1440
    518    519    520   1    109.5000    418.4000
    518    519    535   1    110.7000    313.8000
    518    519    536   1    110.7000    313.8000
    520    519    535   1    109.5000    292.8800
    520    519    536   1    109.5000    292.8800
    535    519    536   1    107.8000    276.1440
    519    520    521   1    116.9000    694.5440
    520    521    522   1    123.4000    694.5440
    520    521    523   1    111.4000    677.8080
    522    521    523   1    120.4000    669.4400
    498    523    521   1    111.1000    527.1840
    498    523    524   1    112.7000    488.2728
    498    523    525   1    112.7000    488.2728
    521    523    524   1    111.1000    527.1840
    521    523    525   1    111.1000    527.1840
    524    523    525   1    112.7000    488.2728
    523    524    537   1    110.7000    313.8000
    523    524    538   1    110.7000    313.8000
    523    524    539   1    110.7000    313.8000
    537    524    538   1    107.8000    276.1440
    537    524    539   1    107.8000    276.1440
    538    524    539   1    107.8000    276.1440
    523    525    540   1    110.7000    313.8000
    523    525    541   1    110.7000    313.8000
    523    525    542   1    110.7000    313.8000
    540    525    541   1    107.8000    276.1440
    540    525    542   1    107.8000    276.1440
    541    525    542   1    107.8000    276.1440

[ dihedrals ]
; Proper dihedrals
     12      1      2      3   5     0.00000     0.00000     1.25520  0.0
     12      1      2     15   5     0.00000     0.00000     1.25520  0.0
     12      1      2     16   5     0.00000     0.00000     1.25520  0.0
     13      1      2      3   5     0.00000     0.00000     1.25520  0.0
     13      1      2     15   5     0.00000     0.00000     1.25520  0.0
     13      1      2     16   5     0.00000     0.00000     1.25520  0.0
     14      1      2      3   5     0.00000     0.00000     1.25520  0.0
     14      1      2     15   5     0.00000     0.00000     1.25520  0.0
     14      1      2     16   5     0.00000     0.00000     1.25520  0.0
      1      2      3      4   5     4.74884    -0.63178     1.67360  0.0
      1      2      3     17   5     0.00000     0.00000     1.25520  0.0
      1      2      3     18   5     0.00000     0.00000     1.25520  0.0
     15      2      3      4   5     0.00000     0.00000     1.25520  0.0
     15      2      3     17   5     0.00000     0.00000     1.25520  0.0
     15      2      3     18   5     0.00000     0.00000     1.25520  0.0
     16      2      3      4   5     0.00000     0.00000     1.25520  0.0
     16      2      3     17   5     0.00000     0.00000     1.25520  0.0
     16      2      3     18   5     0.00000     0.00000     1.25520  0.0
      2      3      4      5   5     4.74884    -0.63178     1.67360  0.0
      2      3      4     19   5     0.00000     0.00000     1.25520  0.0
      2      3      4     20   5     0.00000     0.00000     1.25520  0.0
     17      3      4      5   5     0.00000     0.00000     1.25520  0.0
     17      3      4     19   5     0.00000     0.00000     1.25520  0.0
     17      3      4     20   5     0.00000     0.00000     1.25520  0.0
     18      3      4      5   5     0.00000     0.00000     1.25520  0.0
     18      3      4     19   5     0.00000     0.00000     1.25520  0.0
     18      3      4     20   5     0.00000     0.00000     1.25520  0.0
      3      4      5      6   5     5.25092    -2.58990     2.28446  0.0
      3      4      5     21   5     0.00000     0.00000     1.25520  0.0
      3      4      5     22   5     0.00000     0.00000     1.25520  0.0
     19      4      5      6   5     0.00000     0.00000     1.95811  0.0
     19      4      5     21   5     0.00000     0.00000     1.25520  0.0
     19      4      5     22   5     0.00000     0.00000     1.25520  0.0
     20      4      5      6   5     0.00000     0.00000     1.95811  0.0
     20      4      5     21   5     0.00000     0.00000     1.25520  0.0
     20      4      5     22   5     0.00000     0.00000     1.25520  0.0
      4      5      6      7   5    -2.16731    -3.93296     0.98324  0.0
     21      5      6      7   5     0.00000     0.00000     0.67362  0.0
     22      5      6      7   5     0.00000     0.00000     0.67362  0.0
      5      6      7      8   5     0.00000    25.10400     0.00000  0.0
      5      6      7      9   5    13.65239    24.43456     0.00000  0.0
      6      7      9     10   5     0.00000     0.00000     3.07524  0.0
      6      7      9     11   5     0.00000     0.00000     3.07524  0.0
      6      7      9     28   5     0.00000     0.00000     0.00000  0.0
      8      7      9     10   5     0.00000     2.52295     0.00000  0.0
      8      7      9     11   5     0.00000     2.52295     0.00000  0.0
      8      7      9     28   5     0.00000     0.00000     0.00000  0.0
      7      9     10     23   5     0.00000     0.00000    -0.94140  0.0
      7      9     10     24   5     0.00000     0.00000    -0.94140  0.0
      7      9     10     25   5     0.00000     0.00000    -0.94140  0.0
     11      9     10     23   5     0.00000     0.00000     1.25520  0.0
     11      9     10     24   5     0.00000     0.00000     1.25520  0.0
     11      9     10     25   5     0.00000     0.00000     1.25520  0.0
     28      9     10     23   5     0.00000     0.00000     1.25520  0.0
     28      9     10     24   5     0.00000     0.00000     1.25520  0.0
     28      9     10     25   5     0.00000     0.00000     1.25520  0.0
      7      9     11     26   5     0.00000     0.00000    -0.94140  0.0
      7      9     11     27   5     0.00000     0.00000    -0.94140  0.0
      7      9     11     37   5    -8.00818    -1.52298     2.46438  0.0
     10      9     11     26   5     0.00000     0.00000     1.25520  0.0
     10      9     11     27   5     0.00000     0.00000     1.25520  0.0
     10      9     11     37   5     4.74884    -0.63178     1.67360  0.0
     28      9     11     26   5     0.00000     0.00000     1.25520  0.0
     28      9     11     27   5     0.00000     0.00000     1.25520  0.0
     28      9     11     37   5     0.00000     0.00000     1.25520  0.0
      9     11     37     35   5    -8.00818    -1.52298     2.46438  0.0
      9     11     37     38   5     4.74884    -0.63178     1.67360  0.0
      9     11     37     39   5     4.74884    -0.63178     1.67360  0.0
     26     11     37     35   5     0.00000     0.00000    -0.94140  0.0
     26     11     37     38   5     0.00000     0.00000     1.25520  0.0
     26     11     37     39   5     0.00000     0.00000     1.25520  0.0
     27     11     37     35   5     0.00000     0.00000    -0.94140  0.0
     27     11     37     38   5     0.00000     0.00000     1.25520  0.0
     27     11     37     39   5     0.00000     0.00000     1.25520  0.0
     40     29     30     31   5     0.00000     0.00000     1.25520  0.0
     40     29     30     43   5     0.00000     0.00000     1.25520  0.0
     40     29     30     44   5     0.00000     0.00000     1.25520  0.0
     41     29     30     31   5     0.00000     0.00000     1.25520  0.0
     41     29     30     43   5     0.00000     0.00000     1.25520  0.0
     41     29     30     44   5     0.00000     0.00000     1.25520  0.0
     42     29     30     31   5     0.00000     0.00000     1.25520  0.0
     42     29     30     43   5     0.00000     0.00000     1.25520  0.0
     42     29     30     44   5     0.00000     0.00000     1.25520  0.0
     29     30     31     32   5     4.74884    -0.63178     1.67360  0.0
     29     30     31     45   5     0.00000     0.00000     1.25520  0.0
     29     30     31     46   5     0.00000     0.00000     1.25520  0.0
     43     30     31     32   5     0.00000     0.00000     1.25520  0.0
     43     30     31     45   5     0.00000     0.00000     1.25520  0.0
     43     30     31     46   5     0.00000     0.00000     1.25520  0.0
     44     30     31     32   5     0.00000     0.00000     1.25520  0.0
     44     30     31     45   5     0.00000     0.00000     1.25520  0.0
     44     30     31     46   5     0.00000     0.00000     1.25520  0.0
     30     31     32     33   5     4.74884    -0.63178     1.67360  0.0
     30     31     32     47   5     0.00000     0.00000     1.25520  0.0
     30     31     32     48   5     0.00000     0.00000     1.25520  0.0
     45     31     32     33   5     0.00000     0.00000     1.25520  0.0
     45     31     32     47   5     0.00000     0.00000     1.25520  0.0
     45     31     32     48   5     0.00000     0.00000     1.25520  0.0
     46     31     32     33   5     0.00000     0.00000     1.25520  0.0
     46     31     32     47   5     0.00000     0.00000     1.25520  0.0
     46     31     32     48   5     0.00000     0.00000     1.25520  0.0
     31     32     33     34   5     5.25092    -2.58990     2.28446  0.0
     31     32     33     49   5     0.00000     0.00000     1.25520  0.0
     31     32     33     50   5     0.00000     0.00000     1.25520  0.0
     47     32     33     34   5     0.00000     0.00000     1.95811  0.0
     47     32     33     49   5     0.00000     0.00000     1.25520  0.0
     47     32     33     50   5     0.00000     0.00000     1.25520  0.0
     48     32     33     34   5     0.00000     0.00000     1.95811  0.0
     48     32     33     49   5     0.00000     0.00000     1.25520  0.0
     48     32     33     50   5     0.00000     0.00000     1.25520  0.0
     32     33     34     35   5    -2.16731    -3.93296     0.98324  0.0
     49     33     34     35   5     0.00000     0.00000     0.67362  0.0
     50     33     34     35   5     0.00000     0.00000     0.67362  0.0
     33     34     35     36   5     0.00000    25.10400     0.00000  0.0
     33     34     35     37   5    13.65239    24.43456     0.00000  0.0
     34     35     37     11   5     0.00000     0.00000     3.07524  0.0
     34     35     37     38   5     0.00000     0.00000     3.07524  0.0
     34     35     37     39   5     0.00000     0.00000     3.07524  0.0
     36     35     37     11   5     0.00000     2.52295     0.00000  0.0
     36     35     37     38   5     0.00000     2.52295     0.00000  0.0
     36     35     37     39   5     0.00000     2.52295     0.00000  0.0
     11     37     38     51   5     0.00000     0.00000     1.25520  0.0
     11     37     38     52   5     0.00000     0.00000     1.25520  0.0
     11     37     38     53   5     0.00000     0.00000     1.25520  0.0
     35     37     38     51   5     0.00000     0.00000    -0.94140  0.0
     35     37     38     52   5     0.00000     0.00000    -0.94140  0.0
     35     37     38     53   5     0.00000     0.00000    -0.94140  0.0
     39     37     38     51   5     0.00000     0.00000     1.25520  0.0
     39     37     38     52   5     0.00000     0.00000     1.25520  0.0
     39     37     38     53   5     0.00000     0.00000     1.25520  0.0
     11     37     39     54   5     0.00000     0.00000     1.25520  0.0
     11     37     39     55   5     0.00000     0.00000     1.25520  0.0
     11     37     39     64   5     4.74884    -0.63178     1.67360  0.0
     35     37     39     54   5     0.00000     0.00000    -0.94140  0.0
     35     37     39     55   5     0.00000     0.00000    -0.94140  0.0
     35     37     39     64   5    -8.00818    -1.52298     2.46438  0.0
     38     37     39     54   5     0.00000     0.00000     1.25520  0.0
     38     37     39     55   5     0.00000     0.00000     1.25520  0.0
     38     37     39     64   5     4.74884    -0.63178     1.67360  0.0
     37     39     64     62   5    -8.00818    -1.52298     2.46438  0.0
     37     39     64     65   5     4.74884    -0.63178     1.67360  0.0
     37     39     64     66   5     4.74884    -0.63178     1.67360  0.0
     54     39     64     62   5     0.00000     0.00000    -0.94140  0.0
     54     39     64     65   5     0.00000     0.00000     1.25520  0.0
     54     39     64     66   5     0.00000     0.00000     1.25520  0.0
     55     39     64     62   5     0.00000     0.00000    -0.94140  0.0
     55     39     64     65   5     0.00000     0.00000     1.25520  0.0
     55     39     64     66   5     0.00000     0.00000     1.25520  0.0
     67     56     57     58   5     0.00000     0.00000     1.25520  0.0
     67     56     57     70   5     0.00000     0.00000     1.25520  0.0
     67     56     57     71   5     0.00000     0.00000     1.25520  0.0
     68     56     57     58   5     0.00000     0.00000     1.25520  0.0
     68     56     57     70   5     0.00000     0.00000     1.25520  0.0
     68     56     57     71   5     0.00000     0.00000     1.25520  0.0
     69     56     57     58   5     0.00000     0.00000     1.25520  0.0
     69     56     57     70   5     0.00000     0.00000     1.25520  0.0
     69     56     57     71   5     0.00000     0.00000     1.25520  0.0
     56     57     58     59   5     4.74884    -0.63178     1.67360  0.0
     56     57     58     72   5     0.00000     0.00000     1.25520  0.0
     56     57     58     73   5     0.00000     0.00000     1.25520  0.0
     70     57     58     59   5     0.00000     0.00000     1.25520  0.0
     70     57     58     72   5     0.00000     0.00000     1.25520  0.0
     70     57     58     73   5     0.00000     0.00000     1.25520  0.0
     71     57     58     59   5     0.00000     0.00000     1.25520  0.0
     71     57     58     72   5     0.00000     0.00000     1.25520  0.0
     71     57     58     73   5     0.00000     0.00000     1.25520  0.0
     57     58     59     60   5     4.74884    -0.63178     1.67360  0.0
     57     58     59     74   5     0.00000     0.00000     1.25520  0.0
     57     58     59     75   5     0.00000     0.00000     1.25520  0.0
     72     58     59     60   5     0.00000     0.00000     1.25520  0.0
     72     58     59     74   5     0.00000     0.00000     1.25520  0.0
     72     58     59     75   5     0.00000     0.00000     1.25520  0.0
     73     58     59     60   5     0.00000     0.00000     1.25520  0.0
     73     58     59     74   5     0.00000     0.00000     1.25520  0.0
     73     58     59     75   5     0.00000     0.00000     1.25520  0.0
     58     59     60     61   5     5.25092    -2.58990     2.28446  0.0
     58     59     60     76   5     0.00000     0.00000     1.25520  0.0
     58     59     60     77   5     0.00000     0.00000     1.25520  0.0
     74     59     60     61   5     0.00000     0.00000     1.95811  0.0
     74     59     60     76   5     0.00000     0.00000     1.25520  0.0
     74     59     60     77   5     0.00000     0.00000     1.25520  0.0
     75     59     60     61   5     0.00000     0.00000     1.95811  0.0
     75     59     60     76   5     0.00000     0.00000     1.25520  0.0
     75     59     60     77   5     0.00000     0.00000     1.25520  0.0
     59     60     61     62   5    -2.16731    -3.93296     0.98324  0.0
     76     60     61     62   5     0.00000     0.00000     0.67362  0.0
     77     60     61     62   5     0.00000     0.00000     0.67362  0.0
     60     61     62     63   5     0.00000    25.10400     0.00000  0.0
     60     61     62     64   5    13.65239    24.43456     0.00000  0.0
     61     62     64     39   5     0.00000     0.00000     3.07524  0.0
     61     62     64     65   5     0.00000     0.00000     3.07524  0.0
     61     62     64     66   5     0.00000     0.00000     3.07524  0.0
     63     62     64     39   5     0.00000     2.52295     0.00000  0.0
     63     62     64     65   5     0.00000     2.52295     0.00000  0.0
     63     62     64     66   5     0.00000     2.52295     0.00000  0.0
     39     64     65     78   5     0.00000     0.00000     1.25520  0.0
     39     64     65     79   5     0.00000     0.00000     1.25520  0.0
     39     64     65     80   5     0.00000     0.00000     1.25520  0.0
     62     64     65     78   5     0.00000     0.00000    -0.94140  0.0
     62     64     65     79   5     0.00000     0.00000    -0.94140  0.0
     62     64     65     80   5     0.00000     0.00000    -0.94140  0.0
     66     64     65     78   5     0.00000     0.00000     1.25520  0.0
     66     64     65     79   5     0.00000     0.00000     1.25520  0.0
     66     64     65     80   5     0.00000     0.00000     1.25520  0.0
     39     64     66     81   5     0.00000     0.00000     1.25520  0.0
     39     64     66     82   5     0.00000     0.00000     1.25520  0.0
     39     64     66     91   5     4.74884    -0.63178     1.67360  0.0
     62     64     66     81   5     0.00000     0.00000    -0.94140  0.0
     62     64     66     82   5     0.00000     0.00000    -0.94140  0.0
     62     64     66     91   5    -8.00818    -1.52298     2.46438  0.0
     65     64     66     81   5     0.00000     0.00000     1.25520  0.0
     65     64     66     82   5     0.00000     0.00000     1.25520  0.0
     65     64     66     91   5     4.74884    -0.63178     1.67360  0.0
     64     66     91     89   5    -8.00818    -1.52298     2.46438  0.0
     64     66     91     92   5     4.74884    -0.63178     1.67360  0.0
     64     66     91     93   5     4.74884    -0.63178     1.67360  0.0
     81     66     91     89   5     0.00000     0.00000    -0.94140  0.0
     81     66     91     92   5     0.00000     0.00000     1.25520  0.0
     81     66     91     93   5     0.00000     0.00000     1.25520  0.0
     82     66     91     89   5     0.00000     0.00000    -0.94140  0.0
     82     66     91     92   5     0.00000     0.00000     1.25520  0.0
     82     66     91     93   5     0.00000     0.00000     1.25520  0.0
     94     83     84     85   5     0.00000     0.00000     1.25520  0.0
     94     83     84     97   5     0.00000     0.00000     1.25520  0.0
     94     83     84     98   5     0.00000     0.00000     1.25520  0.0
     95     83     84     85   5     0.00000     0.00000     1.25520  0.0
     95     83     84     97   5     0.00000     0.00000     1.25520  0.0
     95     83     84     98   5     0.00000     0.00000     1.25520  0.0
     96     83     84     85   5     0.00000     0.00000     1.25520  0.0
     96     83     84     97   5     0.00000     0.00000     1.25520  0.0
     96     83     84     98   5     0.00000     0.00000     1.25520  0.0
     83     84     85     86   5     4.74884    -0.63178     1.67360  0.0
     83     84     85     99   5     0.00000     0.00000     1.25520  0.0
     83     84     85    100   5     0.00000     0.00000     1.25520  0.0
     97     84     85     86   5     0.00000     0.00000     1.25520  0.0
     97     84     85     99   5     0.00000     0.00000     1.25520  0.0
     97     84     85    100   5     0.00000     0.00000     1.25520  0.0
     98     84     85     86   5     0.00000     0.00000     1.25520  0.0
     98     84     85     99   5     0.00000     0.00000     1.25520  0.0
     98     84     85    100   5     0.00000     0.00000     1.25520  0.0
     84     85     86     87   5     4.74884    -0.63178     1.67360  0.0
     84     85     86    101   5     0.00000     0.00000     1.25520  0.0
     84     85     86    102   5     0.00000     0.00000     1.25520  0.0
     99     85     86     87   5     0.00000     0.00000     1.25520  0.0
     99     85     86    101   5     0.00000     0.00000     1.25520  0.0
     99     85     86    102   5     0.00000     0.00000     1.25520  0.0
    100     85     86     87   5     0.00000     0.00000     1.25520  0.0
    100     85     86    101   5     0.00000     0.00000     1.25520  0.0
    100     85     86    102   5     0.00000     0.00000     1.25520  0.0
     85     86     87     88   5     5.25092    -2.58990     2.28446  0.0
     85     86     87    103   5     0.00000     0.00000     1.25520  0.0
     85     86     87    104   5     0.00000     0.00000     1.25520  0.0
    101     86     87     88   5     0.00000     0.00000     1.95811  0.0
    101     86     87    103   5     0.00000     0.00000     1.25520  0.0
    101     86     87    104   5     0.00000     0.00000     1.25520  0.0
    102     86     87     88   5     0.00000     0.00000     1.95811  0.0
    102     86     87    103   5     0.00000     0.00000     1.25520  0.0
    102     86     87    104   5     0.00000     0.00000     1.25520  0.0
     86     87     88     89   5    -2.16731    -3.93296     0.98324  0.0
    103     87     88     89   5     0.00000     0.00000     0.67362  0.0
    104     87     88     89   5     0.00000     0.00000     0.67362  0.0
     87     88     89     90   5     0.00000    25.10400     0.00000  0.0
     87     88     89     91   5    13.65239    24.43456     0.00000  0.0
     88     89     91     66   5     0.00000     0.00000     3.07524  0.0
     88     89     91     92   5     0.00000     0.00000     3.07524  0.0
     88     89     91     93   5     0.00000     0.00000     3.07524  0.0
     90     89     91     66   5     0.00000     2.52295     0.00000  0.0
     90     89     91     92   5     0.00000     2.52295     0.00000  0.0
     90     89     91     93   5     0.00000     2.52295     0.00000  0.0
     66     91     92    105   5     0.00000     0.00000     1.25520  0.0
     66     91     92    106   5     0.00000     0.00000     1.25520  0.0
     66     91     92    107   5     0.00000     0.00000     1.25520  0.0
     89     91     92    105   5     0.00000     0.00000    -0.94140  0.0
     89     91     92    106   5     0.00000     0.00000    -0.94140  0.0
     89     91     92    107   5     0.00000     0.00000    -0.94140  0.0
     93     91     92    105   5     0.00000     0.00000     1.25520  0.0
     93     91     92    106   5     0.00000     0.00000     1.25520  0.0
     93     91     92    107   5     0.00000     0.00000     1.25520  0.0
     66     91     93    108   5     0.00000     0.00000     1.25520  0.0
     66     91     93    109   5     0.00000     0.00000     1.25520  0.0
     66     91     93    118   5     4.74884    -0.63178     1.67360  0.0
     89     91     93    108   5     0.00000     0.00000    -0.94140  0.0
     89     91     93    109   5     0.00000     0.00000    -0.94140  0.0
     89     91     93    118   5    -8.00818    -1.52298     2.46438  0.0
     92     91     93    108   5     0.00000     0.00000     1.25520  0.0
     92     91     93    109   5     0.00000     0.00000     1.25520  0.0
     92     91     93    118   5     4.74884    -0.63178     1.67360  0.0
     91     93    118    116   5    -8.00818    -1.52298     2.46438  0.0
     91     93    118    119   5     4.74884    -0.63178     1.67360  0.0
     91     93    118    120   5     4.74884    -0.63178     1.67360  0.0
    108     93    118    116   5     0.00000     0.00000    -0.94140  0.0
    108     93    118    119   5     0.00000     0.00000     1.25520  0.0
    108     93    118    120   5     0.00000     0.00000     1.25520  0.0
    109     93    118    116   5     0.00000     0.00000    -0.94140  0.0
    109     93    118    119   5     0.00000     0.00000     1.25520  0.0
    109     93    118    120   5     0.00000     0.00000     1.25520  0.0
    121    110    111    112   5     0.00000     0.00000     1.25520  0.0
    121    110    111    124   5     0.00000     0.00000     1.25520  0.0
    121    110    111    125   5     0.00000     0.00000     1.25520  0.0
    122    110    111    112   5     0.00000     0.00000     1.25520  0.0
    122    110    111    124   5     0.00000     0.00000     1.25520  0.0
    122    110    111    125   5     0.00000     0.00000     1.25520  0.0
    123    110    111    112   5     0.00000     0.00000     1.25520  0.0
    123    110    111    124   5     0.00000     0.00000     1.25520  0.0
    123    110    111    125   5     0.00000     0.00000     1.25520  0.0
    110    111    112    113   5     4.74884    -0.63178     1.67360  0.0
    110    111    112    126   5     0.00000     0.00000     1.25520  0.0
    110    111    112    127   5     0.00000     0.00000     1.25520  0.0
    124    111    112    113   5     0.00000     0.00000     1.25520  0.0
    124    111    112    126   5     0.00000     0.00000     1.25520  0.0
    124    111    112    127   5     0.00000     0.00000     1.25520  0.0
    125    111    112    113   5     0.00000     0.00000     1.25520  0.0
    125    111    112    126   5     0.00000     0.00000     1.25520  0.0
    125    111    112    127   5     0.00000     0.00000     1.25520  0.0
    111    112    113    114   5     4.74884    -0.63178     1.67360  0.0
    111    112    113    128   5     0.00000     0.00000     1.25520  0.0
    111    112    113    129   5     0.00000     0.00000     1.25520  0.0
    126    112    113    114   5     0.00000     0.00000     1.25520  0.0
    126    112    113    128   5     0.00000     0.00000     1.25520  0.0
    126    112    113    129   5     0.00000     0.00000     1.25520  0.0
    127    112    113    114   5     0.00000     0.00000     1.25520  0.0
    127    112    113    128   5     0.00000     0.00000     1.25520  0.0
    127    112    113    129   5     0.00000     0.00000     1.25520  0.0
    112    113    114    115   5     5.25092    -2.58990     2.28446  0.0
    112    113    114    130   5     0.00000     0.00000     1.25520  0.0
    112    113    114    131   5     0.00000     0.00000     1.25520  0.0
    128    113    114    115   5     0.00000     0.00000     1.95811  0.0
    128    113    114    130   5     0.00000     0.00000     1.25520  0.0
    128    113    114    131   5     0.00000     0.00000     1.25520  0.0
    129    113    114    115   5     0.00000     0.00000     1.95811  0.0
    129    113    114    130   5     0.00000     0.00000     1.25520  0.0
    129    113    114    131   5     0.00000     0.00000     1.25520  0.0
    113    114    115    116   5    -2.16731    -3.93296     0.98324  0.0
    130    114    115    116   5     0.00000     0.00000     0.67362  0.0
    131    114    115    116   5     0.00000     0.00000     0.67362  0.0
    114    115    116    117   5     0.00000    25.10400     0.00000  0.0
    114    115    116    118   5    13.65239    24.43456     0.00000  0.0
    115    116    118     93   5     0.00000     0.00000     3.07524  0.0
    115    116    118    119   5     0.00000     0.00000     3.07524  0.0
    115    116    118    120   5     0.00000     0.00000     3.07524  0.0
    117    116    118     93   5     0.00000     2.52295     0.00000  0.0
    117    116    118    119   5     0.00000     2.52295     0.00000  0.0
    117    116    118    120   5     0.00000     2.52295     0.00000  0.0
     93    118    119    132   5     0.00000     0.00000     1.25520  0.0
     93    118    119    133   5     0.00000     0.00000     1.25520  0.0
     93    118    119    134   5     0.00000     0.00000     1.25520  0.0
    116    118    119    132   5     0.00000     0.00000    -0.94140  0.0
    116    118    119    133   5     0.00000     0.00000    -0.94140  0.0
    116    118    119    134   5     0.00000     0.00000    -0.94140  0.0
    120    118    119    132   5     0.00000     0.00000     1.25520  0.0
    120    118    119    133   5     0.00000     0.00000     1.25520  0.0
    120    118    119    134   5     0.00000     0.00000     1.25520  0.0
     93    118    120    135   5     0.00000     0.00000     1.25520  0.0
     93    118    120    136   5     0.00000     0.00000     1.25520  0.0
     93    118    120    145   5     4.74884    -0.63178     1.67360  0.0
    116    118    120    135   5     0.00000     0.00000    -0.94140  0.0
    116    118    120    136   5     0.00000     0.00000    -0.94140  0.0
    116    118    120    145   5    -8.00818    -1.52298     2.46438  0.0
    119    118    120    135   5     0.00000     0.00000     1.25520  0.0
    119    118    120    136   5     0.00000     0.00000     1.25520  0.0
    119    118    120    145   5     4.74884    -0.63178     1.67360  0.0
    118    120    145    143   5    -8.00818    -1.52298     2.46438  0.0
    118    120    145    146   5     4.74884    -0.63178     1.67360  0.0
    118    120    145    147   5     4.74884    -0.63178     1.67360  0.0
    135    120    145    143   5     0.00000     0.00000    -0.94140  0.0
    135    120    145    146   5     0.00000     0.00000     1.25520  0.0
    135    120    145    147   5     0.00000     0.00000     1.25520  0.0
    136    120    145    143   5     0.00000     0.00000    -0.94140  0.0
    136    120    145    146   5     0.00000     0.00000     1.25520  0.0
    136    120    145    147   5     0.00000     0.00000     1.25520  0.0
    148    137    138    139   5     0.00000     0.00000     1.25520  0.0
    148    137    138    151   5     0.00000     0.00000     1.25520  0.0
    148    137    138    152   5     0.00000     0.00000     1.25520  0.0
    149    137    138    139   5     0.00000     0.00000     1.25520  0.0
    149    137    138    151   5     0.00000     0.00000     1.25520  0.0
    149    137    138    152   5     0.00000     0.00000     1.25520  0.0
    150    137    138    139   5     0.00000     0.00000     1.25520  0.0
    150    137    138    151   5     0.00000     0.00000     1.25520  0.0
    150    137    138    152   5     0.00000     0.00000     1.25520  0.0
    137    138    139    140   5     4.74884    -0.63178     1.67360  0.0
    137    138    139    153   5     0.00000     0.00000     1.25520  0.0
    137    138    139    154   5     0.00000     0.00000     1.25520  0.0
    151    138    139    140   5     0.00000     0.00000     1.25520  0.0
    151    138    139    153   5     0.00000     0.00000     1.25520  0.0
    151    138    139    154   5     0.00000     0.00000     1.25520  0.0
    152    138    139    140   5     0.00000     0.00000     1.25520  0.0
    152    138    139    153   5     0.00000     0.00000     1.25520  0.0
    152    138    139    154   5     0.00000     0.00000     1.25520  0.0
    138    139    140    141   5     4.74884    -0.63178     1.67360  0.0
    138    139    140    155   5     0.00000     0.00000     1.25520  0.0
    138    139    140    156   5     0.00000     0.00000     1.25520  0.0
    153    139    140    141   5     0.00000     0.00000     1.25520  0.0
    153    139    140    155   5     0.00000     0.00000     1.25520  0.0
    153    139    140    156   5     0.00000     0.00000     1.25520  0.0
    154    139    140    141   5     0.00000     0.00000     1.25520  0.0
    154    139    140    155   5     0.00000     0.00000     1.25520  0.0
    154    139    140    156   5     0.00000     0.00000     1.25520  0.0
    139    140    141    142   5     5.25092    -2.58990     2.28446  0.0
    139    140    141    157   5     0.00000     0.00000     1.25520  0.0
    139    140    141    158   5     0.00000     0.00000     1.25520  0.0
    155    140    141    142   5     0.00000     0.00000     1.95811  0.0
    155    140    141    157   5     0.00000     0.00000     1.25520  0.0
    155    140    141    158   5     0.00000     0.00000     1.25520  0.0
    156    140    141    142   5     0.00000     0.00000     1.95811  0.0
    156    140    141    157   5     0.00000     0.00000     1.25520  0.0
    156    140    141    158   5     0.00000     0.00000     1.25520  0.0
    140    141    142    143   5    -2.16731    -3.93296     0.98324  0.0
    157    141    142    143   5     0.00000     0.00000     0.67362  0.0
    158    141    142    143   5     0.00000     0.00000     0.67362  0.0
    141    142    143    144   5     0.00000    25.10400     0.00000  0.0
    141    142    143    145   5    13.65239    24.43456     0.00000  0.0
    142    143    145    120   5     0.00000     0.00000     3.07524  0.0
    142    143    145    146   5     0.00000     0.00000     3.07524  0.0
    142    143    145    147   5     0.00000     0.00000     3.07524  0.0
    144    143    145    120   5     0.00000     2.52295     0.00000  0.0
    144    143    145    146   5     0.00000     2.52295     0.00000  0.0
    144    143    145    147   5     0.00000     2.52295     0.00000  0.0
    120    145    146    159   5     0.00000     0.00000     1.25520  0.0
    120    145    146    160   5     0.00000     0.00000     1.25520  0.0
    120    145    146    161   5     0.00000     0.00000     1.25520  0.0
    143    145    146    159   5     0.00000     0.00000    -0.94140  0.0
    143    145    146    160   5     0.00000     0.00000    -0.94140  0.0
    143    145    146    161   5     0.00000     0.00000    -0.94140  0.0
    147    145    146    159   5     0.00000     0.00000     1.25520  0.0
    147    145    146    160   5     0.00000     0.00000     1.25520  0.0
    147    145    146    161   5     0.00000     0.00000     1.25520  0.0
    120    145    147    162   5     0.00000     0.00000     1.25520  0.0
    120    145    147    163   5     0.00000     0.00000     1.25520  0.0
    120    145    147    172   5     4.74884    -0.63178     1.67360  0.0
    143    145    147    162   5     0.00000     0.00000    -0.94140  0.0
    143    145    147    163   5     0.00000     0.00000    -0.94140  0.0
    143    145    147    172   5    -8.00818    -1.52298     2.46438  0.0
    146    145    147    162   5     0.00000     0.00000     1.25520  0.0
    146    145    147    163   5     0.00000     0.00000     1.25520  0.0
    146    145    147    172   5     4.74884    -0.63178     1.67360  0.0
    145    147    172    170   5    -8.00818    -1.52298     2.46438  0.0
    145    147    172    173   5     4.74884    -0.63178     1.67360  0.0
    145    147    172    174   5     4.74884    -0.63178     1.67360  0.0
    162    147    172    170   5     0.00000     0.00000    -0.94140  0.0
    162    147    172    173   5     0.00000     0.00000     1.25520  0.0
    162    147    172    174   5     0.00000     0.00000     1.25520  0.0
    163    147    172    170   5     0.00000     0.00000    -0.94140  0.0
    163    147    172    173   5     0.00000     0.00000     1.25520  0.0
    163    147    172    174   5     0.00000     0.00000     1.25520  0.0
    175    164    165    166   5     0.00000     0.00000     1.25520  0.0
    175    164    165    178   5     0.00000     0.00000     1.25520  0.0
    175    164    165    179   5     0.00000     0.00000     1.25520  0.0
    176    164    165    166   5     0.00000     0.00000     1.25520  0.0
    176    164    165    178   5     0.00000     0.00000     1.25520  0.0
    176    164    165    179   5     0.00000     0.00000     1.25520  0.0
    177    164    165    166   5     0.00000     0.00000     1.25520  0.0
    177    164    165    178   5     0.00000     0.00000     1.25520  0.0
    177    164    165    179   5     0.00000     0.00000     1.25520  0.0
    164    165    166    167   5     4.74884    -0.63178     1.67360  0.0
    164    165    166    180   5     0.00000     0.00000     1.25520  0.0
    164    165    166    181   5     0.00000     0.00000     1.25520  0.0
    178    165    166    167   5     0.00000     0.00000     1.25520  0.0
    178    165    166    180   5     0.00000     0.00000     1.25520  0.0
    178    165    166    181   5     0.00000     0.00000     1.25520  0.0
    179    165    166    167   5     0.00000     0.00000     1.25520  0.0
    179    165    166    180   5     0.00000     0.00000     1.25520  0.0
    179    165    166    181   5     0.00000     0.00000     1.25520  0.0
    165    166    167    168   5     4.74884    -0.63178     1.67360  0.0
    165    166    167    182   5     0.00000     0.00000     1.25520  0.0
    165    166    167    183   5     0.00000     0.00000     1.25520  0.0
    180    166    167    168   5     0.00000     0.00000     1.25520  0.0
    180    166    167    182   5     0.00000     0.00000     1.25520  0.0
    180    166    167    183   5     0.00000     0.00000     1.25520  0.0
    181    166    167    168   5     0.00000     0.00000     1.25520  0.0
    181    166    167    182   5     0.00000     0.00000     1.25520  0.0
    181    166    167    183   5     0.00000     0.00000     1.25520  0.0
    166    167    168    169   5     5.25092    -2.58990     2.28446  0.0
    166    167    168    184   5     0.00000     0.00000     1.25520  0.0
    166    167    168    185   5     0.00000     0.00000     1.25520  0.0
    182    167    168    169   5     0.00000     0.00000     1.95811  0.0
    182    167    168    184   5     0.00000     0.00000     1.25520  0.0
    182    167    168    185   5     0.00000     0.00000     1.25520  0.0
    183    167    168    169   5     0.00000     0.00000     1.95811  0.0
    183    167    168    184   5     0.00000     0.00000     1.25520  0.0
    183    167    168    185   5     0.00000     0.00000     1.25520  0.0
    167    168    169    170   5    -2.16731    -3.93296     0.98324  0.0
    184    168    169    170   5     0.00000     0.00000     0.67362  0.0
    185    168    169    170   5     0.00000     0.00000     0.67362  0.0
    168    169    170    171   5     0.00000    25.10400     0.00000  0.0
    168    169    170    172   5    13.65239    24.43456     0.00000  0.0
    169    170    172    147   5     0.00000     0.00000     3.07524  0.0
    169    170    172    173   5     0.00000     0.00000     3.07524  0.0
    169    170    172    174   5     0.00000     0.00000     3.07524  0.0
    171    170    172    147   5     0.00000     2.52295     0.00000  0.0
    171    170    172    173   5     0.00000     2.52295     0.00000  0.0
    171    170    172    174   5     0.00000     2.52295     0.00000  0.0
    147    172    173    186   5     0.00000     0.00000     1.25520  0.0
    147    172    173    187   5     0.00000     0.00000     1.25520  0.0
    147    172    173    188   5     0.00000     0.00000     1.25520  0.0
    170    172    173    186   5     0.00000     0.00000    -0.94140  0.0
    170    172    173    187   5     0.00000     0.00000    -0.94140  0.0
    170    172    173    188   5     0.00000     0.00000    -0.94140  0.0
    174    172    173    186   5     0.00000     0.00000     1.25520  0.0
    174    172    173    187   5     0.00000     0.00000     1.25520  0.0
    174    172    173    188   5     0.00000     0.00000     1.25520  0.0
    147    172    174    189   5     0.00000     0.00000     1.25520  0.0
    147    172    174    190   5     0.00000     0.00000     1.25520  0.0
    147    172    174    199   5     4.74884    -0.63178     1.67360  0.0
    170    172    174    189   5     0.00000     0.00000    -0.94140  0.0
    170    172    174    190   5     0.00000     0.00000    -0.94140  0.0
    170    172    174    199   5    -8.00818    -1.52298     2.46438  0.0
    173    172    174    189   5     0.00000     0.00000     1.25520  0.0
    173    172    174    190   5     0.00000     0.00000     1.25520  0.0
    173    172    174    199   5     4.74884    -0.63178     1.67360  0.0
    172    174    199    197   5    -8.00818    -1.52298     2.46438  0.0
    172    174    199    200   5     4.74884    -0.63178     1.67360  0.0
    172    174    199    201   5     4.74884    -0.63178     1.67360  0.0
    189    174    199    197   5     0.00000     0.00000    -0.94140  0.0
    189    174    199    200   5     0.00000     0.00000     1.25520  0.0
    189    174    199    201   5     0.00000     0.00000     1.25520  0.0
    190    174    199    197   5     0.00000     0.00000    -0.94140  0.0
    190    174    199    200   5     0.00000     0.00000     1.25520  0.0
    190    174    199    201   5     0.00000     0.00000     1.25520  0.0
    202    191    192    193   5     0.00000     0.00000     1.25520  0.0
    202    191    192    205   5     0.00000     0.00000     1.25520  0.0
    202    191    192    206   5     0.00000     0.00000     1.25520  0.0
    203    191    192    193   5     0.00000     0.00000     1.25520  0.0
    203    191    192    205   5     0.00000     0.00000     1.25520  0.0
    203    191    192    206   5     0.00000     0.00000     1.25520  0.0
    204    191    192    193   5     0.00000     0.00000     1.25520  0.0
    204    191    192    205   5     0.00000     0.00000     1.25520  0.0
    204    191    192    206   5     0.00000     0.00000     1.25520  0.0
    191    192    193    194   5     4.74884    -0.63178     1.67360  0.0
    191    192    193    207   5     0.00000     0.00000     1.25520  0.0
    191    192    193    208   5     0.00000     0.00000     1.25520  0.0
    205    192    193    194   5     0.00000     0.00000     1.25520  0.0
    205    192    193    207   5     0.00000     0.00000     1.25520  0.0
    205    192    193    208   5     0.00000     0.00000     1.25520  0.0
    206    192    193    194   5     0.00000     0.00000     1.25520  0.0
    206    192    193    207   5     0.00000     0.00000     1.25520  0.0
    206    192    193    208   5     0.00000     0.00000     1.25520  0.0
    192    193    194    195   5     4.74884    -0.63178     1.67360  0.0
    192    193    194    209   5     0.00000     0.00000     1.25520  0.0
    192    193    194    210   5     0.00000     0.00000     1.25520  0.0
    207    193    194    195   5     0.00000     0.00000     1.25520  0.0
    207    193    194    209   5     0.00000     0.00000     1.25520  0.0
    207    193    194    210   5     0.00000     0.00000     1.25520  0.0
    208    193    194    195   5     0.00000     0.00000     1.25520  0.0
    208    193    194    209   5     0.00000     0.00000     1.25520  0.0
    208    193    194    210   5     0.00000     0.00000     1.25520  0.0
    193    194    195    196   5     5.25092    -2.58990     2.28446  0.0
    193    194    195    211   5     0.00000     0.00000     1.25520  0.0
    193    194    195    212   5     0.00000     0.00000     1.25520  0.0
    209    194    195    196   5     0.00000     0.00000     1.95811  0.0
    209    194    195    211   5     0.00000     0.00000     1.25520  0.0
    209    194    195    212   5     0.00000     0.00000     1.25520  0.0
    210    194    195    196   5     0.00000     0.00000     1.95811  0.0
    210    194    195    211   5     0.00000     0.00000     1.25520  0.0
    210    194    195    212   5     0.00000     0.00000     1.25520  0.0
    194    195    196    197   5    -2.16731    -3.93296     0.98324  0.0
    211    195    196    197   5     0.00000     0.00000     0.67362  0.0
    212    195    196    197   5     0.00000     0.00000     0.67362  0.0
    195    196    197    198   5     0.00000    25.10400     0.00000  0.0
    195    196    197    199   5    13.65239    24.43456     0.00000  0.0
    196    197    199    174   5     0.00000     0.00000     3.07524  0.0
    196    197    199    200   5     0.00000     0.00000     3.07524  0.0
    196    197    199    201   5     0.00000     0.00000     3.07524  0.0
    198    197    199    174   5     0.00000     2.52295     0.00000  0.0
    198    197    199    200   5     0.00000     2.52295     0.00000  0.0
    198    197    199    201   5     0.00000     2.52295     0.00000  0.0
    174    199    200    213   5     0.00000     0.00000     1.25520  0.0
    174    199    200    214   5     0.00000     0.00000     1.25520  0.0
    174    199    200    215   5     0.00000     0.00000     1.25520  0.0
    197    199    200    213   5     0.00000     0.00000    -0.94140  0.0
    197    199    200    214   5     0.00000     0.00000    -0.94140  0.0
    197    199    200    215   5     0.00000     0.00000    -0.94140  0.0
    201    199    200    213   5     0.00000     0.00000     1.25520  0.0
    201    199    200    214   5     0.00000     0.00000     1.25520  0.0
    201    199    200    215   5     0.00000     0.00000     1.25520  0.0
    174    199    201    216   5     0.00000     0.00000     1.25520  0.0
    174    199    201    217   5     0.00000     0.00000     1.25520  0.0
    174    199    201    226   5     4.74884    -0.63178     1.67360  0.0
    197    199    201    216   5     0.00000     0.00000    -0.94140  0.0
    197    199    201    217   5     0.00000     0.00000    -0.94140  0.0
    197    199    201    226   5    -8.00818    -1.52298     2.46438  0.0
    200    199    201    216   5     0.00000     0.00000     1.25520  0.0
    200    199    201    217   5     0.00000     0.00000     1.25520  0.0
    200    199    201    226   5     4.74884    -0.63178     1.67360  0.0
    199    201    226    224   5    -8.00818    -1.52298     2.46438  0.0
    199    201    226    227   5     4.74884    -0.63178     1.67360  0.0
    199    201    226    228   5     4.74884    -0.63178     1.67360  0.0
    216    201    226    224   5     0.00000     0.00000    -0.94140  0.0
    216    201    226    227   5     0.00000     0.00000     1.25520  0.0
    216    201    226    228   5     0.00000     0.00000     1.25520  0.0
    217    201    226    224   5     0.00000     0.00000    -0.94140  0.0
    217    201    226    227   5     0.00000     0.00000     1.25520  0.0
    217    201    226    228   5     0.00000     0.00000     1.25520  0.0
    229    218    219    220   5     0.00000     0.00000     1.25520  0.0
    229    218    219    232   5     0.00000     0.00000     1.25520  0.0
    229    218    219    233   5     0.00000     0.00000     1.25520  0.0
    230    218    219    220   5     0.00000     0.00000     1.25520  0.0
    230    218    219    232   5     0.00000     0.00000     1.25520  0.0
    230    218    219    233   5     0.00000     0.00000     1.25520  0.0
    231    218    219    220   5     0.00000     0.00000     1.25520  0.0
    231    218    219    232   5     0.00000     0.00000     1.25520  0.0
    231    218    219    233   5     0.00000     0.00000     1.25520  0.0
    218    219    220    221   5     4.74884    -0.63178     1.67360  0.0
    218    219    220    234   5     0.00000     0.00000     1.25520  0.0
    218    219    220    235   5     0.00000     0.00000     1.25520  0.0
    232    219    220    221   5     0.00000     0.00000     1.25520  0.0
    232    219    220    234   5     0.00000     0.00000     1.25520  0.0
    232    219    220    235   5     0.00000     0.00000     1.25520  0.0
    233    219    220    221   5     0.00000     0.00000     1.25520  0.0
    233    219    220    234   5     0.00000     0.00000     1.25520  0.0
    233    219    220    235   5     0.00000     0.00000     1.25520  0.0
    219    220    221    222   5     4.74884    -0.63178     1.67360  0.0
    219    220    221    236   5     0.00000     0.00000     1.25520  0.0
    219    220    221    237   5     0.00000     0.00000     1.25520  0.0
    234    220    221    222   5     0.00000     0.00000     1.25520  0.0
    234    220    221    236   5     0.00000     0.00000     1.25520  0.0
    234    220    221    237   5     0.00000     0.00000     1.25520  0.0
    235    220    221    222   5     0.00000     0.00000     1.25520  0.0
    235    220    221    236   5     0.00000     0.00000     1.25520  0.0
    235    220    221    237   5     0.00000     0.00000     1.25520  0.0
    220    221    222    223   5     5.25092    -2.58990     2.28446  0.0
    220    221    222    238   5     0.00000     0.00000     1.25520  0.0
    220    221    222    239   5     0.00000     0.00000     1.25520  0.0
    236    221    222    223   5     0.00000     0.00000     1.95811  0.0
    236    221    222    238   5     0.00000     0.00000     1.25520  0.0
    236    221    222    239   5     0.00000     0.00000     1.25520  0.0
    237    221    222    223   5     0.00000     0.00000     1.95811  0.0
    237    221    222    238   5     0.00000     0.00000     1.25520  0.0
    237    221    222    239   5     0.00000     0.00000     1.25520  0.0
    221    222    223    224   5    -2.16731    -3.93296     0.98324  0.0
    238    222    223    224   5     0.00000     0.00000     0.67362  0.0
    239    222    223    224   5     0.00000     0.00000     0.67362  0.0
    222    223    224    225   5     0.00000    25.10400     0.00000  0.0
    222    223    224    226   5    13.65239    24.43456     0.00000  0.0
    223    224    226    201   5     0.00000     0.00000     3.07524  0.0
    223    224    226    227   5     0.00000     0.00000     3.07524  0.0
    223    224    226    228   5     0.00000     0.00000     3.07524  0.0
    225    224    226    201   5     0.00000     2.52295     0.00000  0.0
    225    224    226    227   5     0.00000     2.52295     0.00000  0.0
    225    224    226    228   5     0.00000     2.52295     0.00000  0.0
    201    226    227    240   5     0.00000     0.00000     1.25520  0.0
    201    226    227    241   5     0.00000     0.00000     1.25520  0.0
    201    226    227    242   5     0.00000     0.00000     1.25520  0.0
    224    226    227    240   5     0.00000     0.00000    -0.94140  0.0
    224    226    227    241   5     0.00000     0.00000    -0.94140  0.0
    224    226    227    242   5     0.00000     0.00000    -0.94140  0.0
    228    226    227    240   5     0.00000     0.00000     1.25520  0.0
    228    226    227    241   5     0.00000     0.00000     1.25520  0.0
    228    226    227    242   5     0.00000     0.00000     1.25520  0.0
    201    226    228    243   5     0.00000     0.00000     1.25520  0.0
    201    226    228    244   5     0.00000     0.00000     1.25520  0.0
    201    226    228    253   5     4.74884    -0.63178     1.67360  0.0
    224    226    228    243   5     0.00000     0.00000    -0.94140  0.0
    224    226    228    244   5     0.00000     0.00000    -0.94140  0.0
    224    226    228    253   5    -8.00818    -1.52298     2.46438  0.0
    227    226    228    243   5     0.00000     0.00000     1.25520  0.0
    227    226    228    244   5     0.00000     0.00000     1.25520  0.0
    227    226    228    253   5     4.74884    -0.63178     1.67360  0.0
    226    228    253    251   5    -8.00818    -1.52298     2.46438  0.0
    226    228    253    254   5     4.74884    -0.63178     1.67360  0.0
    226    228    253    255   5     4.74884    -0.63178     1.67360  0.0
    243    228    253    251   5     0.00000     0.00000    -0.94140  0.0
    243    228    253    254   5     0.00000     0.00000     1.25520  0.0
    243    228    253    255   5     0.00000     0.00000     1.25520  0.0
    244    228    253    251   5     0.00000     0.00000    -0.94140  0.0
    244    228    253    254   5     0.00000     0.00000     1.25520  0.0
    244    228    253    255   5     0.00000     0.00000     1.25520  0.0
    256    245    246    247   5     0.00000     0.00000     1.25520  0.0
    256    245    246    259   5     0.00000     0.00000     1.25520  0.0
    256    245    246    260   5     0.00000     0.00000     1.25520  0.0
    257    245    246    247   5     0.00000     0.00000     1.25520  0.0
    257    245    246    259   5     0.00000     0.00000     1.25520  0.0
    257    245    246    260   5     0.00000     0.00000     1.25520  0.0
    258    245    246    247   5     0.00000     0.00000     1.25520  0.0
    258    245    246    259   5     0.00000     0.00000     1.25520  0.0
    258    245    246    260   5     0.00000     0.00000     1.25520  0.0
    245    246    247    248   5     4.74884    -0.63178     1.67360  0.0
    245    246    247    261   5     0.00000     0.00000     1.25520  0.0
    245    246    247    262   5     0.00000     0.00000     1.25520  0.0
    259    246    247    248   5     0.00000     0.00000     1.25520  0.0
    259    246    247    261   5     0.00000     0.00000     1.25520  0.0
    259    246    247    262   5     0.00000     0.00000     1.25520  0.0
    260    246    247    248   5     0.00000     0.00000     1.25520  0.0
    260    246    247    261   5     0.00000     0.00000     1.25520  0.0
    260    246    247    262   5     0.00000     0.00000     1.25520  0.0
    246    247    248    249   5     4.74884    -0.63178     1.67360  0.0
    246    247    248    263   5     0.00000     0.00000     1.25520  0.0
    246    247    248    264   5     0.00000     0.00000     1.25520  0.0
    261    247    248    249   5     0.00000     0.00000     1.25520  0.0
    261    247    248    263   5     0.00000     0.00000     1.25520  0.0
    261    247    248    264   5     0.00000     0.00000     1.25520  0.0
    262    247    248    249   5     0.00000     0.00000     1.25520  0.0
    262    247    248    263   5     0.00000     0.00000     1.25520  0.0
    262    247    248    264   5     0.00000     0.00000     1.25520  0.0
    247    248    249    250   5     5.25092    -2.58990     2.28446  0.0
    247    248    249    265   5     0.00000     0.00000     1.25520  0.0
    247    248    249    266   5     0.00000     0.00000     1.25520  0.0
    263    248    249    250   5     0.00000     0.00000     1.95811  0.0
    263    248    249    265   5     0.00000     0.00000     1.25520  0.0
    263    248    249    266   5     0.00000     0.00000     1.25520  0.0
    264    248    249    250   5     0.00000     0.00000     1.95811  0.0
    264    248    249    265   5     0.00000     0.00000     1.25520  0.0
    264    248    249    266   5     0.00000     0.00000     1.25520  0.0
    248    249    250    251   5    -2.16731    -3.93296     0.98324  0.0
    265    249    250    251   5     0.00000     0.00000     0.67362  0.0
    266    249    250    251   5     0.00000     0.00000     0.67362  0.0
    249    250    251    252   5     0.00000    25.10400     0.00000  0.0
    249    250    251    253   5    13.65239    24.43456     0.00000  0.0
    250    251    253    228   5     0.00000     0.00000     3.07524  0.0
    250    251    253    254   5     0.00000     0.00000     3.07524  0.0
    250    251    253    255   5     0.00000     0.00000     3.07524  0.0
    252    251    253    228   5     0.00000     2.52295     0.00000  0.0
    252    251    253    254   5     0.00000     2.52295     0.00000  0.0
    252    251    253    255   5     0.00000     2.52295     0.00000  0.0
    228    253    254    267   5     0.00000     0.00000     1.25520  0.0
    228    253    254    268   5     0.00000     0.00000     1.25520  0.0
    228    253    254    269   5     0.00000     0.00000     1.25520  0.0
    251    253    254    267   5     0.00000     0.00000    -0.94140  0.0
    251    253    254    268   5     0.00000     0.00000    -0.94140  0.0
    251    253    254    269   5     0.00000     0.00000    -0.94140  0.0
    255    253    254    267   5     0.00000     0.00000     1.25520  0.0
    255    253    254    268   5     0.00000     0.00000     1.25520  0.0
    255    253    254    269   5     0.00000     0.00000     1.25520  0.0
    228    253    255    270   5     0.00000     0.00000     1.25520  0.0
    228    253    255    271   5     0.00000     0.00000     1.25520  0.0
    228    253    255    280   5     4.74884    -0.63178     1.67360  0.0
    251    253    255    270   5     0.00000     0.00000    -0.94140  0.0
    251    253    255    271   5     0.00000     0.00000    -0.94140  0.0
    251    253    255    280   5    -8.00818    -1.52298     2.46438  0.0
    254    253    255    270   5     0.00000     0.00000     1.25520  0.0
    254    253    255    271   5     0.00000     0.00000     1.25520  0.0
    254    253    255    280   5     4.74884    -0.63178     1.67360  0.0
    253    255    280    278   5    -8.00818    -1.52298     2.46438  0.0
    253    255    280    281   5     4.74884    -0.63178     1.67360  0.0
    253    255    280    282   5     4.74884    -0.63178     1.67360  0.0
    270    255    280    278   5     0.00000     0.00000    -0.94140  0.0
    270    255    280    281   5     0.00000     0.00000     1.25520  0.0
    270    255    280    282   5     0.00000     0.00000     1.25520  0.0
    271    255    280    278   5     0.00000     0.00000    -0.94140  0.0
    271    255    280    281   5     0.00000     0.00000     1.25520  0.0
    271    255    280    282   5     0.00000     0.00000     1.25520  0.0
    283    272    273    274   5     0.00000     0.00000     1.25520  0.0
    283    272    273    286   5     0.00000     0.00000     1.25520  0.0
    283    272    273    287   5     0.00000     0.00000     1.25520  0.0
    284    272    273    274   5     0.00000     0.00000     1.25520  0.0
    284    272    273    286   5     0.00000     0.00000     1.25520  0.0
    284    272    273    287   5     0.00000     0.00000     1.25520  0.0
    285    272    273    274   5     0.00000     0.00000     1.25520  0.0
    285    272    273    286   5     0.00000     0.00000     1.25520  0.0
    285    272    273    287   5     0.00000     0.00000     1.25520  0.0
    272    273    274    275   5     4.74884    -0.63178     1.67360  0.0
    272    273    274    288   5     0.00000     0.00000     1.25520  0.0
    272    273    274    289   5     0.00000     0.00000     1.25520  0.0
    286    273    274    275   5     0.00000     0.00000     1.25520  0.0
    286    273    274    288   5     0.00000     0.00000     1.25520  0.0
    286    273    274    289   5     0.00000     0.00000     1.25520  0.0
    287    273    274    275   5     0.00000     0.00000     1.25520  0.0
    287    273    274    288   5     0.00000     0.00000     1.25520  0.0
    287    273    274    289   5     0.00000     0.00000     1.25520  0.0
    273    274    275    276   5     4.74884    -0.63178     1.67360  0.0
    273    274    275    290   5     0.00000     0.00000     1.25520  0.0
    273    274    275    291   5     0.00000     0.00000     1.25520  0.0
    288    274    275    276   5     0.00000     0.00000     1.25520  0.0
    288    274    275    290   5     0.00000     0.00000     1.25520  0.0
    288    274    275    291   5     0.00000     0.00000     1.25520  0.0
    289    274    275    276   5     0.00000     0.00000     1.25520  0.0
    289    274    275    290   5     0.00000     0.00000     1.25520  0.0
    289    274    275    291   5     0.00000     0.00000     1.25520  0.0
    274    275    276    277   5     5.25092    -2.58990     2.28446  0.0
    274    275    276    292   5     0.00000     0.00000     1.25520  0.0
    274    275    276    293   5     0.00000     0.00000     1.25520  0.0
    290    275    276    277   5     0.00000     0.00000     1.95811  0.0
    290    275    276    292   5     0.00000     0.00000     1.25520  0.0
    290    275    276    293   5     0.00000     0.00000     1.25520  0.0
    291    275    276    277   5     0.00000     0.00000     1.95811  0.0
    291    275    276    292   5     0.00000     0.00000     1.25520  0.0
    291    275    276    293   5     0.00000     0.00000     1.25520  0.0
    275    276    277    278   5    -2.16731    -3.93296     0.98324  0.0
    292    276    277    278   5     0.00000     0.00000     0.67362  0.0
    293    276    277    278   5     0.00000     0.00000     0.67362  0.0
    276    277    278    279   5     0.00000    25.10400     0.00000  0.0
    276    277    278    280   5    13.65239    24.43456     0.00000  0.0
    277    278    280    255   5     0.00000     0.00000     3.07524  0.0
    277    278    280    281   5     0.00000     0.00000     3.07524  0.0
    277    278    280    282   5     0.00000     0.00000     3.07524  0.0
    279    278    280    255   5     0.00000     2.52295     0.00000  0.0
    279    278    280    281   5     0.00000     2.52295     0.00000  0.0
    279    278    280    282   5     0.00000     2.52295     0.00000  0.0
    255    280    281    294   5     0.00000     0.00000     1.25520  0.0
    255    280    281    295   5     0.00000     0.00000     1.25520  0.0
    255    280    281    296   5     0.00000     0.00000     1.25520  0.0
    278    280    281    294   5     0.00000     0.00000    -0.94140  0.0
    278    280    281    295   5     0.00000     0.00000    -0.94140  0.0
    278    280    281    296   5     0.00000     0.00000    -0.94140  0.0
    282    280    281    294   5     0.00000     0.00000     1.25520  0.0
    282    280    281    295   5     0.00000     0.00000     1.25520  0.0
    282    280    281    296   5     0.00000     0.00000     1.25520  0.0
    255    280    282    297   5     0.00000     0.00000     1.25520  0.0
    255    280    282    298   5     0.00000     0.00000     1.25520  0.0
    255    280    282    307   5     4.74884    -0.63178     1.67360  0.0
    278    280    282    297   5     0.00000     0.00000    -0.94140  0.0
    278    280    282    298   5     0.00000     0.00000    -0.94140  0.0
    278    280    282    307   5    -8.00818    -1.52298     2.46438  0.0
    281    280    282    297   5     0.00000     0.00000     1.25520  0.0
    281    280    282    298   5     0.00000     0.00000     1.25520  0.0
    281    280    282    307   5     4.74884    -0.63178     1.67360  0.0
    280    282    307    305   5    -8.00818    -1.52298     2.46438  0.0
    280    282    307    308   5     4.74884    -0.63178     1.67360  0.0
    280    282    307    309   5     4.74884    -0.63178     1.67360  0.0
    297    282    307    305   5     0.00000     0.00000    -0.94140  0.0
    297    282    307    308   5     0.00000     0.00000     1.25520  0.0
    297    282    307    309   5     0.00000     0.00000     1.25520  0.0
    298    282    307    305   5     0.00000     0.00000    -0.94140  0.0
    298    282    307    308   5     0.00000     0.00000     1.25520  0.0
    298    282    307    309   5     0.00000     0.00000     1.25520  0.0
    310    299    300    301   5     0.00000     0.00000     1.25520  0.0
    310    299    300    313   5     0.00000     0.00000     1.25520  0.0
    310    299    300    314   5     0.00000     0.00000     1.25520  0.0
    311    299    300    301   5     0.00000     0.00000     1.25520  0.0
    311    299    300    313   5     0.00000     0.00000     1.25520  0.0
    311    299    300    314   5     0.00000     0.00000     1.25520  0.0
    312    299    300    301   5     0.00000     0.00000     1.25520  0.0
    312    299    300    313   5     0.00000     0.00000     1.25520  0.0
    312    299    300    314   5     0.00000     0.00000     1.25520  0.0
    299    300    301    302   5     4.74884    -0.63178     1.67360  0.0
    299    300    301    315   5     0.00000     0.00000     1.25520  0.0
    299    300    301    316   5     0.00000     0.00000     1.25520  0.0
    313    300    301    302   5     0.00000     0.00000     1.25520  0.0
    313    300    301    315   5     0.00000     0.00000     1.25520  0.0
    313    300    301    316   5     0.00000     0.00000     1.25520  0.0
    314    300    301    302   5     0.00000     0.00000     1.25520  0.0
    314    300    301    315   5     0.00000     0.00000     1.25520  0.0
    314    300    301    316   5     0.00000     0.00000     1.25520  0.0
    300    301    302    303   5     4.74884    -0.63178     1.67360  0.0
    300    301    302    317   5     0.00000     0.00000     1.25520  0.0
    300    301    302    318   5     0.00000     0.00000     1.25520  0.0
    315    301    302    303   5     0.00000     0.00000     1.25520  0.0
    315    301    302    317   5     0.00000     0.00000     1.25520  0.0
    315    301    302    318   5     0.00000     0.00000     1.25520  0.0
    316    301    302    303   5     0.00000     0.00000     1.25520  0.0
    316    301    302    317   5     0.00000     0.00000     1.25520  0.0
    316    301    302    318   5     0.00000     0.00000     1.25520  0.0
    301    302    303    304   5     5.25092    -2.58990     2.28446  0.0
    301    302    303    319   5     0.00000     0.00000     1.25520  0.0
    301    302    303    320   5     0.00000     0.00000     1.25520  0.0
    317    302    303    304   5     0.00000     0.00000     1.95811  0.0
    317    302    303    319   5     0.00000     0.00000     1.25520  0.0
    317    302    303    320   5     0.00000     0.00000     1.25520  0.0
    318    302    303    304   5     0.00000     0.00000     1.95811  0.0
    318    302    303    319   5     0.00000     0.00000     1.25520  0.0
    318    302    303    320   5     0.00000     0.00000     1.25520  0.0
    302    303    304    305   5    -2.16731    -3.93296     0.98324  0.0
    319    303    304    305   5     0.00000     0.00000     0.67362  0.0
    320    303    304    305   5     0.00000     0.00000     0.67362  0.0
    303    304    305    306   5     0.00000    25.10400     0.00000  0.0
    303    304    305    307   5    13.65239    24.43456     0.00000  0.0
    304    305    307    282   5     0.00000     0.00000     3.07524  0.0
    304    305    307    308   5     0.00000     0.00000     3.07524  0.0
    304    305    307    309   5     0.00000     0.00000     3.07524  0.0
    306    305    307    282   5     0.00000     2.52295     0.00000  0.0
    306    305    307    308   5     0.00000     2.52295     0.00000  0.0
    306    305    307    309   5     0.00000     2.52295     0.00000  0.0
    282    307    308    321   5     0.00000     0.00000     1.25520  0.0
    282    307    308    322   5     0.00000     0.00000     1.25520  0.0
    282    307    308    323   5     0.00000     0.00000     1.25520  0.0
    305    307    308    321   5     0.00000     0.00000    -0.94140  0.0
    305    307    308    322   5     0.00000     0.00000    -0.94140  0.0
    305    307    308    323   5     0.00000     0.00000    -0.94140  0.0
    309    307    308    321   5     0.00000     0.00000     1.25520  0.0
    309    307    308    322   5     0.00000     0.00000     1.25520  0.0
    309    307    308    323   5     0.00000     0.00000     1.25520  0.0
    282    307    309    324   5     0.00000     0.00000     1.25520  0.0
    282    307    309    325   5     0.00000     0.00000     1.25520  0.0
    282    307    309    334   5     4.74884    -0.63178     1.67360  0.0
    305    307    309    324   5     0.00000     0.00000    -0.94140  0.0
    305    307    309    325   5     0.00000     0.00000    -0.94140  0.0
    305    307    309    334   5    -8.00818    -1.52298     2.46438  0.0
    308    307    309    324   5     0.00000     0.00000     1.25520  0.0
    308    307    309    325   5     0.00000     0.00000     1.25520  0.0
    308    307    309    334   5     4.74884    -0.63178     1.67360  0.0
    307    309    334    332   5    -8.00818    -1.52298     2.46438  0.0
    307    309    334    335   5     4.74884    -0.63178     1.67360  0.0
    307    309    334    336   5     4.74884    -0.63178     1.67360  0.0
    324    309    334    332   5     0.00000     0.00000    -0.94140  0.0
    324    309    334    335   5     0.00000     0.00000     1.25520  0.0
    324    309    334    336   5     0.00000     0.00000     1.25520  0.0
    325    309    334    332   5     0.00000     0.00000    -0.94140  0.0
    325    309    334    335   5     0.00000     0.00000     1.25520  0.0
    325    309    334    336   5     0.00000     0.00000     1.25520  0.0
    337    326    327    328   5     0.00000     0.00000     1.25520  0.0
    337    326    327    340   5     0.00000     0.00000     1.25520  0.0
    337    326    327    341   5     0.00000     0.00000     1.25520  0.0
    338    326    327    328   5     0.00000     0.00000     1.25520  0.0
    338    326    327    340   5     0.00000     0.00000     1.25520  0.0
    338    326    327    341   5     0.00000     0.00000     1.25520  0.0
    339    326    327    328   5     0.00000     0.00000     1.25520  0.0
    339    326    327    340   5     0.00000     0.00000     1.25520  0.0
    339    326    327    341   5     0.00000     0.00000     1.25520  0.0
    326    327    328    329   5     4.74884    -0.63178     1.67360  0.0
    326    327    328    342   5     0.00000     0.00000     1.25520  0.0
    326    327    328    343   5     0.00000     0.00000     1.25520  0.0
    340    327    328    329   5     0.00000     0.00000     1.25520  0.0
    340    327    328    342   5     0.00000     0.00000     1.25520  0.0
    340    327    328    343   5     0.00000     0.00000     1.25520  0.0
    341    327    328    329   5     0.00000     0.00000     1.25520  0.0
    341    327    328    342   5     0.00000     0.00000     1.25520  0.0
    341    327    328    343   5     0.00000     0.00000     1.25520  0.0
    327    328    329    330   5     4.74884    -0.63178     1.67360  0.0
    327    328    329    344   5     0.00000     0.00000     1.25520  0.0
    327    328    329    345   5     0.00000     0.00000     1.25520  0.0
    342    328    329    330   5     0.00000     0.00000     1.25520  0.0
    342    328    329    344   5     0.00000     0.00000     1.25520  0.0
    342    328    329    345   5     0.00000     0.00000     1.25520  0.0
    343    328    329    330   5     0.00000     0.00000     1.25520  0.0
    343    328    329    344   5     0.00000     0.00000     1.25520  0.0
    343    328    329    345   5     0.00000     0.00000     1.25520  0.0
    328    329    330    331   5     5.25092    -2.58990     2.28446  0.0
    328    329    330    346   5     0.00000     0.00000     1.25520  0.0
    328    329    330    347   5     0.00000     0.00000     1.25520  0.0
    344    329    330    331   5     0.00000     0.00000     1.95811  0.0
    344    329    330    346   5     0.00000     0.00000     1.25520  0.0
    344    329    330    347   5     0.00000     0.00000     1.25520  0.0
    345    329    330    331   5     0.00000     0.00000     1.95811  0.0
    345    329    330    346   5     0.00000     0.00000     1.25520  0.0
    345    329    330    347   5     0.00000     0.00000     1.25520  0.0
    329    330    331    332   5    -2.16731    -3.93296     0.98324  0.0
    346    330    331    332   5     0.00000     0.00000     0.67362  0.0
    347    330    331    332   5     0.00000     0.00000     0.67362  0.0
    330    331    332    333   5     0.00000    25.10400     0.00000  0.0
    330    331    332    334   5    13.65239    24.43456     0.00000  0.0
    331    332    334    309   5     0.00000     0.00000     3.07524  0.0
    331    332    334    335   5     0.00000     0.00000     3.07524  0.0
    331    332    334    336   5     0.00000     0.00000     3.07524  0.0
    333    332    334    309   5     0.00000     2.52295     0.00000  0.0
    333    332    334    335   5     0.00000     2.52295     0.00000  0.0
    333    332    334    336   5     0.00000     2.52295     0.00000  0.0
    309    334    335    348   5     0.00000     0.00000     1.25520  0.0
    309    334    335    349   5     0.00000     0.00000     1.25520  0.0
    309    334    335    350   5     0.00000     0.00000     1.25520  0.0
    332    334    335    348   5     0.00000     0.00000    -0.94140  0.0
    332    334    335    349   5     0.00000     0.00000    -0.94140  0.0
    332    334    335    350   5     0.00000     0.00000    -0.94140  0.0
    336    334    335    348   5     0.00000     0.00000     1.25520  0.0
    336    334    335    349   5     0.00000     0.00000     1.25520  0.0
    336    334    335    350   5     0.00000     0.00000     1.25520  0.0
    309    334    336    351   5     0.00000     0.00000     1.25520  0.0
    309    334    336    352   5     0.00000     0.00000     1.25520  0.0
    309    334    336    361   5     4.74884    -0.63178     1.67360  0.0
    332    334    336    351   5     0.00000     0.00000    -0.94140  0.0
    332    334    336    352   5     0.00000     0.00000    -0.94140  0.0
    332    334    336    361   5    -8.00818    -1.52298     2.46438  0.0
    335    334    336    351   5     0.00000     0.00000     1.25520  0.0
    335    334    336    352   5     0.00000     0.00000     1.25520  0.0
    335    334    336    361   5     4.74884    -0.63178     1.67360  0.0
    334    336    361    359   5    -8.00818    -1.52298     2.46438  0.0
    334    336    361    362   5     4.74884    -0.63178     1.67360  0.0
    334    336    361    363   5     4.74884    -0.63178     1.67360  0.0
    351    336    361    359   5     0.00000     0.00000    -0.94140  0.0
    351    336    361    362   5     0.00000     0.00000     1.25520  0.0
    351    336    361    363   5     0.00000     0.00000     1.25520  0.0
    352    336    361    359   5     0.00000     0.00000    -0.94140  0.0
    352    336    361    362   5     0.00000     0.00000     1.25520  0.0
    352    336    361    363   5     0.00000     0.00000     1.25520  0.0
    364    353    354    355   5     0.00000     0.00000     1.25520  0.0
    364    353    354    367   5     0.00000     0.00000     1.25520  0.0
    364    353    354    368   5     0.00000     0.00000     1.25520  0.0
    365    353    354    355   5     0.00000     0.00000     1.25520  0.0
    365    353    354    367   5     0.00000     0.00000     1.25520  0.0
    365    353    354    368   5     0.00000     0.00000     1.25520  0.0
    366    353    354    355   5     0.00000     0.00000     1.25520  0.0
    366    353    354    367   5     0.00000     0.00000     1.25520  0.0
    366    353    354    368   5     0.00000     0.00000     1.25520  0.0
    353    354    355    356   5     4.74884    -0.63178     1.67360  0.0
    353    354    355    369   5     0.00000     0.00000     1.25520  0.0
    353    354    355    370   5     0.00000     0.00000     1.25520  0.0
    367    354    355    356   5     0.00000     0.00000     1.25520  0.0
    367    354    355    369   5     0.00000     0.00000     1.25520  0.0
    367    354    355    370   5     0.00000     0.00000     1.25520  0.0
    368    354    355    356   5     0.00000     0.00000     1.25520  0.0
    368    354    355    369   5     0.00000     0.00000     1.25520  0.0
    368    354    355    370   5     0.00000     0.00000     1.25520  0.0
    354    355    356    357   5     4.74884    -0.63178     1.67360  0.0
    354    355    356    371   5     0.00000     0.00000     1.25520  0.0
    354    355    356    372   5     0.00000     0.00000     1.25520  0.0
    369    355    356    357   5     0.00000     0.00000     1.25520  0.0
    369    355    356    371   5     0.00000     0.00000     1.25520  0.0
    369    355    356    372   5     0.00000     0.00000     1.25520  0.0
    370    355    356    357   5     0.00000     0.00000     1.25520  0.0
    370    355    356    371   5     0.00000     0.00000     1.25520  0.0
    370    355    356    372   5     0.00000     0.00000     1.25520  0.0
    355    356    357    358   5     5.25092    -2.58990     2.28446  0.0
    355    356    357    373   5     0.00000     0.00000     1.25520  0.0
    355    356    357    374   5     0.00000     0.00000     1.25520  0.0
    371    356    357    358   5     0.00000     0.00000     1.95811  0.0
    371    356    357    373   5     0.00000     0.00000     1.25520  0.0
    371    356    357    374   5     0.00000     0.00000     1.25520  0.0
    372    356    357    358   5     0.00000     0.00000     1.95811  0.0
    372    356    357    373   5     0.00000     0.00000     1.25520  0.0
    372    356    357    374   5     0.00000     0.00000     1.25520  0.0
    356    357    358    359   5    -2.16731    -3.93296     0.98324  0.0
    373    357    358    359   5     0.00000     0.00000     0.67362  0.0
    374    357    358    359   5     0.00000     0.00000     0.67362  0.0
    357    358    359    360   5     0.00000    25.10400     0.00000  0.0
    357    358    359    361   5    13.65239    24.43456     0.00000  0.0
    358    359    361    336   5     0.00000     0.00000     3.07524  0.0
    358    359    361    362   5     0.00000     0.00000     3.07524  0.0
    358    359    361    363   5     0.00000     0.00000     3.07524  0.0
    360    359    361    336   5     0.00000     2.52295     0.00000  0.0
    360    359    361    362   5     0.00000     2.52295     0.00000  0.0
    360    359    361    363   5     0.00000     2.52295     0.00000  0.0
    336    361    362    375   5     0.00000     0.00000     1.25520  0.0
    336    361    362    376   5     0.00000     0.00000     1.25520  0.0
    336    361    362    377   5     0.00000     0.00000     1.25520  0.0
    359    361    362    375   5     0.00000     0.00000    -0.94140  0.0
    359    361    362    376   5     0.00000     0.00000    -0.94140  0.0
    359    361    362    377   5     0.00000     0.00000    -0.94140  0.0
    363    361    362    375   5     0.00000     0.00000     1.25520  0.0
    363    361    362    376   5     0.00000     0.00000     1.25520  0.0
    363    361    362    377   5     0.00000     0.00000     1.25520  0.0
    336    361    363    378   5     0.00000     0.00000     1.25520  0.0
    336    361    363    379   5     0.00000     0.00000     1.25520  0.0
    336    361    363    388   5     4.74884    -0.63178     1.67360  0.0
    359    361    363    378   5     0.00000     0.00000    -0.94140  0.0
    359    361    363    379   5     0.00000     0.00000    -0.94140  0.0
    359    361    363    388   5    -8.00818    -1.52298     2.46438  0.0
    362    361    363    378   5     0.00000     0.00000     1.25520  0.0
    362    361    363    379   5     0.00000     0.00000     1.25520  0.0
    362    361    363    388   5     4.74884    -0.63178     1.67360  0.0
    361    363    388    386   5    -8.00818    -1.52298     2.46438  0.0
    361    363    388    389   5     4.74884    -0.63178     1.67360  0.0
    361    363    388    390   5     4.74884    -0.63178     1.67360  0.0
    378    363    388    386   5     0.00000     0.00000    -0.94140  0.0
    378    363    388    389   5     0.00000     0.00000     1.25520  0.0
    378    363    388    390   5     0.00000     0.00000     1.25520  0.0
    379    363    388    386   5     0.00000     0.00000    -0.94140  0.0
    379    363    388    389   5     0.00000     0.00000     1.25520  0.0
    379    363    388    390   5     0.00000     0.00000     1.25520  0.0
    391    380    381    382   5     0.00000     0.00000     1.25520  0.0
    391    380    381    394   5     0.00000     0.00000     1.25520  0.0
    391    380    381    395   5     0.00000     0.00000     1.25520  0.0
    392    380    381    382   5     0.00000     0.00000     1.25520  0.0
    392    380    381    394   5     0.00000     0.00000     1.25520  0.0
    392    380    381    395   5     0.00000     0.00000     1.25520  0.0
    393    380    381    382   5     0.00000     0.00000     1.25520  0.0
    393    380    381    394   5     0.00000     0.00000     1.25520  0.0
    393    380    381    395   5     0.00000     0.00000     1.25520  0.0
    380    381    382    383   5     4.74884    -0.63178     1.67360  0.0
    380    381    382    396   5     0.00000     0.00000     1.25520  0.0
    380    381    382    397   5     0.00000     0.00000     1.25520  0.0
    394    381    382    383   5     0.00000     0.00000     1.25520  0.0
    394    381    382    396   5     0.00000     0.00000     1.25520  0.0
    394    381    382    397   5     0.00000     0.00000     1.25520  0.0
    395    381    382    383   5     0.00000     0.00000     1.25520  0.0
    395    381    382    396   5     0.00000     0.00000     1.25520  0.0
    395    381    382    397   5     0.00000     0.00000     1.25520  0.0
    381    382    383    384   5     4.74884    -0.63178     1.67360  0.0
    381    382    383    398   5     0.00000     0.00000     1.25520  0.0
    381    382    383    399   5     0.00000     0.00000     1.25520  0.0
    396    382    383    384   5     0.00000     0.00000     1.25520  0.0
    396    382    383    398   5     0.00000     0.00000     1.25520  0.0
    396    382    383    399   5     0.00000     0.00000     1.25520  0.0
    397    382    383    384   5     0.00000     0.00000     1.25520  0.0
    397    382    383    398   5     0.00000     0.00000     1.25520  0.0
    397    382    383    399   5     0.00000     0.00000     1.25520  0.0
    382    383    384    385   5     5.25092    -2.58990     2.28446  0.0
    382    383    384    400   5     0.00000     0.00000     1.25520  0.0
    382    383    384    401   5     0.00000     0.00000     1.25520  0.0
    398    383    384    385   5     0.00000     0.00000     1.95811  0.0
    398    383    384    400   5     0.00000     0.00000     1.25520  0.0
    398    383    384    401   5     0.00000     0.00000     1.25520  0.0
    399    383    384    385   5     0.00000     0.00000     1.95811  0.0
    399    383    384    400   5     0.00000     0.00000     1.25520  0.0
    399    383    384    401   5     0.00000     0.00000     1.25520  0.0
    383    384    385    386   5    -2.16731    -3.93296     0.98324  0.0
    400    384    385    386   5     0.00000     0.00000     0.67362  0.0
    401    384    385    386   5     0.00000     0.00000     0.67362  0.0
    384    385    386    387   5     0.00000    25.10400     0.00000  0.0
    384    385    386    388   5    13.65239    24.43456     0.00000  0.0
    385    386    388    363   5     0.00000     0.00000     3.07524  0.0
    385    386    388    389   5     0.00000     0.00000     3.07524  0.0
    385    386    388    390   5     0.00000     0.00000     3.07524  0.0
    387    386    388    363   5     0.00000     2.52295     0.00000  0.0
    387    386    388    389   5     0.00000     2.52295     0.00000  0.0
    387    386    388    390   5     0.00000     2.52295     0.00000  0.0
    363    388    389    402   5     0.00000     0.00000     1.25520  0.0
    363    388    389    403   5     0.00000     0.00000     1.25520  0.0
    363    388    389    404   5     0.00000     0.00000     1.25520  0.0
    386    388    389    402   5     0.00000     0.00000    -0.94140  0.0
    386    388    389    403   5     0.00000     0.00000    -0.94140  0.0
    386    388    389    404   5     0.00000     0.00000    -0.94140  0.0
    390    388    389    402   5     0.00000     0.00000     1.25520  0.0
    390    388    389    403   5     0.00000     0.00000     1.25520  0.0
    390    388    389    404   5     0.00000     0.00000     1.25520  0.0
    363    388    390    405   5     0.00000     0.00000     1.25520  0.0
    363    388    390    406   5     0.00000     0.00000     1.25520  0.0
    363    388    390    415   5     4.74884    -0.63178     1.67360  0.0
    386    388    390    405   5     0.00000     0.00000    -0.94140  0.0
    386    388    390    406   5     0.00000     0.00000    -0.94140  0.0
    386    388    390    415   5    -8.00818    -1.52298     2.46438  0.0
    389    388    390    405   5     0.00000     0.00000     1.25520  0.0
    389    388    390    406   5     0.00000     0.00000     1.25520  0.0
    389    388    390    415   5     4.74884    -0.63178     1.67360  0.0
    388    390    415    413   5    -8.00818    -1.52298     2.46438  0.0
    388    390    415    416   5     4.74884    -0.63178     1.67360  0.0
    388    390    415    417   5     4.74884    -0.63178     1.67360  0.0
    405    390    415    413   5     0.00000     0.00000    -0.94140  0.0
    405    390    415    416   5     0.00000     0.00000     1.25520  0.0
    405    390    415    417   5     0.00000     0.00000     1.25520  0.0
    406    390    415    413   5     0.00000     0.00000    -0.94140  0.0
    406    390    415    416   5     0.00000     0.00000     1.25520  0.0
    406    390    415    417   5     0.00000     0.00000     1.25520  0.0
    418    407    408    409   5     0.00000     0.00000     1.25520  0.0
    418    407    408    421   5     0.00000     0.00000     1.25520  0.0
    418    407    408    422   5     0.00000     0.00000     1.25520  0.0
    419    407    408    409   5     0.00000     0.00000     1.25520  0.0
    419    407    408    421   5     0.00000     0.00000     1.25520  0.0
    419    407    408    422   5     0.00000     0.00000     1.25520  0.0
    420    407    408    409   5     0.00000     0.00000     1.25520  0.0
    420    407    408    421   5     0.00000     0.00000     1.25520  0.0
    420    407    408    422   5     0.00000     0.00000     1.25520  0.0
    407    408    409    410   5     4.74884    -0.63178     1.67360  0.0
    407    408    409    423   5     0.00000     0.00000     1.25520  0.0
    407    408    409    424   5     0.00000     0.00000     1.25520  0.0
    421    408    409    410   5     0.00000     0.00000     1.25520  0.0
    421    408    409    423   5     0.00000     0.00000     1.25520  0.0
    421    408    409    424   5     0.00000     0.00000     1.25520  0.0
    422    408    409    410   5     0.00000     0.00000     1.25520  0.0
    422    408    409    423   5     0.00000     0.00000     1.25520  0.0
    422    408    409    424   5     0.00000     0.00000     1.25520  0.0
    408    409    410    411   5     4.74884    -0.63178     1.67360  0.0
    408    409    410    425   5     0.00000     0.00000     1.25520  0.0
    408    409    410    426   5     0.00000     0.00000     1.25520  0.0
    423    409    410    411   5     0.00000     0.00000     1.25520  0.0
    423    409    410    425   5     0.00000     0.00000     1.25520  0.0
    423    409    410    426   5     0.00000     0.00000     1.25520  0.0
    424    409    410    411   5     0.00000     0.00000     1.25520  0.0
    424    409    410    425   5     0.00000     0.00000     1.25520  0.0
    424    409    410    426   5     0.00000     0.00000     1.25520  0.0
    409    410    411    412   5     5.25092    -2.58990     2.28446  0.0
    409    410    411    427   5     0.00000     0.00000     1.25520  0.0
    409    410    411    428   5     0.00000     0.00000     1.25520  0.0
    425    410    411    412   5     0.00000     0.00000     1.95811  0.0
    425    410    411    427   5     0.00000     0.00000     1.25520  0.0
    425    410    411    428   5     0.00000     0.00000     1.25520  0.0
    426    410    411    412   5     0.00000     0.00000     1.95811  0.0
    426    410    411    427   5     0.00000     0.00000     1.25520  0.0
    426    410    411    428   5     0.00000     0.00000     1.25520  0.0
    410    411    412    413   5    -2.16731    -3.93296     0.98324  0.0
    427    411    412    413   5     0.00000     0.00000     0.67362  0.0
    428    411    412    413   5     0.00000     0.00000     0.67362  0.0
    411    412    413    414   5     0.00000    25.10400     0.00000  0.0
    411    412    413    415   5    13.65239    24.43456     0.00000  0.0
    412    413    415    390   5     0.00000     0.00000     3.07524  0.0
    412    413    415    416   5     0.00000     0.00000     3.07524  0.0
    412    413    415    417   5     0.00000     0.00000     3.07524  0.0
    414    413    415    390   5     0.00000     2.52295     0.00000  0.0
    414    413    415    416   5     0.00000     2.52295     0.00000  0.0
    414    413    415    417   5     0.00000     2.52295     0.00000  0.0
    390    415    416    429   5     0.00000     0.00000     1.25520  0.0
    390    415    416    430   5     0.00000     0.00000     1.25520  0.0
    390    415    416    431   5     0.00000     0.00000     1.25520  0.0
    413    415    416    429   5     0.00000     0.00000    -0.94140  0.0
    413    415    416    430   5     0.00000     0.00000    -0.94140  0.0
    413    415    416    431   5     0.00000     0.00000    -0.94140  0.0
    417    415    416    429   5     0.00000     0.00000     1.25520  0.0
    417    415    416    430   5     0.00000     0.00000     1.25520  0.0
    417    415    416    431   5     0.00000     0.00000     1.25520  0.0
    390    415    417    432   5     0.00000     0.00000     1.25520  0.0
    390    415    417    433   5     0.00000     0.00000     1.25520  0.0
    390    415    417    442   5     4.74884    -0.63178     1.67360  0.0
    413    415    417    432   5     0.00000     0.00000    -0.94140  0.0
    413    415    417    433   5     0.00000     0.00000    -0.94140  0.0
    413    415    417    442   5    -8.00818    -1.52298     2.46438  0.0
    416    415    417    432   5     0.00000     0.00000     1.25520  0.0
    416    415    417    433   5     0.00000     0.00000     1.25520  0.0
    416    415    417    442   5     4.74884    -0.63178     1.67360  0.0
    415    417    442    440   5    -8.00818    -1.52298     2.46438  0.0
    415    417    442    443   5     4.74884    -0.63178     1.67360  0.0
    415    417    442    444   5     4.74884    -0.63178     1.67360  0.0
    432    417    442    440   5     0.00000     0.00000    -0.94140  0.0
    432    417    442    443   5     0.00000     0.00000     1.25520  0.0
    432    417    442    444   5     0.00000     0.00000     1.25520  0.0
    433    417    442    440   5     0.00000     0.00000    -0.94140  0.0
    433    417    442    443   5     0.00000     0.00000     1.25520  0.0
    433    417    442    444   5     0.00000     0.00000     1.25520  0.0
    445    434    435    436   5     0.00000     0.00000     1.25520  0.0
    445    434    435    448   5     0.00000     0.00000     1.25520  0.0
    445    434    435    449   5     0.00000     0.00000     1.25520  0.0
    446    434    435    436   5     0.00000     0.00000     1.25520  0.0
    446    434    435    448   5     0.00000     0.00000     1.25520  0.0
    446    434    435    449   5     0.00000     0.00000     1.25520  0.0
    447    434    435    436   5     0.00000     0.00000     1.25520  0.0
    447    434    435    448   5     0.00000     0.00000     1.25520  0.0
    447    434    435    449   5     0.00000     0.00000     1.25520  0.0
    434    435    436    437   5     4.74884    -0.63178     1.67360  0.0
    434    435    436    450   5     0.00000     0.00000     1.25520  0.0
    434    435    436    451   5     0.00000     0.00000     1.25520  0.0
    448    435    436    437   5     0.00000     0.00000     1.25520  0.0
    448    435    436    450   5     0.00000     0.00000     1.25520  0.0
    448    435    436    451   5     0.00000     0.00000     1.25520  0.0
    449    435    436    437   5     0.00000     0.00000     1.25520  0.0
    449    435    436    450   5     0.00000     0.00000     1.25520  0.0
    449    435    436    451   5     0.00000     0.00000     1.25520  0.0
    435    436    437    438   5     4.74884    -0.63178     1.67360  0.0
    435    436    437    452   5     0.00000     0.00000     1.25520  0.0
    435    436    437    453   5     0.00000     0.00000     1.25520  0.0
    450    436    437    438   5     0.00000     0.00000     1.25520  0.0
    450    436    437    452   5     0.00000     0.00000     1.25520  0.0
    450    436    437    453   5     0.00000     0.00000     1.25520  0.0
    451    436    437    438   5     0.00000     0.00000     1.25520  0.0
    451    436    437    452   5     0.00000     0.00000     1.25520  0.0
    451    436    437    453   5     0.00000     0.00000     1.25520  0.0
    436    437    438    439   5     5.25092    -2.58990     2.28446  0.0
    436    437    438    454   5     0.00000     0.00000     1.25520  0.0
    436    437    438    455   5     0.00000     0.00000     1.25520  0.0
    452    437    438    439   5     0.00000     0.00000     1.95811  0.0
    452    437    438    454   5     0.00000     0.00000     1.25520  0.0
    452    437    438    455   5     0.00000     0.00000     1.25520  0.0
    453    437    438    439   5     0.00000     0.00000     1.95811  0.0
    453    437    438    454   5     0.00000     0.00000     1.25520  0.0
    453    437    438    455   5     0.00000     0.00000     1.25520  0.0
    437    438    439    440   5    -2.16731    -3.93296     0.98324  0.0
    454    438    439    440   5     0.00000     0.00000     0.67362  0.0
    455    438    439    440   5     0.00000     0.00000     0.67362  0.0
    438    439    440    441   5     0.00000    25.10400     0.00000  0.0
    438    439    440    442   5    13.65239    24.43456     0.00000  0.0
    439    440    442    417   5     0.00000     0.00000     3.07524  0.0
    439    440    442    443   5     0.00000     0.00000     3.07524  0.0
    439    440    442    444   5     0.00000     0.00000     3.07524  0.0
    441    440    442    417   5     0.00000     2.52295     0.00000  0.0
    441    440    442    443   5     0.00000     2.52295     0.00000  0.0
    441    440    442    444   5     0.00000     2.52295     0.00000  0.0
    417    442    443    456   5     0.00000     0.00000     1.25520  0.0
    417    442    443    457   5     0.00000     0.00000     1.25520  0.0
    417    442    443    458   5     0.00000     0.00000     1.25520  0.0
    440    442    443    456   5     0.00000     0.00000    -0.94140  0.0
    440    442    443    457   5     0.00000     0.00000    -0.94140  0.0
    440    442    443    458   5     0.00000     0.00000    -0.94140  0.0
    444    442    443    456   5     0.00000     0.00000     1.25520  0.0
    444    442    443    457   5     0.00000     0.00000     1.25520  0.0
    444    442    443    458   5     0.00000     0.00000     1.25520  0.0
    417    442    444    459   5     0.00000     0.00000     1.25520  0.0
    417    442    444    460   5     0.00000     0.00000     1.25520  0.0
    417    442    444    469   5     4.74884    -0.63178     1.67360  0.0
    440    442    444    459   5     0.00000     0.00000    -0.94140  0.0
    440    442    444    460   5     0.00000     0.00000    -0.94140  0.0
    440    442    444    469   5    -8.00818    -1.52298     2.46438  0.0
    443    442    444    459   5     0.00000     0.00000     1.25520  0.0
    443    442    444    460   5     0.00000     0.00000     1.25520  0.0
    443    442    444    469   5     4.74884    -0.63178     1.67360  0.0
    442    444    469    467   5    -8.00818    -1.52298     2.46438  0.0
    442    444    469    470   5     4.74884    -0.63178     1.67360  0.0
    442    444    469    471   5     4.74884    -0.63178     1.67360  0.0
    459    444    469    467   5     0.00000     0.00000    -0.94140  0.0
    459    444    469    470   5     0.00000     0.00000     1.25520  0.0
    459    444    469    471   5     0.00000     0.00000     1.25520  0.0
    460    444    469    467   5     0.00000     0.00000    -0.94140  0.0
    460    444    469    470   5     0.00000     0.00000     1.25520  0.0
    460    444    469    471   5     0.00000     0.00000     1.25520  0.0
    472    461    462    463   5     0.00000     0.00000     1.25520  0.0
    472    461    462    475   5     0.00000     0.00000     1.25520  0.0
    472    461    462    476   5     0.00000     0.00000     1.25520  0.0
    473    461    462    463   5     0.00000     0.00000     1.25520  0.0
    473    461    462    475   5     0.00000     0.00000     1.25520  0.0
    473    461    462    476   5     0.00000     0.00000     1.25520  0.0
    474    461    462    463   5     0.00000     0.00000     1.25520  0.0
    474    461    462    475   5     0.00000     0.00000     1.25520  0.0
    474    461    462    476   5     0.00000     0.00000     1.25520  0.0
    461    462    463    464   5     4.74884    -0.63178     1.67360  0.0
    461    462    463    477   5     0.00000     0.00000     1.25520  0.0
    461    462    463    478   5     0.00000     0.00000     1.25520  0.0
    475    462    463    464   5     0.00000     0.00000     1.25520  0.0
    475    462    463    477   5     0.00000     0.00000     1.25520  0.0
    475    462    463    478   5     0.00000     0.00000     1.25520  0.0
    476    462    463    464   5     0.00000     0.00000     1.25520  0.0
    476    462    463    477   5     0.00000     0.00000     1.25520  0.0
    476    462    463    478   5     0.00000     0.00000     1.25520  0.0
    462    463    464    465   5     4.74884    -0.63178     1.67360  0.0
    462    463    464    479   5     0.00000     0.00000     1.25520  0.0
    462    463    464    480   5     0.00000     0.00000     1.25520  0.0
    477    463    464    465   5     0.00000     0.00000     1.25520  0.0
    477    463    464    479   5     0.00000     0.00000     1.25520  0.0
    477    463    464    480   5     0.00000     0.00000     1.25520  0.0
    478    463    464    465   5     0.00000     0.00000     1.25520  0.0
    478    463    464    479   5     0.00000     0.00000     1.25520  0.0
    478    463    464    480   5     0.00000     0.00000     1.25520  0.0
    463    464    465    466   5     5.25092    -2.58990     2.28446  0.0
    463    464    465    481   5     0.00000     0.00000     1.25520  0.0
    463    464    465    482   5     0.00000     0.00000     1.25520  0.0
    479    464    465    466   5     0.00000     0.00000     1.95811  0.0
    479    464    465    481   5     0.00000     0.00000     1.25520  0.0
    479    464    465    482   5     0.00000     0.00000     1.25520  0.0
    480    464    465    466   5     0.00000     0.00000     1.95811  0.0
    480    464    465    481   5     0.00000     0.00000     1.25520  0.0
    480    464    465    482   5     0.00000     0.00000     1.25520  0.0
    464    465    466    467   5    -2.16731    -3.93296     0.98324  0.0
    481    465    466    467   5     0.00000     0.00000     0.67362  0.0
    482    465    466    467   5     0.00000     0.00000     0.67362  0.0
    465    466    467    468   5     0.00000    25.10400     0.00000  0.0
    465    466    467    469   5    13.65239    24.43456     0.00000  0.0
    466    467    469    444   5     0.00000     0.00000     3.07524  0.0
    466    467    469    470   5     0.00000     0.00000     3.07524  0.0
    466    467    469    471   5     0.00000     0.00000     3.07524  0.0
    468    467    469    444   5     0.00000     2.52295     0.00000  0.0
    468    467    469    470   5     0.00000     2.52295     0.00000  0.0
    468    467    469    471   5     0.00000     2.52295     0.00000  0.0
    444    469    470    483   5     0.00000     0.00000     1.25520  0.0
    444    469    470    484   5     0.00000     0.00000     1.25520  0.0
    444    469    470    485   5     0.00000     0.00000     1.25520  0.0
    467    469    470    483   5     0.00000     0.00000    -0.94140  0.0
    467    469    470    484   5     0.00000     0.00000    -0.94140  0.0
    467    469    470    485   5     0.00000     0.00000    -0.94140  0.0
    471    469    470    483   5     0.00000     0.00000     1.25520  0.0
    471    469    470    484   5     0.00000     0.00000     1.25520  0.0
    471    469    470    485   5     0.00000     0.00000     1.25520  0.0
    444    469    471    486   5     0.00000     0.00000     1.25520  0.0
    444    469    471    487   5     0.00000     0.00000     1.25520  0.0
    444    469    471    496   5     4.74884    -0.63178     1.67360  0.0
    467    469    471    486   5     0.00000     0.00000    -0.94140  0.0
    467    469    471    487   5     0.00000     0.00000    -0.94140  0.0
    467    469    471    496   5    -8.00818    -1.52298     2.46438  0.0
    470    469    471    486   5     0.00000     0.00000     1.25520  0.0
    470    469    471    487   5     0.00000     0.00000     1.25520  0.0
    470    469    471    496   5     4.74884    -0.63178     1.67360  0.0
    469    471    496    494   5    -8.00818    -1.52298     2.46438  0.0
    469    471    496    497   5     4.74884    -0.63178     1.67360  0.0
    469    471    496    498   5     4.74884    -0.63178     1.67360  0.0
    486    471    496    494   5     0.00000     0.00000    -0.94140  0.0
    486    471    496    497   5     0.00000     0.00000     1.25520  0.0
    486    471    496    498   5     0.00000     0.00000     1.25520  0.0
    487    471    496    494   5     0.00000     0.00000    -0.94140  0.0
    487    471    496    497   5     0.00000     0.00000     1.25520  0.0
    487    471    496    498   5     0.00000     0.00000     1.25520  0.0
    499    488    489    490   5     0.00000     0.00000     1.25520  0.0
    499    488    489    502   5     0.00000     0.00000     1.25520  0.0
    499    488    489    503   5     0.00000     0.00000     1.25520  0.0
    500    488    489    490   5     0.00000     0.00000     1.25520  0.0
    500    488    489    502   5     0.00000     0.00000     1.25520  0.0
    500    488    489    503   5     0.00000     0.00000     1.25520  0.0
    501    488    489    490   5     0.00000     0.00000     1.25520  0.0
    501    488    489    502   5     0.00000     0.00000     1.25520  0.0
    501    488    489    503   5     0.00000     0.00000     1.25520  0.0
    488    489    490    491   5     4.74884    -0.63178     1.67360  0.0
    488    489    490    504   5     0.00000     0.00000     1.25520  0.0
    488    489    490    505   5     0.00000     0.00000     1.25520  0.0
    502    489    490    491   5     0.00000     0.00000     1.25520  0.0
    502    489    490    504   5     0.00000     0.00000     1.25520  0.0
    502    489    490    505   5     0.00000     0.00000     1.25520  0.0
    503    489    490    491   5     0.00000     0.00000     1.25520  0.0
    503    489    490    504   5     0.00000     0.00000     1.25520  0.0
    503    489    490    505   5     0.00000     0.00000     1.25520  0.0
    489    490    491    492   5     4.74884    -0.63178     1.67360  0.0
    489    490    491    506   5     0.00000     0.00000     1.25520  0.0
    489    490    491    507   5     0.00000     0.00000     1.25520  0.0
    504    490    491    492   5     0.00000     0.00000     1.25520  0.0
    504    490    491    506   5     0.00000     0.00000     1.25520  0.0
    504    490    491    507   5     0.00000     0.00000     1.25520  0.0
    505    490    491    492   5     0.00000     0.00000     1.25520  0.0
    505    490    491    506   5     0.00000     0.00000     1.25520  0.0
    505    490    491    507   5     0.00000     0.00000     1.25520  0.0
    490    491    492    493   5     5.25092    -2.58990     2.28446  0.0
    490    491    492    508   5     0.00000     0.00000     1.25520  0.0
    490    491    492    509   5     0.00000     0.00000     1.25520  0.0
    506    491    492    493   5     0.00000     0.00000     1.95811  0.0
    506    491    492    508   5     0.00000     0.00000     1.25520  0.0
    506    491    492    509   5     0.00000     0.00000     1.25520  0.0
    507    491    492    493   5     0.00000     0.00000     1.95811  0.0
    507    491    492    508   5     0.00000     0.00000     1.25520  0.0
    507    491    492    509   5     0.00000     0.00000     1.25520  0.0
    491    492    493    494   5    -2.16731    -3.93296     0.98324  0.0
    508    492    493    494   5     0.00000     0.00000     0.67362  0.0
    509    492    493    494   5     0.00000     0.00000     0.67362  0.0
    492    493    494    495   5     0.00000    25.10400     0.00000  0.0
    492    493    494    496   5    13.65239    24.43456     0.00000  0.0
    493    494    496    471   5     0.00000     0.00000     3.07524  0.0
    493    494    496    497   5     0.00000     0.00000     3.07524  0.0
    493    494    496    498   5     0.00000     0.00000     3.07524  0.0
    495    494    496    471   5     0.00000     2.52295     0.00000  0.0
    495    494    496    497   5     0.00000     2.52295     0.00000  0.0
    495    494    496    498   5     0.00000     2.52295     0.00000  0.0
    471    496    497    510   5     0.00000     0.00000     1.25520  0.0
    471    496    497    511   5     0.00000     0.00000     1.25520  0.0
    471    496    497    512   5     0.00000     0.00000     1.25520  0.0
    494    496    497    510   5     0.00000     0.00000    -0.94140  0.0
    494    496    497    511   5     0.00000     0.00000    -0.94140  0.0
    494    496    497    512   5     0.00000     0.00000    -0.94140  0.0
    498    496    497    510   5     0.00000     0.00000     1.25520  0.0
    498    496    497    511   5     0.00000     0.00000     1.25520  0.0
    498    496    497    512   5     0.00000     0.00000     1.25520  0.0
    471    496    498    513   5     0.00000     0.00000     1.25520  0.0
    471    496    498    514   5     0.00000     0.00000     1.25520  0.0
    471    496    498    523   5     4.74884    -0.63178     1.67360  0.0
    494    496    498    513   5     0.00000     0.00000    -0.94140  0.0
    494    496    498    514   5     0.00000     0.00000    -0.94140  0.0
    494    496    498    523   5    -8.00818    -1.52298     2.46438  0.0
    497    496    498    513   5     0.00000     0.00000     1.25520  0.0
    497    496    498    514   5     0.00000     0.00000     1.25520  0.0
    497    496    498    523   5     4.74884    -0.63178     1.67360  0.0
    496    498    523    521   5    -8.00818    -1.52298     2.46438  0.0
    496    498    523    524   5     4.74884    -0.63178     1.67360  0.0
    496    498    523    525   5     4.74884    -0.63178     1.67360  0.0
    513    498    523    521   5     0.00000     0.00000    -0.94140  0.0
    513    498    523    524   5     0.00000     0.00000     1.25520  0.0
    513    498    523    525   5     0.00000     0.00000     1.25520  0.0
    514    498    523    521   5     0.00000     0.00000    -0.94140  0.0
    514    498    523    524   5     0.00000     0.00000     1.25520  0.0
    514    498    523    525   5     0.00000     0.00000     1.25520  0.0
    526    515    516    517   5     0.00000     0.00000     1.25520  0.0
    526    515    516    529   5     0.00000     0.00000     1.25520  0.0
    526    515    516    530   5     0.00000     0.00000     1.25520  0.0
    527    515    516    517   5     0.00000     0.00000     1.25520  0.0
    527    515    516    529   5     0.00000     0.00000     1.25520  0.0
    527    515    516    530   5     0.00000     0.00000     1.25520  0.0
    528    515    516    517   5     0.00000     0.00000     1.25520  0.0
    528    515    516    529   5     0.00000     0.00000     1.25520  0.0
    528    515    516    530   5     0.00000     0.00000     1.25520  0.0
    515    516    517    518   5     4.74884    -0.63178     1.67360  0.0
    515    516    517    531   5     0.00000     0.00000     1.25520  0.0
    515    516    517    532   5     0.00000     0.00000     1.25520  0.0
    529    516    517    518   5     0.00000     0.00000     1.25520  0.0
    529    516    517    531   5     0.00000     0.00000     1.25520  0.0
    529    516    517    532   5     0.00000     0.00000     1.25520  0.0
    530    516    517    518   5     0.00000     0.00000     1.25520  0.0
    530    516    517    531   5     0.00000     0.00000     1.25520  0.0
    530    516    517    532   5     0.00000     0.00000     1.25520  0.0
    516    517    518    519   5     4.74884    -0.63178     1.67360  0.0
    516    517    518    533   5     0.00000     0.00000     1.25520  0.0
    516    517    518    534   5     0.00000     0.00000     1.25520  0.0
    531    517    518    519   5     0.00000     0.00000     1.25520  0.0
    531    517    518    533   5     0.00000     0.00000     1.25520  0.0
    531    517    518    534   5     0.00000     0.00000     1.25520  0.0
    532    517    518    519   5     0.00000     0.00000     1.25520  0.0
    532    517    518    533   5     0.00000     0.00000     1.25520  0.0
    532    517    518    534   5     0.00000     0.00000     1.25520  0.0
    517    518    519    520   5     5.25092    -2.58990     2.28446  0.0
    517    518    519    535   5     0.00000     0.00000     1.25520  0.0
    517    518    519    536   5     0.00000     0.00000     1.25520  0.0
    533    518    519    520   5     0.00000     0.00000     1.95811  0.0
    533    518    519    535   5     0.00000     0.00000     1.25520  0.0
    533    518    519    536   5     0.00000     0.00000     1.25520  0.0
    534    518    519    520   5     0.00000     0.00000     1.95811  0.0
    534    518    519    535   5     0.00000     0.00000     1.25520  0.0
    534    518    519    536   5     0.00000     0.00000     1.25520  0.0
    518    519    520    521   5    -2.16731    -3.93296     0.98324  0.0
    535    519    520    521   5     0.00000     0.00000     0.67362  0.0
    536    519    520    521   5     0.00000     0.00000     0.67362  0.0
    519    520    521    522   5     0.00000    25.10400     0.00000  0.0
    519    520    521    523   5    13.65239    24.43456     0.00000  0.0
    520    521    523    498   5     0.00000     0.00000     3.07524  0.0
    520    521    523    524   5     0.00000     0.00000     3.07524  0.0
    520    521    523    525   5     0.00000     0.00000     3.07524  0.0
    522    521    523    498   5     0.00000     2.52295     0.00000  0.0
    522    521    523    524   5     0.00000     2.52295     0.00000  0.0
    522    521    523    525   5     0.00000     2.52295     0.00000  0.0
    498    523    524    537   5     0.00000     0.00000     1.25520  0.0
    498    523    524    538   5     0.00000     0.00000     1.25520  0.0
    498    523    524    539   5     0.00000     0.00000     1.25520  0.0
    521    523    524    537   5     0.00000     0.00000    -0.94140  0.0
    521    523    524    538   5     0.00000     0.00000    -0.94140  0.0
    521    523    524    539   5     0.00000     0.00000    -0.94140  0.0
    525    523    524    537   5     0.00000     0.00000     1.25520  0.0
    525    523    524    538   5     0.00000     0.00000     1.25520  0.0
    525    523    524    539   5     0.00000     0.00000     1.25520  0.0
    498    523    525    540   5     0.00000     0.00000     1.25520  0.0
    498    523    525    541   5     0.00000     0.00000     1.25520  0.0
    498    523    525    542   5     0.00000     0.00000     1.25520  0.0
    521    523    525    540   5     0.00000     0.00000    -0.94140  0.0
    521    523    525    541   5     0.00000     0.00000    -0.94140  0.0
    521    523    525    542   5     0.00000     0.00000    -0.94140  0.0
    524    523    525    540   5     0.00000     0.00000     1.25520  0.0
    524    523    525    541   5     0.00000     0.00000     1.25520  0.0
    524    523    525    542   5     0.00000     0.00000     1.25520  0.0

[ dihedrals ]
; Improper dihedrals
; h   i   j   k   funct
      6      8      7      9   5     0.00000    87.86400     0.00000  0.0
     34     36     35     37   5     0.00000    87.86400     0.00000  0.0
     61     63     62     64   5     0.00000    87.86400     0.00000  0.0
     88     90     89     91   5     0.00000    87.86400     0.00000  0.0
    115    117    116    118   5     0.00000    87.86400     0.00000  0.0
    142    144    143    145   5     0.00000    87.86400     0.00000  0.0
    169    171    170    172   5     0.00000    87.86400     0.00000  0.0
    196    198    197    199   5     0.00000    87.86400     0.00000  0.0
    223    225    224    226   5     0.00000    87.86400     0.00000  0.0
    250    252    251    253   5     0.00000    87.86400     0.00000  0.0
    277    279    278    280   5     0.00000    87.86400     0.00000  0.0
    304    306    305    307   5     0.00000    87.86400     0.00000  0.0
    331    333    332    334   5     0.00000    87.86400     0.00000  0.0
    358    360    359    361   5     0.00000    87.86400     0.00000  0.0
    385    387    386    388   5     0.00000    87.86400     0.00000  0.0
    412    414    413    415   5     0.00000    87.86400     0.00000  0.0
    439    441    440    442   5     0.00000    87.86400     0.00000  0.0
    466    468    467    469   5     0.00000    87.86400     0.00000  0.0
    493    495    494    496   5     0.00000    87.86400     0.00000  0.0
    520    522    521    523   5     0.00000    87.86400     0.00000  0.0
